Control file title. For DL_FIELD 4.10
49868
    1MOL     C1    1   4.440   5.454   2.884  0.3388 -0.6395  0.2590
    1MOL     C2    2   4.343   5.489   3.000  0.2167 -0.2310  0.0345
    1MOL     C3    3   4.586   5.429   2.928 -0.6202  0.3752 -0.7398
    1MOL     O4    4   4.608   5.402   3.048 -0.7489  0.3832 -0.6432
    1MOL     O5    5   4.675   5.441   2.831 -0.7061  0.2382 -0.1959
    1MOL     H6    6   4.411   5.368   2.823 -2.2006 -0.4083  1.0397
    1MOL     H7    7   4.337   5.400   3.062 -3.4185 -0.4946 -0.5569
    1MOL     H8    8   4.382   5.558   3.074  2.5186 -2.4272  0.9241
    1MOL     H9    9   4.236   5.499   2.980  0.2929  0.2944 -0.1305
    1MOL    H10   10   4.443   5.540   2.818  0.3818 -0.5284  0.4061
    1MOL    C11   11   4.812   5.411   2.846  0.7590  0.2214  0.4127
    1MOL    C12   12   4.885   5.497   2.749 -0.1715  0.0136 -0.1218
    1MOL    C13   13   4.841   5.258   2.825 -0.3039 -0.7857  0.2815
    1MOL    O14   14   4.884   5.187   2.917  0.1014 -0.6672  0.0953
    1MOL    O15   15   4.816   5.221   2.698  0.3727  0.3976 -0.1974
    1MOL    H16   16   4.844   5.455   2.941  1.2238  1.5045 -0.3221
    1MOL    H17   17   4.900   5.600   2.784  2.8847 -0.1685 -0.7507
    1MOL    H18   18   4.990   5.470   2.734 -0.8436 -1.5674 -2.2055
    1MOL    H19   19   4.833   5.513   2.655  0.7940  1.5176 -0.4190
    1MOL    C20   20   4.835   5.090   2.657 -0.3822 -0.2905 -0.3413
    1MOL    C21   21   4.838   5.083   2.503 -0.2391 -0.4755  0.1901
    1MOL    C22   22   4.729   4.992   2.711  0.0493 -0.1684 -0.3351
    1MOL    O23   23   4.760   4.885   2.760  0.0249  0.2871 -0.1503
    1MOL    O24   24   4.603   5.038   2.689  0.2269 -0.0957  0.1164
    1MOL    H25   25   4.937   5.067   2.689  0.2473 -1.1413 -2.8186
    1MOL    H26   26   4.924   5.141   2.470  0.3439 -1.8781 -0.8056
    1MOL    H27   27   4.846   4.981   2.466 -0.4968 -0.5586  0.3580
    1MOL    H28   28   4.747   5.122   2.456 -1.5087 -1.1376  2.0453
    1MOL    C29   29   4.502   4.937   2.680 -0.8406 -0.1612 -0.3920
    1MOL    C30   30   4.431   4.952   2.545 -0.0697  0.1700  0.2789
    1MOL    C31   31   4.405   4.957   2.795  0.2429 -0.0766 -0.8052
    1MOL    O32   32   4.425   5.049   2.879 -0.4673  0.0846 -0.0820
    1MOL    O33   33   4.298   4.881   2.795 -0.3157  0.0839 -0.3526
    1MOL    H34   34   4.551   4.840   2.683 -0.2114  0.1578 -0.2796
    1MOL    H35   35   4.494   4.960   2.456 -2.4447 -0.3398 -1.5117
    1MOL    H36   36   4.354   4.877   2.525 -0.7028  0.2299  2.3841
    1MOL    H37   37   4.375   5.045   2.559 -0.9164 -0.5275  1.7189
    1MOL    C38   38   4.178   4.886   2.882 -0.1439 -0.6736  0.3674
    1MOL    C39   39   4.110   5.024   2.855  0.1503  0.1930 -1.1826
    1MOL    C40   40   4.214   4.882   3.034  0.2317 -0.1268  0.2927
    1MOL    O41   41   4.176   4.962   3.119  0.1457 -0.4428  0.4591
    1MOL    O42   42   4.293   4.779   3.050 -0.5806 -0.0360  0.6977
    1MOL    H43   43   4.103   4.808   2.863 -1.3073  0.3945  0.4732
    1MOL    H44   44   4.019   5.046   2.910  0.4076 -0.0935 -0.6319
    1MOL    H45   45   4.183   5.093   2.897  2.7442 -1.8465 -2.1484
    1MOL    H46   46   4.101   5.039   2.747  0.4711 -2.2233 -1.5802
    1MOL    C47   47   4.330   4.739   3.178 -0.5457  0.5669  0.1417
    1MOL    C48   48   4.227   4.661   3.265  0.4634  0.0956  0.4028
    1MOL    C49   49   4.410   4.845   3.260 -0.1428  0.0656  0.0033
    1MOL    O50   50   4.383   4.876   3.376 -0.7557  0.2029 -0.4058
    1MOL    O51   51   4.509   4.900   3.190 -0.0484  0.1566 -0.2011
    1MOL    H52   52   4.411   4.670   3.153 -0.0626  0.7883  1.0528
    1MOL    H53   53   4.271   4.619   3.356  1.0364  0.4164  0.2725
    1MOL    H54   54   4.142   4.716   3.306 -0.2723  0.9764 -2.2345
    1MOL    H55   55   4.175   4.583   3.208  1.2518  1.5088 -2.3093
    1MOL    C56   56   4.581   5.008   3.246  0.0482  0.0139 -0.7144
    1MOL    C57   57   4.667   5.063   3.127  0.1788  0.6187  0.1211
    1MOL    C58   58   4.680   4.965   3.350  0.4625 -1.2500  0.2189
    1MOL    O59   59   4.738   4.858   3.337 -0.1513 -0.0840  0.5983
    1MOL    O60   60   4.698   5.054   3.446  0.0619  0.3922 -0.5057
    1MOL    H61   61   4.515   5.089   3.276  0.8183  0.9586 -1.5832
    1MOL    H62   62   4.607   5.077   3.037  2.1990  0.6659 -1.2451
    1MOL    H63   63   4.718   5.156   3.153  1.8259 -0.3936  0.6073
    1MOL    H64   64   4.741   4.987   3.102 -0.0787  0.5333 -0.3789
    1MOL    C65   65   4.812   5.057   3.534 -0.1162  0.5284  0.2480
    1MOL    C66   66   4.799   5.180   3.621  0.5594  0.3922 -0.9752
    1MOL    C67   67   4.946   5.065   3.458  0.0503  0.0935 -0.4239
    1MOL    O68   68   4.951   5.122   3.352 -0.2348 -0.2632  0.3049
    1MOL    O69   69   5.051   5.010   3.522 -0.0757 -0.0621 -0.2554
    1MOL    H70   70   4.810   4.967   3.595  0.5181 -0.7602 -1.5749
    1MOL    H71   71   4.885   5.199   3.686 -0.2915  0.2483  0.2125
    1MOL    H72   72   4.782   5.273   3.568  0.5133  1.3177  0.6383
    1MOL    H73   73   4.716   5.161   3.689  1.4265 -1.1745 -0.3166
    1MOL    C74   74   5.177   5.003   3.454  0.5775  0.5907  0.3031
    1MOL    C75   75   5.236   4.863   3.487 -0.2340  0.6933 -0.3328
    1MOL    C76   76   5.275   5.118   3.482  0.1521 -0.7226  0.4608
    1MOL    O77   77   5.374   5.094   3.552 -0.4682 -0.2127 -0.3017
    1MOL    O78   78   5.232   5.241   3.442  0.9583 -0.3397 -0.0455
    1MOL    H79   79   5.163   5.003   3.346 -2.1877  1.7248  0.6263
    1MOL    H80   80   5.316   4.830   3.422 -0.5540  2.6950 -1.7875
    1MOL    H81   81   5.270   4.857   3.591 -0.0016  1.6041 -0.3529
    1MOL    H82   82   5.155   4.792   3.469 -0.7387  1.2285 -0.1931
    1MOL    C83   83   5.305   5.360   3.467 -0.2344  1.1476  0.1398
    1MOL    C84   84   5.196   5.467   3.475 -0.0247 -0.4142  0.0875
    1MOL    C85   85   5.405   5.386   3.348 -0.0549 -0.3329  0.3834
    1MOL    O86   86   5.423   5.303   3.260  0.3935 -0.2406  0.3384
    1MOL    O87   87   5.473   5.508   3.371  0.5556  0.2812  0.1511
    1MOL    H88   88   5.360   5.358   3.561 -0.8670  1.8719  0.5328
    1MOL    H89   89   5.161   5.469   3.372 -0.9007  0.6678  0.3913
    1MOL    H90   90   5.128   5.440   3.556 -0.2050 -0.2660 -0.0140
    1MOL    H91   91   5.240   5.563   3.503  3.2524 -1.9912  0.5670
    1MOL    C92   92   5.565   5.563   3.268 -0.5276  0.2505 -0.5769
    1MOL    C93   93   5.647   5.678   3.325  0.1306  0.0005 -0.4513
    1MOL    C94   94   5.501   5.599   3.132 -0.1513  0.7414  0.6804
    1MOL    O95   95   5.575   5.606   3.034  0.1850 -0.0575 -0.0671
    1MOL    O96   96   5.366   5.625   3.135 -0.2943 -0.5750 -0.2103
    1MOL    H97   97   5.636   5.488   3.235 -2.5309 -1.1470 -1.8621
    1MOL    H98   98   5.714   5.639   3.402 -1.4777  0.2670  1.1250
    1MOL    H99   99   5.710   5.730   3.253 -0.4246  1.5504  0.1517
    1MOL   H100  100   5.579   5.746   3.375  0.2186 -0.0602 -0.2468
    1MOL   C101  101   5.285   5.656   3.022 -0.4476 -0.4593  0.2607
    1MOL   C102  102   5.153   5.727   3.067  0.2325 -0.2932 -0.1304
    1MOL   C103  103   5.252   5.527   2.950 -0.3712  0.6305  0.1723
    1MOL   O104  104   5.234   5.520   2.825  0.1150  0.5030 -1.0118
    1MOL   O105  105   5.218   5.424   3.032 -0.0091 -0.0124  0.2454
    1MOL   H106  106   5.344   5.725   2.961  1.3485 -2.1758  0.0052
    1MOL   H107  107   5.096   5.659   3.129  0.5245 -1.4670 -1.1215
    1MOL   H108  108   5.160   5.819   3.124  0.1232 -0.1648 -0.3234
    1MOL   H109  109   5.088   5.752   2.983 -1.0840 -1.6527  0.4560
    1MOL   C110  110   5.189   5.294   2.971  0.3553 -0.1107  0.7753
    1MOL   C111  111   5.119   5.207   3.080 -0.2552 -0.2524 -0.2665
    1MOL   C112  112   5.317   5.207   2.935 -0.4327  0.0661  0.1023
    1MOL   O113  113   5.436   5.249   2.947  0.3635  0.3400 -0.6542
    1MOL   O114  114   5.287   5.085   2.889  0.2098  0.3061  0.6322
    1MOL   H115  115   5.129   5.294   2.879 -3.0836 -1.8713  2.9297
    1MOL   H116  116   5.184   5.192   3.166 -3.6342 -1.4616  2.2042
    1MOL   H117  117   5.044   5.271   3.125 -1.7306 -1.0947 -1.4749
    1MOL   H118  118   5.064   5.115   3.058  0.3343 -0.8531  0.7200
    1MOL   C119  119   5.388   4.990   2.866 -0.5036  0.3028 -0.0436
    1MOL   C120  120   5.352   4.887   2.757 -0.1538 -0.1129  0.0010
    1MOL   C121  121   5.424   4.928   3.003 -0.6638 -0.0044  0.1785
    1MOL   O122  122   5.332   4.885   3.076 -0.5853 -0.0473 -0.2655
    1MOL   O123  123   5.560   4.942   3.034  0.5887 -0.5995  0.4733
    1MOL   H124  124   5.482   5.038   2.840  0.8985 -1.0165  2.3055
    1MOL   H125  125   5.324   4.942   2.666  3.5813 -1.8084 -2.2837
    1MOL   H126  126   5.434   4.821   2.730 -0.1379 -0.3304  0.5715
    1MOL   H127  127   5.261   4.829   2.774 -0.5592 -0.2150 -2.2697
    1MOL   C128  128   5.609   4.899   3.162  0.0085  0.6166 -0.3035
    1MOL   C129  129   5.561   5.012   3.261  0.2192 -0.2011 -0.3599
    1MOL   C130  130   5.765   4.883   3.164  0.2154 -0.3347 -0.9337
    1MOL   O131  131   5.839   4.911   3.067 -0.2551  0.4353 -0.1742
    1MOL   O132  132   5.808   4.838   3.283  0.2758  0.1137 -0.1148
    1MOL   H133  133   5.569   4.802   3.191 -1.0048  0.8907 -0.7688
    1MOL   H134  134   5.581   5.111   3.221 -0.8811  1.0466  2.0980
    1MOL   H135  135   5.453   5.001   3.270  0.5440 -2.2347  1.6975
    1MOL   H136  136   5.620   5.008   3.353 -1.0313 -1.5616  0.4086
    1MOL   C137  137   5.944   4.809   3.308  0.9460 -0.4950  0.4496
    1MOL   C138  138   5.951   4.705   3.412 -0.1822 -0.3598  0.1992
    1MOL   C139  139   6.021   4.936   3.339 -0.5388  0.2475 -0.7505
    1MOL   O140  140   6.142   4.939   3.322 -0.4422 -0.3137  0.1539
    1MOL   O141  141   5.940   5.034   3.383 -0.3252  0.1659 -0.1899
    1MOL   H142  142   5.990   4.784   3.212 -0.7450  2.2368 -1.1281
    1MOL   H143  143   6.056   4.682   3.431  0.0026 -0.7444 -1.2278
    1MOL   H144  144   5.890   4.711   3.502 -0.3000  0.9162  0.0346
    1MOL   H145  145   5.925   4.610   3.365  1.9130 -1.0574  0.3581
    1MOL   C146  146   5.990   5.162   3.415  0.0298 -0.2234 -0.0973
    1MOL   C147  147   5.976   5.181   3.566  0.4216  0.2376  0.4386
    1MOL   C148  148   5.918   5.267   3.328  0.4469  0.3020  0.6573
    1MOL   O149  149   5.848   5.361   3.370 -0.3063 -0.4299  0.4061
    1MOL   O150  150   5.947   5.258   3.191  0.6885  0.2298  0.3619
    1MOL   H151  151   6.098   5.172   3.401 -0.0834  0.4067 -0.5244
    1MOL   H152  152   5.872   5.182   3.601 -0.0421  0.5383 -0.9285
    1MOL   H153  153   6.025   5.103   3.624  0.8009  0.1673  0.0166
    1MOL   H154  154   6.017   5.279   3.591  0.5826  0.4152 -0.4961
    1MOL   C155  155   5.892   5.348   3.097 -0.2209 -0.3844 -0.1359
    1MOL   C156  156   5.876   5.273   2.969 -0.0126  0.4392 -0.5030
    1MOL   C157  157   5.969   5.483   3.087 -0.4089  0.7211 -0.1952
    1MOL   O158  158   6.064   5.508   3.156 -0.4006 -0.4022 -0.1573
    1MOL   O159  159   5.907   5.563   3.002  0.3595  0.0686  0.2460
    1MOL   H160  160   5.794   5.374   3.136  0.9269 -0.6034  3.0099
    1MOL   H161  161   5.836   5.331   2.886 -2.0795 -2.1121 -1.3500
    1MOL   H162  162   5.974   5.236   2.942 -0.3553 -0.5123 -0.4578
    1MOL   H163  163   5.807   5.190   2.981  0.9825 -0.0794  1.9741
    1MOL   C164  164   5.949   5.700   2.965  0.6025  0.1498  0.4652
    1MOL   C165  165   5.848   5.768   2.879  0.0532 -0.3887  0.1691
    1MOL   C166  166   6.089   5.702   2.890 -0.3280  0.0619  0.1439
    1MOL   O167  167   6.133   5.604   2.831 -0.4220 -0.1323  0.0693
    1MOL   O168  168   6.149   5.820   2.888 -0.4168  0.0287  0.1315
    1MOL   H169  169   5.971   5.746   3.061 -0.2764  1.5792 -0.0079
    1MOL   H170  170   5.889   5.851   2.822 -0.3448 -0.3351 -0.0383
    1MOL   H171  171   5.808   5.699   2.804  1.5422 -2.9408  1.6398
    1MOL   H172  172   5.764   5.808   2.936 -0.0101 -1.7403  1.0374
    1MOL   C173  173   6.275   5.837   2.836 -0.4431 -0.0539  0.8693
    1MOL   C174  174   6.353   5.949   2.912  0.0846  0.7324  0.2758
    1MOL   C175  175   6.264   5.873   2.684 -0.0018  0.6427  0.2741
    1MOL   O176  176   6.164   5.865   2.614  0.0932  0.1643  0.0430
    1MOL   O177  177   6.386   5.914   2.635  0.0813 -0.6242 -0.5432
    1MOL   H178  178   6.331   5.743   2.837  1.5661  1.1050  1.3257
    1MOL   H179  179   6.387   5.914   3.009  0.4625  1.9685  0.6016
    1MOL   H180  180   6.438   5.990   2.857  0.3434 -1.0225 -0.6838
    1MOL   H181  181   6.290   6.035   2.933 -0.9201  0.6333 -2.1115
    1MOL   H182  182   6.382   5.938   2.543 -1.3989  0.5619 -0.1844
    2MOL     C1  183   6.512   1.647   1.073  0.1849 -0.4874  0.3164
    2MOL     C2  184   6.379   1.698   1.019  0.4647 -0.8301 -0.4942
    2MOL     C3  185   6.495   1.524   1.156 -0.3324 -0.6810 -0.5408
    2MOL     O4  186   6.566   1.505   1.252  0.6047 -0.0254 -0.2402
    2MOL     O5  187   6.403   1.441   1.109  0.2493 -0.1870  0.6600
    2MOL     H6  188   6.577   1.614   0.993  0.4593 -1.9657  1.1298
    2MOL     H7  189   6.336   1.629   0.946 -0.8097  0.0952 -0.6385
    2MOL     H8  190   6.304   1.734   1.090 -0.1306 -1.3460 -0.8520
    2MOL     H9  191   6.412   1.782   0.958  1.0190 -0.3632  0.4369
    2MOL    H10  192   6.553   1.719   1.144 -1.5354 -1.7947  2.7363
    2MOL    C11  193   6.380   1.319   1.178 -0.0835 -0.2302  0.2316
    2MOL    C12  194   6.335   1.213   1.080 -0.3284 -0.1549  0.6841
    2MOL    C13  195   6.270   1.334   1.293  0.6078  0.1440  0.5024
    2MOL    O14  196   6.183   1.417   1.290  0.3070 -0.2883 -0.6116
    2MOL    O15  197   6.293   1.250   1.396  0.0209  0.0003  0.5628
    2MOL    H16  198   6.472   1.282   1.224 -0.5640 -0.5494  0.9484
    2MOL    H17  199   6.238   1.232   1.034  0.8528  2.1001 -0.9496
    2MOL    H18  200   6.412   1.196   1.005  0.1132 -1.2727  1.3724
    2MOL    H19  201   6.324   1.120   1.136 -2.7280  1.3275  2.7667
    2MOL    C20  202   6.213   1.252   1.512  0.1356 -0.4486 -0.5261
    2MOL    C21  203   6.289   1.329   1.618 -0.1192 -0.0101  0.2354
    2MOL    C22  204   6.181   1.113   1.555  0.2296  0.3234  0.0353
    2MOL    O23  205   6.204   1.071   1.671 -0.2378  0.0126  0.4182
    2MOL    O24  206   6.131   1.043   1.450 -0.6523  0.6864  0.0128
    2MOL    H25  207   6.116   1.296   1.492 -0.4493 -0.7766  1.4880
    2MOL    H26  208   6.212   1.329   1.695 -1.4704 -1.4088 -1.0803
    2MOL    H27  209   6.381   1.288   1.660 -0.4439 -0.4684  0.4997
    2MOL    H28  210   6.308   1.434   1.594  1.4893 -0.5195 -0.8073
    2MOL    C29  211   6.080   0.912   1.480 -0.9041  0.4164 -0.6820
    2MOL    C30  212   6.069   0.839   1.340 -0.1872 -0.6278  0.1019
    2MOL    C31  213   5.936   0.924   1.534 -0.0155 -0.2289  0.4884
    2MOL    O32  214   5.863   1.029   1.535  0.6034  0.3615  0.3777
    2MOL    O33  215   5.889   0.808   1.587 -0.0889  0.5051  0.4393
    2MOL    H34  216   6.141   0.854   1.550 -0.3919  1.5870 -0.1484
    2MOL    H35  217   6.169   0.840   1.296  0.2577 -1.0268  1.0831
    2MOL    H36  218   6.045   0.734   1.355 -1.1284 -0.6353 -1.3957
    2MOL    H37  219   5.988   0.879   1.280 -0.3287 -1.9146 -0.5912
    2MOL    C38  220   5.763   0.806   1.650 -0.3062  0.0749  0.3344
    2MOL    C39  221   5.744   0.691   1.763  0.0691  0.2979  0.4318
    2MOL    C40  222   5.650   0.794   1.544 -0.5732  0.3665 -0.6886
    2MOL    O41  223   5.669   0.732   1.437  0.0394 -0.4422  0.6192
    2MOL    O42  224   5.534   0.856   1.589  0.3434  0.2707 -0.8863
    2MOL    H43  225   5.738   0.900   1.698 -1.6665 -0.5347  0.8357
    2MOL    H44  226   5.774   0.594   1.726  0.1383 -0.3003  2.0255
    2MOL    H45  227   5.793   0.715   1.857 -0.3055  1.5749  0.3124
    2MOL    H46  228   5.640   0.672   1.788  0.5075 -1.5355  0.9190
    2MOL    C47  229   5.402   0.822   1.527 -0.2915  0.2878  0.8199
    2MOL    C48  230   5.297   0.919   1.565 -0.5981  0.4396 -0.1643
    2MOL    C49  231   5.355   0.680   1.570 -0.5720  0.4147 -0.3351
    2MOL    O50  232   5.401   0.623   1.666 -0.2938  0.1035 -0.9137
    2MOL    O51  233   5.262   0.629   1.486  0.0686  0.0714 -0.0813
    2MOL    H52  234   5.415   0.821   1.419  3.0788 -0.5171  1.1662
    2MOL    H53  235   5.273   0.922   1.672 -2.6632  0.2054 -0.5891
    2MOL    H54  236   5.331   1.016   1.530  0.2732 -0.0234 -0.5927
    2MOL    H55  237   5.204   0.914   1.508 -0.7859  0.2052  0.1563
    2MOL    C56  238   5.186   0.513   1.523  0.0203 -0.6340 -0.4857
    2MOL    C57  239   5.102   0.460   1.407  0.2235  0.5419  0.1747
    2MOL    C58  240   5.090   0.552   1.638 -0.2912  0.1577 -0.3244
    2MOL    O59  241   5.096   0.497   1.748 -0.3876 -0.0083  0.0035
    2MOL    O60  242   5.004   0.639   1.596  1.0067 -0.0683 -0.3899
    2MOL    H61  243   5.247   0.432   1.564 -0.2087  0.0276  1.1815
    2MOL    H62  244   5.026   0.386   1.431  2.3873 -1.5642  0.7011
    2MOL    H63  245   5.055   0.546   1.359  0.4267 -0.3192 -1.6425
    2MOL    H64  246   5.167   0.410   1.336 -2.4253 -0.4237 -1.6746
    2MOL    C65  247   4.914   0.713   1.680 -0.2524  0.3838 -0.7254
    2MOL    C66  248   4.806   0.776   1.589 -1.3017 -0.0105 -0.0844
    2MOL    C67  249   4.993   0.812   1.769 -0.4829  0.1706  0.2900
    2MOL    O68  250   4.977   0.935   1.759  0.2968  0.4814  0.1964
    2MOL    O69  251   5.070   0.746   1.858 -0.1876 -0.2957  0.9032
    2MOL    H70  252   4.874   0.638   1.748 -0.2442  0.0963 -1.0347
    2MOL    H71  253   4.854   0.834   1.510  0.6948 -3.4546 -1.5409
    2MOL    H72  254   4.741   0.701   1.544 -0.0221 -0.8931 -0.4900
    2MOL    H73  255   4.739   0.848   1.635 -0.6372 -0.2625  1.3085
    2MOL    C74  256   5.111   0.820   1.967 -0.0440 -0.8304 -0.4304
    2MOL    C75  257   5.241   0.751   2.004  0.0470  0.7363  0.0933
    2MOL    C76  258   4.997   0.821   2.079  0.1725  0.2527  1.0319
    2MOL    O77  259   4.890   0.763   2.067  0.6643  0.1699 -0.2316
    2MOL    O78  260   5.039   0.892   2.189 -0.1434  0.0751 -0.7846
    2MOL    H79  261   5.141   0.923   1.946 -0.1458 -0.6937  0.0874
    2MOL    H80  262   5.259   0.774   2.109  3.0411  0.9615 -0.4125
    2MOL    H81  263   5.238   0.643   1.993 -0.8831  0.5062  2.3031
    2MOL    H82  264   5.313   0.801   1.939 -0.5437  0.7002 -0.5933
    2MOL    C83  265   4.945   0.923   2.299 -0.8837  0.3649  0.1689
    2MOL    C84  266   4.868   1.046   2.263 -0.1868 -0.6870 -0.5352
    2MOL    C85  267   5.018   0.941   2.428  0.4314  0.5015 -0.5075
    2MOL    O86  268   5.010   0.847   2.511  0.1913 -0.2100 -0.1165
    2MOL    O87  269   5.090   1.052   2.441 -0.5424 -0.4927 -0.2246
    2MOL    H88  270   4.883   0.834   2.308  0.2658 -0.7440 -2.4824
    2MOL    H89  271   4.923   1.128   2.216 -1.5560  0.4758 -0.1352
    2MOL    H90  272   4.791   1.025   2.188 -0.2629  1.5190 -1.1152
    2MOL    H91  273   4.823   1.088   2.352  0.0826  2.8932 -1.9826
    2MOL    C92  274   5.186   1.057   2.547 -0.3753 -0.1431 -0.0077
    2MOL    C93  275   5.215   1.206   2.572  0.3910 -0.5425 -0.0286
    2MOL    C94  276   5.313   0.974   2.513 -0.1742  0.0584 -0.7957
    2MOL    O95  277   5.327   0.913   2.409 -0.5483 -0.2941  0.1530
    2MOL    O96  278   5.410   0.996   2.599 -0.3179  0.3696 -0.2724
    2MOL    H97  279   5.127   1.027   2.633 -1.1137  0.3287 -0.3514
    2MOL    H98  280   5.267   1.219   2.668  0.2818 -2.3781  0.2983
    2MOL    H99  281   5.287   1.243   2.499 -0.8431 -0.0211 -0.9940
    2MOL   H100  282   5.119   1.255   2.568 -0.8595 -2.7144  1.7755
    2MOL   C101  283   5.544   0.949   2.565  0.5545  0.0360 -1.1096
    2MOL   C102  284   5.636   0.977   2.688 -0.1411 -0.3540 -0.0596
    2MOL   C103  285   5.603   1.027   2.445 -0.5063 -0.9410 -0.3888
    2MOL   O104  286   5.573   1.144   2.429  0.2480  0.5989 -0.1818
    2MOL   O105  287   5.700   0.962   2.388 -0.3403 -0.2435 -0.4932
    2MOL   H106  288   5.538   0.843   2.541 -1.1215 -0.2591  0.5165
    2MOL   H107  289   5.580   0.959   2.780 -2.0513  2.0285 -0.6741
    2MOL   H108  290   5.731   0.925   2.687 -0.1746 -0.3871 -1.3808
    2MOL   H109  291   5.660   1.083   2.699  2.8671 -1.0944  1.2089
    2MOL   C110  292   5.778   1.031   2.289 -0.0914 -0.4706 -0.1511
    2MOL   C111  293   5.852   0.931   2.206  0.2708 -0.9643  0.9865
    2MOL   C112  294   5.880   1.114   2.362 -0.4008 -0.4721 -0.0281
    2MOL   O113  295   5.879   1.122   2.487  0.5024  0.2493  0.0436
    2MOL   O114  296   5.970   1.169   2.286 -0.0984 -0.5103 -0.0195
    2MOL   H115  297   5.712   1.098   2.234 -1.0837 -0.2780  1.2262
    2MOL   H116  298   5.784   0.862   2.155  0.9288 -1.6853  1.0707
    2MOL   H117  299   5.922   0.980   2.138  0.7389  0.6207  2.6051
    2MOL   H118  300   5.922   0.872   2.265  1.3116 -0.9961 -0.2545
    2MOL   C119  301   6.082   1.240   2.339 -0.5227 -0.1928  0.4815
    2MOL   C120  302   6.195   1.160   2.414  0.6403 -0.3095  0.7190
    2MOL   C121  303   6.040   1.373   2.404  0.0140 -0.4330 -0.0081
    2MOL   O122  304   6.050   1.477   2.341 -0.3114  0.6580 -0.3359
    2MOL   O123  305   6.006   1.368   2.532 -0.4425 -0.3063 -0.2982
    2MOL   H124  306   6.138   1.272   2.251  0.3204  0.8447  1.3785
    2MOL   H125  307   6.243   1.091   2.345 -0.6937 -0.8341  0.3060
    2MOL   H126  308   6.267   1.228   2.459  0.1222  1.3012 -0.8281
    2MOL   H127  309   6.145   1.100   2.491 -1.4340  2.2030  1.4295
    2MOL   C128  310   5.954   1.488   2.602 -0.5429  0.3347 -0.1402
    2MOL   C129  311   5.962   1.473   2.756 -0.2248 -0.4136 -0.5065
    2MOL   C130  312   5.809   1.516   2.574  0.6928  0.3832  0.6060
    2MOL   O131  313   5.776   1.629   2.547  0.0350  0.5667  0.2763
    2MOL   O132  314   5.729   1.411   2.579 -0.2554  0.0620  0.5544
    2MOL   H133  315   6.011   1.579   2.581 -1.7723  2.1437  3.7952
    2MOL   H134  316   6.064   1.447   2.786 -0.2415  1.3058  1.1525
    2MOL   H135  317   5.938   1.569   2.802 -0.8282 -1.2150  0.8695
    2MOL   H136  318   5.898   1.402   2.807  1.9909  0.3079  3.5798
    2MOL   C137  319   5.583   1.423   2.597  0.1044 -0.3859  0.1889
    2MOL   C138  320   5.507   1.486   2.482  0.5660 -0.1331 -0.1272
    2MOL   C139  321   5.547   1.482   2.736  0.1556 -0.2285  0.3384
    2MOL   O140  322   5.473   1.578   2.745  0.0265  0.1602 -0.2294
    2MOL   O141  323   5.624   1.433   2.837 -0.2810 -0.2672 -0.1076
    2MOL   H142  324   5.544   1.322   2.599  1.1540 -0.7808  0.9249
    2MOL   H143  325   5.521   1.426   2.392  2.8146 -0.3263  0.3114
    2MOL   H144  326   5.399   1.487   2.494  0.5038  1.5146 -0.6852
    2MOL   H145  327   5.539   1.590   2.474 -3.1638  1.0604 -0.7959
    2MOL   C146  328   5.614   1.490   2.970 -0.8002 -0.2436 -0.0144
    2MOL   C147  329   5.728   1.419   3.059  0.2561  0.4036  0.3303
    2MOL   C148  330   5.469   1.475   3.026 -0.4098 -0.1943  0.6247
    2MOL   O149  331   5.390   1.396   2.985 -0.5064 -0.0382 -0.1868
    2MOL   O150  332   5.446   1.553   3.131 -0.0285 -0.0020 -0.3116
    2MOL   H151  333   5.636   1.596   2.956  0.8203 -0.7001 -1.0896
    2MOL   H152  334   5.761   1.322   3.021  1.1940  0.2541  1.4906
    2MOL   H153  335   5.821   1.475   3.072 -0.7708  1.6467  2.5704
    2MOL   H154  336   5.691   1.412   3.161 -1.9624  0.2278 -0.4645
    2MOL   C155  337   5.318   1.548   3.210 -0.7379  0.4421 -0.7572
    2MOL   C156  338   5.323   1.678   3.308 -0.4238 -0.4696  0.1246
    2MOL   C157  339   5.309   1.415   3.284 -0.1201 -0.8024 -0.1152
    2MOL   O158  340   5.221   1.331   3.273  0.9838 -0.1551 -0.4023
    2MOL   O159  341   5.412   1.398   3.370 -0.2851 -0.3302 -0.6686
    2MOL   H160  342   5.232   1.560   3.144 -0.7305  0.9283 -0.6769
    2MOL   H161  343   5.375   1.755   3.251  0.4811 -0.6617  0.6824
    2MOL   H162  344   5.227   1.719   3.341  0.1246 -0.6464  1.9514
    2MOL   H163  345   5.381   1.663   3.398  0.1376 -0.6634 -0.2681
    2MOL   C164  346   5.404   1.292   3.466 -0.8199  0.4099  0.0710
    2MOL   C165  347   5.505   1.318   3.581 -0.6704  0.2951 -0.4692
    2MOL   C166  348   5.437   1.161   3.394 -0.0016  0.4828  1.3926
    2MOL   O167  349   5.384   1.056   3.435  0.5694  0.2239  1.3496
    2MOL   O168  350   5.532   1.169   3.294 -0.5399 -0.2039 -0.0595
    2MOL   H169  351   5.304   1.298   3.509 -0.2672  2.1091  1.1963
    2MOL   H170  352   5.497   1.245   3.662  1.4990 -0.8470 -1.2328
    2MOL   H171  353   5.612   1.309   3.561  0.0279  1.8978  2.2082
    2MOL   H172  354   5.487   1.417   3.623 -2.9866 -0.5969  0.7155
    2MOL   C173  355   5.576   1.057   3.225 -0.1417  0.1021  0.0450
    2MOL   C174  356   5.727   1.066   3.230  0.7336 -0.3294 -0.4499
    2MOL   C175  357   5.517   1.059   3.084 -0.0074 -0.2869 -0.5792
    2MOL   O176  358   5.594   1.079   2.986 -0.2580  0.1654  0.1631
    2MOL   O177  359   5.388   1.048   3.066  0.0359 -0.1820  0.1332
    2MOL   H178  360   5.547   0.966   3.278 -0.4395  0.3413  0.2908
    2MOL   H179  361   5.755   1.081   3.334 -0.5060 -1.1142  0.0038
    2MOL   H180  362   5.764   0.965   3.210 -1.9412 -1.7337  1.5139
    2MOL   H181  363   5.760   1.135   3.152  1.4300  1.0864  1.0837
    2MOL   H182  364   5.351   1.052   2.979 -1.2627  0.0701  0.6795
    3MOL     C1  365   1.300   3.445   0.966 -0.3771  0.2848  0.3006
    3MOL     C2  366   1.301   3.290   0.953  0.8068  0.4101  0.2376
    3MOL     C3  367   1.191   3.497   1.062 -0.7645 -0.5174  0.7553
    3MOL     O4  368   1.218   3.544   1.176 -0.2854  0.0633  0.7016
    3MOL     O5  369   1.066   3.486   1.010 -0.3331  0.6527  0.5018
    3MOL     H6  370   1.399   3.472   1.002  0.5885 -2.3522 -0.3080
    3MOL     H7  371   1.389   3.253   1.006  1.1009 -0.1968 -0.6624
    3MOL     H8  372   1.208   3.243   0.982  0.3921  0.0209 -1.6303
    3MOL     H9  373   1.320   3.258   0.850  1.7527  2.1248 -0.1564
    3MOL    H10  374   1.297   3.486   0.865 -0.2816  2.0835  1.0007
    3MOL    C11  375   0.959   3.514   1.102  0.0701  0.2977 -0.1076
    3MOL    C12  376   0.919   3.377   1.165  0.6468 -0.1306 -0.3329
    3MOL    C13  377   0.854   3.595   1.027 -0.4693  0.0154  0.5625
    3MOL    O14  378   0.749   3.547   0.987  0.5898  0.3942 -0.5244
    3MOL    O15  379   0.884   3.719   1.010  0.3767  0.3687 -1.0259
    3MOL    H16  380   0.989   3.577   1.186  1.6577 -2.8941  1.8059
    3MOL    H17  381   0.827   3.396   1.221  1.3541  0.9280  0.5032
    3MOL    H18  382   0.894   3.303   1.089  1.2908  0.7780 -1.4485
    3MOL    H19  383   0.994   3.333   1.231  2.3363  2.2725 -0.5823
    3MOL    C20  384   0.795   3.816   0.954  0.2131  0.3839  0.2983
    3MOL    C21  385   0.861   3.945   0.912  0.0505  0.3630 -0.1181
    3MOL    C22  386   0.671   3.829   1.034 -0.2061 -0.1907  0.4333
    3MOL    O23  387   0.567   3.785   0.980  0.1549 -0.4637 -0.2535
    3MOL    O24  388   0.689   3.898   1.140 -0.5846  0.3416 -0.2477
    3MOL    H25  389   0.760   3.764   0.864  0.2505  0.9704 -0.0576
    3MOL    H26  390   0.903   4.003   0.994 -0.2390  0.9850 -0.4130
    3MOL    H27  391   0.933   3.916   0.836  0.5554 -1.0165  0.8552
    3MOL    H28  392   0.782   4.006   0.869  1.7373  1.0148 -2.3239
    3MOL    C29  393   0.577   3.942   1.218 -0.1661 -0.2247 -0.0461
    3MOL    C30  394   0.640   4.048   1.314 -0.6535 -0.4784  0.1951
    3MOL    C31  395   0.499   3.831   1.282  0.4091 -0.3314 -0.5925
    3MOL    O32  396   0.388   3.856   1.313 -0.0465  0.1618  0.2124
    3MOL    O33  397   0.568   3.723   1.320  0.2051  0.5825  0.4008
    3MOL    H34  398   0.515   3.996   1.146  0.9111  0.1125 -0.7305
    3MOL    H35  399   0.706   3.998   1.384 -2.5248 -1.5223  1.2603
    3MOL    H36  400   0.695   4.125   1.260  0.8121 -2.3974 -1.1303
    3MOL    H37  401   0.558   4.086   1.374  0.4581  0.4545  1.1319
    3MOL    C38  402   0.508   3.613   1.380 -0.0297 -0.2087  0.4537
    3MOL    C39  403   0.561   3.598   1.518  0.2723  0.9070  0.5434
    3MOL    C40  404   0.524   3.494   1.293 -0.3387 -0.0768  0.8287
    3MOL    O41  405   0.598   3.396   1.334  0.3876  0.0343 -0.1548
    3MOL    O42  406   0.474   3.498   1.174 -0.1312  0.1528  0.2892
    3MOL    H43  407   0.402   3.626   1.400 -0.3515 -0.3342 -1.1517
    3MOL    H44  408   0.668   3.577   1.507 -0.1106  0.1695 -2.1895
    3MOL    H45  409   0.539   3.684   1.580 -2.0078  0.4118  0.4476
    3MOL    H46  410   0.524   3.509   1.569 -0.1643  0.3678 -0.6852
    3MOL    C47  411   0.495   3.387   1.084 -0.0575  0.8331 -0.5431
    3MOL    C48  412   0.474   3.438   0.939 -0.0934 -0.0255  0.0613
    3MOL    C49  413   0.398   3.272   1.122 -0.4470  0.2731  0.1455
    3MOL    O50  414   0.325   3.277   1.227  0.0899 -0.0239  0.1871
    3MOL    O51  415   0.414   3.168   1.038  0.1716  0.2274 -0.6159
    3MOL    H52  416   0.598   3.355   1.095 -0.5297 -0.6736 -0.3130
    3MOL    H53  417   0.488   3.546   0.934  3.8818 -0.4150  0.9955
    3MOL    H54  418   0.544   3.397   0.867 -1.2282  0.3909 -1.3077
    3MOL    H55  419   0.374   3.417   0.901  0.5916 -2.8050 -0.3287
    3MOL    C56  420   0.323   3.055   1.038 -0.0009  1.0816 -0.4602
    3MOL    C57  421   0.395   2.928   0.992  0.2950 -0.2799  0.1206
    3MOL    C58  422   0.200   3.096   0.948  0.0243 -0.6628  0.1558
    3MOL    O59  423   0.198   3.203   0.885  0.0019  0.3741  0.6472
    3MOL    O60  424   0.112   3.004   0.929  0.3799 -0.1999 -0.2537
    3MOL    H61  425   0.301   3.039   1.143  1.7521 -3.3239 -0.6420
    3MOL    H62  426   0.495   2.919   1.035  0.8792  1.3195 -0.8841
    3MOL    H63  427   0.345   2.841   1.035  1.4653 -1.4645 -0.9059
    3MOL    H64  428   0.421   2.922   0.887 -0.7691  0.1926 -0.1796
    3MOL    C65  429   0.022   3.013   0.825 -0.0498 -0.2274 -0.1113
    3MOL    C66  430   8.077   2.897   0.841 -0.0605 -0.7133  0.4915
    3MOL    C67  431   0.081   3.002   0.691  0.3137 -0.1406  0.0171
    3MOL    O68  432   0.197   2.983   0.674 -0.5137  0.4004 -0.3771
    3MOL    O69  433   8.135   3.002   0.589 -0.2759 -0.0752 -0.4984
    3MOL    H70  434   8.112   3.106   0.826 -0.6569 -0.6029  0.0830
    3MOL    H71  435   8.144   2.813   0.825  0.0543 -0.5308  0.0014
    3MOL    H72  436   8.044   2.902   0.945 -0.2221  2.7116  0.3402
    3MOL    H73  437   7.990   2.890   0.775  0.7377  1.0173 -0.7790
    3MOL    C74  438   0.002   3.001   0.447  0.0112 -1.0212  0.1991
    3MOL    C75  439   8.018   3.069   0.395  0.2381 -0.1249 -0.0099
    3MOL    C76  440   0.032   2.853   0.409 -0.7817  0.8268  0.3734
    3MOL    O77  441   0.057   2.754   0.481 -0.3437  0.2555 -0.5156
    3MOL    O78  442   0.028   2.837   0.277 -0.1401 -0.3940 -0.7362
    3MOL    H79  443   0.096   3.051   0.425  0.1198 -0.7856  1.1783
    3MOL    H80  444   7.930   3.016   0.432  1.3487  0.1368  3.1714
    3MOL    H81  445   8.013   3.165   0.446  0.4141  1.2753 -2.5943
    3MOL    H82  446   8.004   3.086   0.289 -0.7783  1.1062  0.3153
    3MOL    C83  447   0.017   2.709   0.218  0.1506  0.2155  0.3493
    3MOL    C84  448   0.018   2.730   0.067 -0.3223 -0.2024  0.4274
    3MOL    C85  449   8.042   2.625   0.265  0.2413  0.2953  0.4929
    3MOL    O86  450   8.050   2.503   0.288 -0.5552 -0.8853  0.4417
    3MOL    O87  451   7.931   2.704   0.285  0.2914  0.3634 -0.6493
    3MOL    H88  452   0.109   2.659   0.246 -0.8359 -0.6727  2.1164
    3MOL    H89  453   0.101   2.793   0.034 -2.3827  1.5081 -1.7233
    3MOL    H90  454   0.026   2.632   0.021 -0.2166  0.9891 -2.1980
    3MOL    H91  455   8.078   2.787   0.035 -0.9283 -1.6572 -0.5258
    3MOL    C92  456   7.819   2.657   0.351 -0.7363 -0.1639  0.1034
    3MOL    C93  457   7.703   2.741   0.283  0.0743  0.4587  0.1083
    3MOL    C94  458   7.836   2.673   0.503 -0.3805 -0.1043 -0.0240
    3MOL    O95  459   7.905   2.761   0.545  0.3524 -0.0394 -0.2624
    3MOL    O96  460   7.773   2.583   0.573 -0.6226 -0.3599 -0.2949
    3MOL    H97  461   7.808   2.554   0.317  0.4119  0.3401 -1.8810
    3MOL    H98  462   7.720   2.746   0.175  0.5572  0.6269  0.1901
    3MOL    H99  463   7.604   2.696   0.275  0.8857 -1.1797 -1.0704
    3MOL   H100  464   7.714   2.844   0.316  1.7769  0.0738  0.8077
    3MOL   C101  465   7.771   2.586   0.712 -0.7424  0.7987 -0.2179
    3MOL   C102  466   7.736   2.444   0.746  0.3803 -0.2885  0.1632
    3MOL   C103  467   7.672   2.682   0.772  0.0259  0.1065 -0.1575
    3MOL   O104  468   7.598   2.749   0.702  0.1279 -0.0341 -0.5130
    3MOL   O105  469   7.676   2.692   0.902 -0.2333  0.5198 -0.6292
    3MOL   H106  470   7.868   2.617   0.751 -0.4834 -0.2732 -0.0004
    3MOL   H107  471   7.739   2.430   0.854  0.3612 -0.5279  0.1345
    3MOL   H108  472   7.642   2.402   0.710  0.4137 -1.0156  0.9007
    3MOL   H109  473   7.810   2.379   0.699  2.0736  0.7925  1.3022
    3MOL   C110  474   7.586   2.778   0.979 -0.6195 -0.9339  1.1777
    3MOL   C111  475   7.675   2.827   1.104  0.3634  0.3818  0.1045
    3MOL   C112  476   7.461   2.708   1.014 -0.1639  0.3327  0.0900
    3MOL   O113  477   7.402   2.726   1.119  0.2412 -0.0471 -0.2086
    3MOL   O114  478   7.421   2.640   0.903  0.6573 -0.2771 -0.6751
    3MOL   H115  479   7.548   2.858   0.915 -1.2055 -1.9845  0.2086
    3MOL   H116  480   7.697   2.754   1.181 -0.1170 -0.7189 -0.7919
    3MOL   H117  481   7.765   2.872   1.062  0.8373 -0.6158  0.0505
    3MOL   H118  482   7.621   2.900   1.165  1.1136  0.6847  0.4048
    3MOL   C119  483   7.285   2.600   0.882  0.0877 -0.6950  0.0156
    3MOL   C120  484   7.282   2.457   0.829  0.3258  0.9010 -0.5306
    3MOL   C121  485   7.224   2.707   0.788 -0.1129  0.1891 -0.3506
    3MOL   O122  486   7.169   2.686   0.681 -0.2132  0.4637 -0.3603
    3MOL   O123  487   7.237   2.830   0.839 -0.0092  0.2873 -0.4752
    3MOL   H124  488   7.233   2.596   0.978  1.3241  1.1759  0.7929
    3MOL   H125  489   7.181   2.418   0.819  0.9744 -1.5368  1.6601
    3MOL   H126  490   7.347   2.458   0.741  2.2484  0.2864  0.8423
    3MOL   H127  491   7.337   2.400   0.905  1.5512  3.4301  0.5188
    3MOL   C128  492   7.216   2.944   0.764 -0.0870  0.4019  0.4832
    3MOL   C129  493   7.339   2.949   0.667 -0.4748 -0.8785  0.0820
    3MOL   C130  494   7.217   3.056   0.858 -0.0091 -0.1851  0.4995
    3MOL   O131  495   7.138   3.149   0.845  0.2503 -0.4945  0.2741
    3MOL   O132  496   7.283   3.036   0.974 -0.2056 -0.4223 -0.1146
    3MOL   H133  497   7.122   2.943   0.709  1.0702  2.6085 -1.6258
    3MOL   H134  498   7.335   2.870   0.592 -0.5413 -1.7586  0.9819
    3MOL   H135  499   7.347   3.044   0.614 -3.3954 -0.3006  0.5699
    3MOL   H136  500   7.425   2.921   0.729 -2.5818 -5.6486  1.1242
    3MOL   C137  501   7.230   3.101   1.092 -0.3687 -0.3673  0.1002
    3MOL   C138  502   7.334   3.096   1.210 -0.4255 -0.1448 -0.2192
    3MOL   C139  503   7.098   3.038   1.132  1.0100 -0.1562 -0.7399
    3MOL   O140  504   7.002   3.106   1.168  0.5373  0.1813 -0.7834
    3MOL   O141  505   7.112   2.898   1.137  0.0514 -0.1411  0.1967
    3MOL   H142  506   7.215   3.208   1.075 -0.9431 -0.3452  0.7347
    3MOL   H143  507   7.318   2.999   1.258 -1.2736  0.4207  0.6817
    3MOL   H144  508   7.432   3.099   1.164 -0.5427  1.3616 -0.4026
    3MOL   H145  509   7.327   3.169   1.292  2.1101  0.1383 -0.2150
    3MOL   C146  510   7.002   2.822   1.196 -0.2579  1.0801  0.4988
    3MOL   C147  511   7.077   2.735   1.297 -0.4152 -0.5331  0.0152
    3MOL   C148  512   6.939   2.728   1.083  0.0035 -0.8590  0.2052
    3MOL   O149  513   6.940   2.607   1.090  0.0022 -0.2359  0.0859
    3MOL   O150  514   6.890   2.802   0.979  0.4500 -0.3494  0.0989
    3MOL   H151  515   6.929   2.886   1.247 -0.8394 -1.1732  2.5673
    3MOL   H152  516   7.137   2.781   1.375  0.5225 -2.1707  0.2648
    3MOL   H153  517   7.005   2.672   1.350 -1.7850  0.6041 -0.4569
    3MOL   H154  518   7.153   2.679   1.242  0.4089 -2.4533  2.9749
    3MOL   C155  519   6.799   2.737   0.886  0.1913  0.2416 -0.2429
    3MOL   C156  520   6.817   2.799   0.746 -0.6853 -0.1508 -0.4624
    3MOL   C157  521   6.652   2.735   0.941  0.4599 -0.1051  0.2805
    3MOL   O158  522   6.566   2.808   0.888 -0.1041 -0.2375 -0.2027
    3MOL   O159  523   6.622   2.648   1.033  0.0743 -0.0591  0.1080
    3MOL   H160  524   6.828   2.633   0.873 -0.2609 -0.3740  3.1065
    3MOL   H161  525   6.816   2.907   0.734 -0.6114 -0.0795  0.1402
    3MOL   H162  526   6.912   2.762   0.706 -1.4157 -1.9381 -0.5551
    3MOL   H163  527   6.744   2.759   0.676  0.1213  1.5897 -2.3741
    3MOL   C164  528   6.497   2.645   1.109 -0.1493  0.4833 -0.2660
    3MOL   C165  529   6.478   2.760   1.199  0.3068 -1.0646  0.4133
    3MOL   C166  530   6.505   2.516   1.188  0.5094  0.6106 -0.0578
    3MOL   O167  531   6.436   2.420   1.158  0.3359  0.0118 -0.3357
    3MOL   O168  532   6.588   2.516   1.292 -0.1160  0.0577 -0.2230
    3MOL   H169  533   6.411   2.657   1.044  2.4203  2.9342 -3.4128
    3MOL   H170  534   6.566   2.775   1.261 -0.4643  0.1329  1.2589
    3MOL   H171  535   6.461   2.847   1.135  0.2190 -0.9429  0.6008
    3MOL   H172  536   6.393   2.743   1.266 -0.8573 -1.7999 -1.2185
    3MOL   C173  537   6.630   2.399   1.359  0.4555  0.2254  0.1003
    3MOL   C174  538   6.535   2.353   1.468 -0.7203 -0.0488  0.2984
    3MOL   C175  539   6.767   2.431   1.421  0.0877  0.7177 -0.4596
    3MOL   O176  540   6.797   2.426   1.541 -0.2144  0.2548  0.2804
    3MOL   O177  541   6.861   2.463   1.329  0.0839  0.1524  0.6023
    3MOL   H178  542   6.649   2.321   1.285  2.5266  2.5040 -1.8920
    3MOL   H179  543   6.580   2.267   1.518  0.0367 -0.9841 -1.9306
    3MOL   H180  544   6.523   2.426   1.548  0.5968 -0.2146  0.6482
    3MOL   H181  545   6.436   2.323   1.434 -0.9261  0.9928 -0.0502
    3MOL   H182  546   6.826   2.443   1.243  1.5293  0.0482  0.0150
    4MOL     C1  547   1.323   5.170   2.154 -0.3215 -0.1786  0.2576
    4MOL     C2  548   1.222   5.052   2.145  0.4778 -0.1986 -0.0200
    4MOL     C3  549   1.373   5.194   2.294  0.3199  0.0193 -0.0125
    4MOL     O4  550   1.481   5.147   2.335  0.1394 -0.2616 -0.1977
    4MOL     O5  551   1.289   5.268   2.365  0.1451 -0.1176  0.6055
    4MOL     H6  552   1.402   5.150   2.081 -1.1923  0.2817 -0.8350
    4MOL     H7  553   1.125   5.069   2.190  0.5272  0.3099 -0.1033
    4MOL     H8  554   1.203   5.010   2.046 -0.5733 -0.4528  0.2840
    4MOL     H9  555   1.270   4.964   2.188  1.9275 -1.2532 -3.5595
    4MOL    H10  556   1.264   5.259   2.133 -1.1681 -0.2426  2.2245
    4MOL    C11  557   1.303   5.276   2.511 -0.1790 -0.0066 -0.0143
    4MOL    C12  558   1.186   5.348   2.575 -0.0652  0.4831 -0.1966
    4MOL    C13  559   1.437   5.353   2.544  0.7457  0.5034  0.2561
    4MOL    O14  560   1.496   5.321   2.650 -0.1993 -0.0259 -0.0289
    4MOL    O15  561   1.476   5.447   2.454  0.5768 -0.0771 -0.0319
    4MOL    H16  562   1.314   5.177   2.555 -1.2172  0.7630  2.0415
    4MOL    H17  563   1.189   5.329   2.683  1.1637  0.6426 -0.1962
    4MOL    H18  564   1.192   5.455   2.555 -3.9222  0.8507  0.2903
    4MOL    H19  565   1.093   5.308   2.537  0.1752 -3.3553  2.9045
    4MOL    C20  566   1.592   5.526   2.482  0.1235  0.1730 -0.2298
    4MOL    C21  567   1.538   5.659   2.543  0.4576 -0.1326 -0.0116
    4MOL    C22  568   1.659   5.556   2.349 -0.0241 -0.0645 -0.6860
    4MOL    O23  569   1.734   5.650   2.332  0.3187  0.3102  0.4648
    4MOL    O24  570   1.634   5.463   2.263  0.4262 -0.5957 -0.3075
    4MOL    H25  571   1.662   5.466   2.540 -0.2905 -0.1825 -0.0913
    4MOL    H26  572   1.434   5.689   2.527  0.8624  2.1891  1.5445
    4MOL    H27  573   1.549   5.659   2.651  1.5125 -0.5714 -0.1175
    4MOL    H28  574   1.592   5.750   2.519  2.0207 -1.0909 -0.1783
    4MOL    C29  575   1.685   5.470   2.127 -0.0459  0.4319  0.0301
    4MOL    C30  576   1.609   5.379   2.028 -0.3373  0.0084  0.4757
    4MOL    C31  577   1.836   5.440   2.122  0.3827 -0.2093  0.2095
    4MOL    O32  578   1.902   5.406   2.219 -0.0256 -0.0894  0.2899
    4MOL    O33  579   1.882   5.465   2.001  0.0388 -0.4631  0.2046
    4MOL    H34  580   1.672   5.571   2.089 -2.7256 -0.5085 -1.6932
    4MOL    H35  581   1.632   5.395   1.923 -0.3582 -2.1147  0.1319
    4MOL    H36  582   1.610   5.273   2.054  0.4651 -0.3287 -0.8612
    4MOL    H37  583   1.503   5.402   2.039 -0.9268 -2.0458 -0.6896
    4MOL    C38  584   2.016   5.433   1.961  0.1319  0.3755  0.1338
    4MOL    C39  585   2.076   5.551   1.896  0.3269 -0.1918 -0.1028
    4MOL    C40  586   2.006   5.311   1.870  0.0085 -1.4393  0.6818
    4MOL    O41  587   2.065   5.294   1.764 -0.1155 -0.4195  0.3712
    4MOL    O42  588   1.930   5.216   1.927 -0.6588  0.4381  0.4783
    4MOL    H43  589   2.087   5.410   2.041  0.3818  0.1217 -0.1578
    4MOL    H44  590   2.176   5.521   1.864  0.2588  0.6201 -1.1015
    4MOL    H45  591   2.033   5.595   1.806  4.2415  4.0638 -0.1189
    4MOL    H46  592   2.076   5.636   1.965 -1.6677 -0.1432 -0.1433
    4MOL    C47  593   1.915   5.088   1.868  0.2968  0.4888 -0.5158
    4MOL    C48  594   1.820   5.094   1.743 -0.2953  0.9243 -0.1654
    4MOL    C49  595   1.863   4.992   1.973 -0.1784  0.0428 -0.0817
    4MOL    O50  596   1.752   4.942   1.976 -0.5993 -0.3447 -0.1144
    4MOL    O51  597   1.956   4.982   2.070 -0.3086  0.1958  0.3579
    4MOL    H52  598   2.004   5.040   1.827  0.1780 -1.5404  1.4996
    4MOL    H53  599   1.795   4.993   1.712  0.8561  0.4970  0.2839
    4MOL    H54  600   1.730   5.151   1.764 -1.4789 -0.4479 -1.3882
    4MOL    H55  601   1.876   5.126   1.655  0.6750 -1.6801 -0.5267
    4MOL    C56  602   1.915   4.931   2.198  0.1022  0.6529  0.0858
    4MOL    C57  603   1.902   5.054   2.286  0.5085  0.1621 -0.4313
    4MOL    C58  604   2.012   4.824   2.239 -0.6098 -0.3235 -0.6471
    4MOL    O59  605   2.089   4.835   2.338  0.2034 -0.2679  0.4090
    4MOL    O60  606   2.009   4.720   2.157  0.1788  0.1248 -0.9367
    4MOL    H61  607   1.822   4.874   2.199 -0.0738  0.9278  2.4178
    4MOL    H62  608   1.874   5.024   2.387 -1.4796  0.6351 -0.8264
    4MOL    H63  609   1.998   5.102   2.305  0.3882  0.7232 -1.2317
    4MOL    H64  610   1.825   5.126   2.259 -0.1584 -0.3444  0.0806
    4MOL    C65  611   2.088   4.605   2.179 -0.0869 -0.3460  0.5720
    4MOL    C66  612   2.072   4.511   2.055  0.2501  0.3097  0.3932
    4MOL    C67  613   2.046   4.525   2.306  0.0237  0.4594  0.2274
    4MOL    O68  614   2.138   4.500   2.386 -0.3300 -0.4127  0.0456
    4MOL    O69  615   1.914   4.497   2.310 -0.6179  0.2682 -0.0514
    4MOL    H70  616   2.192   4.635   2.193 -0.8806  2.6982  0.3676
    4MOL    H71  617   2.100   4.568   1.967 -1.2687  2.5765  1.3313
    4MOL    H72  618   2.139   4.425   2.062 -1.0623 -0.8049 -0.3077
    4MOL    H73  619   1.966   4.490   2.037  0.3234  0.2198  0.0637
    4MOL    C74  620   1.850   4.415   2.415  0.4165 -0.7891  0.9003
    4MOL    C75  621   1.902   4.272   2.421  0.6446 -0.5815  0.0707
    4MOL    C76  622   1.697   4.417   2.384 -0.2865 -0.3874 -0.5208
    4MOL    O77  623   1.626   4.497   2.445 -0.9025 -0.1998  0.1836
    4MOL    O78  624   1.665   4.341   2.280  0.5186 -1.0176  0.3278
    4MOL    H79  625   1.859   4.456   2.515 -0.5674  1.3635  0.1425
    4MOL    H80  626   1.854   4.210   2.497  0.4565  2.5594  2.6223
    4MOL    H81  627   1.904   4.233   2.320 -2.0304 -1.0319  0.1684
    4MOL    H82  628   2.003   4.271   2.462 -0.3133  0.5048  2.5539
    4MOL    C83  629   1.528   4.312   2.248  0.3261  0.2587  0.5012
    4MOL    C84  630   1.510   4.156   2.237  0.1447  0.5275 -0.7517
    4MOL    C85  631   1.459   4.384   2.129 -0.4804  0.0593  0.5127
    4MOL    O86  632   1.383   4.329   2.047  0.5036  0.5809 -0.0549
    4MOL    O87  633   1.495   4.510   2.117  0.1340  0.3879 -0.6592
    4MOL    H88  634   1.470   4.346   2.334 -2.0799 -1.5739 -0.3504
    4MOL    H89  635   1.403   4.134   2.242  0.6200 -2.0129 -1.0108
    4MOL    H90  636   1.542   4.121   2.138  1.6875  1.6760 -0.6804
    4MOL    H91  637   1.550   4.108   2.326 -0.5783  0.0378 -0.6852
    4MOL    C92  638   1.445   4.601   2.017  0.1913  0.9516 -0.0806
    4MOL    C93  639   1.528   4.728   2.025  0.6598  0.5646  0.5728
    4MOL    C94  640   1.298   4.628   2.033  0.3781  0.2255  0.5254
    4MOL    O95  641   1.234   4.579   2.123  0.4972 -0.1854 -0.1715
    4MOL    O96  642   1.250   4.690   1.931  0.1585  0.2273 -0.1086
    4MOL    H97  643   1.459   4.561   1.917  0.0133  0.5612  0.0498
    4MOL    H98  644   1.546   4.781   1.931  2.8151 -1.0211  0.0398
    4MOL    H99  645   1.478   4.799   2.090  0.0217 -0.8064  1.5876
    4MOL   H100  646   1.630   4.707   2.056  0.9286  0.9118 -0.0496
    4MOL   C101  647   1.110   4.714   1.928 -0.5967  0.6621  0.2715
    4MOL   C102  648   1.029   4.590   1.897  0.0088 -0.0396 -0.3121
    4MOL   C103  649   1.100   4.821   1.825 -0.3177  0.2682 -0.4503
    4MOL   O104  650   1.030   4.924   1.843 -0.3178  0.7518  0.3726
    4MOL   O105  651   1.162   4.784   1.709  0.3068  0.0811  0.3988
    4MOL   H106  652   1.069   4.751   2.022 -1.4777 -0.3397  0.2872
    4MOL   H107  653   0.924   4.616   1.905  0.0614  0.7652 -1.8936
    4MOL   H108  654   1.065   4.567   1.796  3.0845 -1.8991  1.1325
    4MOL   H109  655   1.051   4.505   1.962  0.0978 -2.1701 -2.9825
    4MOL   C110  656   1.153   4.854   1.582 -0.1052 -0.0304 -0.4929
    4MOL   C111  657   1.251   4.779   1.489 -0.0229 -0.6096  0.5309
    4MOL   C112  658   1.186   5.005   1.587  0.0358 -0.4436  1.3133
    4MOL   O113  659   1.125   5.077   1.508 -0.0128  0.0283  0.7595
    4MOL   O114  660   1.280   5.045   1.664 -0.1016 -0.0601 -0.3443
    4MOL   H115  661   1.051   4.846   1.544 -0.2781 -0.3077  0.0333
    4MOL   H116  662   1.202   4.770   1.392 -2.8446  0.8231  1.7610
    4MOL   H117  663   1.341   4.839   1.474  0.5714 -1.5640  0.1963
    4MOL   H118  664   1.290   4.683   1.524  1.4356 -0.5277 -0.7881
    4MOL   C119  665   1.305   5.183   1.678 -0.0117 -0.2713 -0.6516
    4MOL   C120  666   1.436   5.181   1.755 -0.1838 -0.3449  0.5932
    4MOL   C121  667   1.198   5.269   1.751 -0.0098  0.6512  0.1888
    4MOL   O122  668   1.189   5.268   1.874  0.2852  0.5699 -0.6822
    4MOL   O123  669   1.115   5.328   1.662  0.0171 -0.0085 -0.1382
    4MOL   H124  670   1.334   5.243   1.592  0.0120  3.0136  1.5470
    4MOL   H125  671   1.508   5.111   1.713 -1.4977 -0.7372 -1.0368
    4MOL   H126  672   1.489   5.277   1.753 -1.3689  0.3150  0.2118
    4MOL   H127  673   1.423   5.167   1.863 -0.9774 -0.1791  0.5291
    4MOL   C128  674   1.017   5.425   1.705 -0.3639 -0.3601 -0.3881
    4MOL   C129  675   0.911   5.467   1.599  0.9269 -0.2870 -0.7476
    4MOL   C130  676   1.088   5.555   1.759 -0.1289 -0.1721 -0.0232
    4MOL   O131  677   1.098   5.571   1.878  0.1658 -0.0720 -0.0773
    4MOL   O132  678   1.156   5.625   1.669  0.3907  0.0340  0.1483
    4MOL   H133  679   0.957   5.374   1.780  0.8880 -2.2353 -0.6400
    4MOL   H134  680   0.845   5.391   1.558  0.2448 -1.9484  3.2196
    4MOL   H135  681   0.849   5.552   1.630  0.0719 -1.5245  1.0797
    4MOL   H136  682   0.970   5.519   1.524  0.9733 -0.0435 -0.5440
    4MOL   C137  683   1.257   5.721   1.712 -0.1115 -0.6128 -0.6672
    4MOL   C138  684   1.264   5.833   1.601 -0.1466  0.2769  0.1647
    4MOL   C139  685   1.396   5.663   1.734  0.3890  0.5137  0.9971
    4MOL   O140  686   1.426   5.544   1.722  0.4533 -0.3137 -0.3281
    4MOL   O141  687   1.489   5.759   1.759 -0.3611 -0.5531 -0.4534
    4MOL   H142  688   1.232   5.765   1.809  0.5678 -0.3934 -0.5877
    4MOL   H143  689   1.191   5.914   1.609 -0.7679 -0.3764  1.2526
    4MOL   H144  690   1.358   5.886   1.587  0.1596 -0.2772  0.1383
    4MOL   H145  691   1.268   5.784   1.504  1.7907  0.6219  0.0553
    4MOL   C146  692   1.629   5.726   1.765  0.3062  0.6247  0.1865
    4MOL   C147  693   1.720   5.844   1.804 -0.1466  0.3903 -0.2970
    4MOL   C148  694   1.680   5.678   1.626 -0.0154 -0.1125  0.3364
    4MOL   O149  695   1.643   5.746   1.525 -0.1285 -0.1587 -0.1477
    4MOL   O150  696   1.754   5.562   1.620 -0.0108  0.3631 -0.1101
    4MOL   H151  697   1.644   5.649   1.841  0.0072 -0.0536 -0.4353
    4MOL   H152  698   1.828   5.828   1.808 -0.1432  0.2887 -0.8285
    4MOL   H153  699   1.692   5.926   1.738  1.0639  0.4090 -0.7942
    4MOL   H154  700   1.685   5.864   1.905 -2.0552  0.3220 -0.9386
    4MOL   C155  701   1.773   5.495   1.492 -0.3028  0.4474 -1.0038
    4MOL   C156  702   1.832   5.360   1.509  0.9311  0.9905  0.4474
    4MOL   C157  703   1.864   5.586   1.400  0.4449 -0.6181  0.2590
    4MOL   O158  704   1.817   5.632   1.299 -0.6187 -0.6348  0.2268
    4MOL   O159  705   1.986   5.613   1.456 -0.4653 -0.6475  0.3835
    4MOL   H160  706   1.681   5.469   1.441 -0.1443 -1.1886 -0.4824
    4MOL   H161  707   1.941   5.368   1.511  1.3709 -3.4427  0.0086
    4MOL   H162  708   1.788   5.306   1.592 -1.1184 -0.1579 -1.3188
    4MOL   H163  709   1.803   5.309   1.416 -0.8164  2.3666  0.2186
    4MOL   C164  710   2.071   5.723   1.406 -0.5314 -0.4765  0.0906
    4MOL   C165  711   2.213   5.695   1.463  0.5554  0.4057  0.8359
    4MOL   C166  712   2.002   5.858   1.444  0.4073 -0.1569  0.0569
    4MOL   O167  713   1.943   5.876   1.553 -1.0248 -0.2329 -0.4958
    4MOL   O168  714   2.009   5.954   1.340  0.2997  0.3136 -0.1426
    4MOL   H169  715   2.072   5.710   1.298  1.2028  2.2438 -0.2369
    4MOL   H170  716   2.218   5.686   1.571  0.8525  1.3470  0.9065
    4MOL   H171  717   2.268   5.611   1.422  0.0096  0.3110  0.2869
    4MOL   H172  718   2.275   5.779   1.432 -2.5152  1.9064 -1.5140
    4MOL   C173  719   1.963   6.091   1.358 -0.7951  0.8161 -0.3380
    4MOL   C174  720   1.847   6.139   1.272  0.0666 -0.5905 -0.3812
    4MOL   C175  721   2.088   6.178   1.346  0.1119  0.5492  0.4382
    4MOL   O176  722   2.101   6.279   1.273  0.1578 -0.1860  0.1825
    4MOL   O177  723   2.192   6.127   1.417  0.1126 -0.3736  0.0306
    4MOL   H178  724   1.924   6.107   1.458 -0.8866 -1.1357 -0.0482
    4MOL   H179  725   1.760   6.073   1.268  1.7676 -2.8325 -1.1742
    4MOL   H180  726   1.820   6.237   1.311  0.0924  0.1685 -2.2312
    4MOL   H181  727   1.893   6.153   1.174 -2.1801  1.4736 -1.1819
    4MOL   H182  728   2.167   6.052   1.469 -0.9744 -0.5547 -0.7476
    5MOL     C1  729   6.690   0.153   3.111  0.1927  0.4181  0.5611
    5MOL     C2  730   6.747   0.028   3.183 -0.5884  0.5724 -0.1686
    5MOL     C3  731   6.557   0.198   3.180 -0.6327 -0.3042  0.1395
    5MOL     O4  732   6.551   0.308   3.236  0.2222  0.2535 -0.2489
    5MOL     O5  733   6.460   0.115   3.161 -0.1800  0.2001 -0.2123
    5MOL     H6  734   6.761   0.236   3.123  1.2498 -0.3731 -0.1699
    5MOL     H7  735   6.777   0.036   3.287  1.7042 -1.5392 -0.6052
    5MOL     H8  736   6.674   8.095   3.176 -0.4128  0.2161  2.0263
    5MOL     H9  737   6.838   8.144   3.132  0.4931  0.7613  1.6156
    5MOL    H10  738   6.671   0.130   3.006 -2.5940  1.9300  0.6752
    5MOL    C11  739   6.344   0.117   3.245  0.3214  0.3002 -0.0368
    5MOL    C12  740   6.269   8.142   3.212  0.6025  0.5621 -0.7670
    5MOL    C13  741   6.258   0.240   3.228 -1.0168 -0.5378 -0.0881
    5MOL    O14  742   6.257   0.320   3.324 -0.0900  0.0314 -0.3574
    5MOL    O15  743   6.195   0.261   3.104  0.1194 -0.1477  0.0995
    5MOL    H16  744   6.383   0.096   3.345  0.3905  0.0806 -0.1111
    5MOL    H17  745   6.256   8.126   3.105  0.9524 -0.8892 -0.6035
    5MOL    H18  746   6.320   8.052   3.247  0.5996  0.4998 -0.9191
    5MOL    H19  747   6.169   8.140   3.255  0.2361 -2.0260 -1.6071
    5MOL    C20  748   6.082   0.340   3.079  0.8010  0.0564 -0.6978
    5MOL    C21  749   6.126   0.476   3.055 -0.0835  0.0114  0.2026
    5MOL    C22  750   5.979   0.337   3.196 -0.0762  0.2393 -0.6552
    5MOL    O23  751   5.952   0.444   3.251 -0.2630 -0.5730  0.0252
    5MOL    O24  752   5.919   0.222   3.226  0.8345 -0.0572  0.5905
    5MOL    H25  753   6.032   0.305   2.989  0.9584 -0.1420 -0.7081
    5MOL    H26  754   6.162   0.519   3.149 -1.5593  2.1255 -0.1646
    5MOL    H27  755   6.208   0.476   2.983 -1.4234 -0.7898 -1.3476
    5MOL    H28  756   6.037   0.530   3.025  0.9014  1.3213 -0.4435
    5MOL    C29  757   5.828   0.219   3.330  0.6670  0.1138  0.4797
    5MOL    C30  758   5.862   0.079   3.393 -0.0073  0.6107  0.3993
    5MOL    C31  759   5.694   0.215   3.267  0.6232  0.2405  0.2328
    5MOL    O32  760   5.608   0.294   3.294  0.2682 -0.1380 -0.0042
    5MOL    O33  761   5.686   0.113   3.173 -0.3338  0.6947 -0.6296
    5MOL    H34  762   5.833   0.291   3.412 -0.7216  1.2041 -0.3520
    5MOL    H35  763   5.969   0.065   3.404  0.0771  0.5587 -0.4635
    5MOL    H36  764   5.825   0.065   3.495 -1.4215  0.0440 -0.1787
    5MOL    H37  765   5.820   0.004   3.325 -1.2997  1.7974 -0.1227
    5MOL    C38  766   5.572   0.031   3.140  0.1913 -0.3340 -0.1919
    5MOL    C39  767   5.468   0.105   3.048 -0.1960  0.1212  0.1685
    5MOL    C40  768   5.503   8.126   3.273  0.3427 -0.4789 -0.3005
    5MOL    O41  769   5.417   0.043   3.320  0.6258  0.1580  0.2300
    5MOL    O42  770   5.558   8.017   3.317 -0.4765  0.0141  0.0008
    5MOL    H43  771   5.617   8.095   3.089 -1.1107 -1.0426 -0.2090
    5MOL    H44  772   5.502   0.105   2.944  0.7787  0.5867  0.4815
    5MOL    H45  773   5.370   0.058   3.057 -0.1291  0.3536  2.2001
    5MOL    H46  774   5.464   0.206   3.088 -0.1768  0.4169 -0.5542
    5MOL    C47  775   5.508   7.949   3.435  0.1204 -0.6989 -0.5905
    5MOL    C48  776   5.618   7.850   3.469 -0.1607 -0.5758  0.7791
    5MOL    C49  777   5.369   7.883   3.417  0.0186 -0.4121 -0.2498
    5MOL    O50  778   5.286   7.894   3.506  0.1457 -0.2328 -0.1613
    5MOL    O51  779   5.343   7.833   3.293  0.1370  0.1571 -0.2297
    5MOL    H52  780   5.513   8.022   3.516 -0.1499 -0.1338 -1.0824
    5MOL    H53  781   5.668   7.818   3.377 -2.2191 -0.8880 -0.2593
    5MOL    H54  782   5.709   7.882   3.520 -0.4912 -0.2169  1.1388
    5MOL    H55  783   5.583   7.767   3.530 -2.4031  0.1496  0.5079
    5MOL    C56  784   5.213   7.795   3.242 -0.9811  0.7087  0.1594
    5MOL    C57  785   5.229   7.712   3.107  0.6960 -0.3375  0.8258
    5MOL    C58  786   5.125   7.925   3.230  0.0854 -0.7668  0.2595
    5MOL    O59  787   5.128   7.997   3.133 -0.1218 -0.3430 -0.2056
    5MOL    O60  788   5.050   7.944   3.351  0.7984 -0.0896  0.1068
    5MOL    H61  789   5.152   7.732   3.308  0.6992 -1.6608 -0.5127
    5MOL    H62  790   5.324   7.739   3.060  0.3218 -1.2829 -0.4901
    5MOL    H63  791   5.232   7.606   3.131  0.0365 -0.7030 -0.6670
    5MOL    H64  792   5.146   7.734   3.039  1.4861  0.4793  0.1048
    5MOL    C65  793   4.948   8.047   3.376  0.2551  0.7137 -0.0487
    5MOL    C66  794   4.860   8.009   3.497 -0.1657 -0.4850 -0.3721
    5MOL    C67  795   4.852   8.060   3.259 -0.3025  0.0147  0.3239
    5MOL    O68  796   4.820   0.020   3.213 -0.1398  0.2133  0.3508
    5MOL    O69  797   4.802   7.946   3.209 -0.6506 -0.3077  0.5683
    5MOL    H70  798   4.994   8.142   3.404  2.0174 -0.1462  0.0354
    5MOL    H71  799   4.784   8.086   3.515  0.7672  0.3818 -0.0913
    5MOL    H72  800   4.808   7.915   3.479 -0.7208 -0.4931  1.1366
    5MOL    H73  801   4.919   7.996   3.588 -0.7367  1.2886  0.2863
    5MOL    C74  802   4.709   7.946   3.096 -0.1640  0.3793 -0.4698
    5MOL    C75  803   4.578   7.877   3.142 -0.4905 -0.2060  0.0278
    5MOL    C76  804   4.771   7.873   2.978 -0.3003  0.0043 -0.2420
    5MOL    O77  805   4.882   7.820   2.991 -0.0402 -0.1321  0.3491
    5MOL    O78  806   4.701   7.871   2.863 -0.4253 -0.0435 -0.1931
    5MOL    H79  807   4.676   8.045   3.065 -1.2082  0.1214 -0.2046
    5MOL    H80  808   4.590   7.770   3.161 -0.3038 -0.4533 -1.4544
    5MOL    H81  809   4.552   7.922   3.238  0.8921 -0.0432  0.3481
    5MOL    H82  810   4.492   7.886   3.077 -0.2719 -1.5420 -0.4651
    5MOL    C83  811   4.742   7.786   2.752  0.3988 -0.2785 -0.2449
    5MOL    C84  812   4.680   7.829   2.614 -0.5761  0.4702  0.3572
    5MOL    C85  813   4.726   7.631   2.788  0.0241 -0.2068 -0.5781
    5MOL    O86  814   4.648   7.590   2.872  0.0041  0.0509 -0.3315
    5MOL    O87  815   4.796   7.559   2.708 -0.0039  0.2640 -0.4446
    5MOL    H88  816   4.850   7.799   2.752 -0.1079  5.4135  3.0297
    5MOL    H89  817   4.572   7.815   2.622 -0.4292  0.6478  3.4742
    5MOL    H90  818   4.709   7.921   2.565 -2.2633  0.2705 -1.0374
    5MOL    H91  819   4.718   7.758   2.541  1.7274  1.2187  0.7760
    5MOL    C92  820   4.770   7.417   2.694  0.3155 -0.3928  0.4875
    5MOL    C93  821   4.903   7.339   2.703 -0.2157 -0.0270  0.0065
    5MOL    C94  822   4.679   7.386   2.572 -0.2528 -0.0438  0.1386
    5MOL    O95  823   4.602   7.471   2.522 -0.0645  0.2459 -0.1145
    5MOL    O96  824   4.684   7.257   2.534  0.0922 -0.2356  0.8744
    5MOL    H97  825   4.712   7.375   2.776 -0.9875  1.1893  0.3790
    5MOL    H98  826   4.893   7.237   2.740  1.5725 -0.0343  0.4936
    5MOL    H99  827   4.968   7.337   2.616 -1.7543  2.2844 -1.2484
    5MOL   H100  828   4.964   7.384   2.781 -0.7196 -0.0452  0.4125
    5MOL   C101  829   4.642   7.211   2.400 -0.0331 -0.3684  1.2185
    5MOL   C102  830   4.640   7.057   2.392 -0.8645 -0.0542 -0.1769
    5MOL   C103  831   4.734   7.264   2.283  0.9445  0.0062 -0.3569
    5MOL   O104  832   4.680   7.310   2.182 -0.0531  0.0164  0.0047
    5MOL   O105  833   4.862   7.252   2.310  0.0391 -0.0227  0.3205
    5MOL   H106  834   4.537   7.237   2.386 -0.1703 -1.1329  0.8106
    5MOL   H107  835   4.742   7.018   2.392 -2.6573 -4.9861 -0.3899
    5MOL   H108  836   4.573   7.021   2.470  0.5269 -2.1251  0.0891
    5MOL   H109  837   4.596   7.031   2.296 -0.3821  1.7356 -0.8986
    5MOL   C110  838   4.957   7.281   2.211  0.1432 -0.0546  0.1424
    5MOL   C111  839   4.989   7.140   2.152  0.1875 -0.3292  0.6031
    5MOL   C112  840   5.074   7.353   2.277 -0.0208  0.4010  0.1638
    5MOL   O113  841   5.092   7.470   2.253  0.1834 -0.1871 -0.2115
    5MOL   O114  842   5.144   7.273   2.363 -0.2839 -0.0506  0.1520
    5MOL   H115  843   4.925   7.336   2.123 -1.4385 -0.3411  0.5191
    5MOL   H116  844   5.041   7.080   2.226  1.3656  0.9025  0.8001
    5MOL   H117  845   4.898   7.087   2.122 -0.9227  1.4109  0.7807
    5MOL   H118  846   5.049   7.146   2.061 -1.4909 -0.2592 -0.5318
    5MOL   C119  847   5.273   7.310   2.406 -0.3000 -0.4802 -0.7687
    5MOL   C120  848   5.343   7.182   2.444 -0.2138 -0.0103  0.5877
    5MOL   C121  849   5.263   7.417   2.514  0.6444 -0.4157  0.0214
    5MOL   O122  850   5.152   7.463   2.551 -0.3336  0.0442 -0.6573
    5MOL   O123  851   5.384   7.464   2.561  0.2939 -0.5464 -0.4876
    5MOL   H124  852   5.320   7.345   2.313 -0.4242 -1.5361 -1.2402
    5MOL   H125  853   5.392   7.127   2.363 -0.3390 -0.0330  0.5265
    5MOL   H126  854   5.430   7.203   2.507 -0.3177 -0.2496  0.8146
    5MOL   H127  855   5.280   7.112   2.499  0.4448 -0.9929  0.1212
    5MOL   C128  856   5.390   7.564   2.664 -1.1274  0.0698 -0.1425
    5MOL   C129  857   5.538   7.621   2.678  0.4956 -0.1276 -0.2753
    5MOL   C130  858   5.350   7.501   2.800  0.5486 -0.1704  0.2587
    5MOL   O131  859   5.258   7.548   2.870 -0.0952  0.0304  0.2629
    5MOL   O132  860   5.414   7.380   2.829 -0.8726 -0.8947  0.4946
    5MOL   H133  861   5.317   7.637   2.629  0.0694  1.8779  1.1023
    5MOL   H134  862   5.600   7.547   2.728  0.3348  0.6270  1.0694
    5MOL   H135  863   5.577   7.632   2.577 -0.4933 -0.1551 -0.6671
    5MOL   H136  864   5.542   7.716   2.731  0.7848 -0.3659  0.1348
    5MOL   C137  865   5.385   7.309   2.946 -0.1161 -0.0555 -0.5498
    5MOL   C138  866   5.243   7.236   2.943 -0.0161  0.5150  0.3487
    5MOL   C139  867   5.404   7.395   3.082  0.9705  0.1432  0.8649
    5MOL   O140  868   5.323   7.383   3.176 -0.0682  0.0020  0.0439
    5MOL   O141  869   5.520   7.468   3.079 -0.4622 -0.3918 -0.7955
    5MOL   H142  870   5.462   7.232   2.942 -1.4014 -1.3099 -1.6478
    5MOL   H143  871   5.173   7.318   2.924 -0.0806  0.2141 -0.7343
    5MOL   H144  872   5.238   7.161   2.863  0.9324 -1.1215  1.8001
    5MOL   H145  873   5.221   7.179   3.033 -0.7413  1.3487  0.7040
    5MOL   C146  874   5.560   7.571   3.175  0.1674  0.0638  0.5889
    5MOL   C147  875   5.632   7.681   3.093  0.2073  0.6524  0.4144
    5MOL   C148  876   5.649   7.501   3.283 -0.8215 -0.0461 -0.1824
    5MOL   O149  877   5.764   7.538   3.304  0.3205  0.0619 -0.3217
    5MOL   O150  878   5.586   7.394   3.346  0.2503  0.1685  0.3127
    5MOL   H151  879   5.468   7.609   3.220 -1.2977 -0.5641 -1.8215
    5MOL   H152  880   5.574   7.765   3.055 -1.9774 -1.7887 -1.7467
    5MOL   H153  881   5.708   7.733   3.153  0.0399  2.3209 -0.7775
    5MOL   H154  882   5.676   7.641   3.002  1.6950 -2.3098  2.3505
    5MOL   C155  883   5.652   7.298   3.424 -0.3140 -0.3021  0.1396
    5MOL   C156  884   5.706   7.352   3.558 -0.6509 -0.2603 -0.0220
    5MOL   C157  885   5.762   7.237   3.335 -0.5379  0.2011 -0.3510
    5MOL   O158  886   5.881   7.242   3.369  0.0465 -0.0811 -0.8189
    5MOL   O159  887   5.716   7.179   3.225 -0.9430 -0.1472  0.0983
    5MOL   H160  888   5.584   7.214   3.439 -0.8810  0.0204 -0.6217
    5MOL   H161  889   5.789   7.417   3.534  0.2240 -0.5438  2.1059
    5MOL   H162  890   5.639   7.387   3.637 -0.9690  0.0311 -0.4251
    5MOL   H163  891   5.761   7.271   3.606  1.3866 -0.3043 -2.3915
    5MOL   C164  892   5.815   7.124   3.131  0.4119  0.0153  0.0297
    5MOL   C165  893   5.861   7.228   3.022  0.6871 -0.6831  0.5414
    5MOL   C166  894   5.752   6.999   3.064  0.6548  0.5015  0.2743
    5MOL   O167  895   5.640   7.004   3.013 -0.1455 -0.5434  0.0618
    5MOL   O168  896   5.839   6.892   3.074 -0.0202  0.3902  0.1888
    5MOL   H169  897   5.901   7.083   3.183 -0.3874 -0.9767  0.6089
    5MOL   H170  898   5.775   7.273   2.971  1.4298  0.0017 -0.1158
    5MOL   H171  899   5.920   7.312   3.058  2.7174 -1.0984 -1.7665
    5MOL   H172  900   5.931   7.175   2.958  1.4346 -0.4191  1.1454
    5MOL   C173  901   5.804   6.764   3.024  0.3154  0.4032  0.7119
    5MOL   C174  902   5.720   6.712   3.143 -0.0752  0.7425  0.8025
    5MOL   C175  903   5.931   6.680   3.003 -0.2240 -0.3303 -0.0060
    5MOL   O176  904   5.965   6.638   2.891 -0.0537  0.2148 -0.0529
    5MOL   O177  905   6.007   6.650   3.115 -0.2376 -0.4675  0.3157
    5MOL   H178  906   5.756   6.769   2.926  0.5776  0.8643  0.6036
    5MOL   H179  907   5.635   6.776   3.166  1.6036  3.1311  0.5133
    5MOL   H180  908   5.677   6.618   3.110 -0.4261  1.3058 -0.3621
    5MOL   H181  909   5.784   6.686   3.227  2.3502 -1.4127 -1.6312
    5MOL   H182  910   6.093   6.619   3.091  0.2519  0.5131  0.7771
    6MOL     C1  911   2.732   2.017   7.084 -0.5334  0.3139 -0.3419
    6MOL     C2  912   2.680   2.025   6.941 -0.4940  0.4137 -0.3598
    6MOL     C3  913   2.785   2.151   7.139 -0.9872 -0.3330  0.1694
    6MOL     O4  914   2.889   2.209   7.099  0.0697 -0.7295 -0.3022
    6MOL     O5  915   2.703   2.203   7.222  0.4364 -0.0355 -1.1358
    6MOL     H6  916   2.657   1.979   7.154  0.7543 -2.1547 -0.2180
    6MOL     H7  917   2.588   2.082   6.932 -1.4392 -0.7797  1.5002
    6MOL     H8  918   2.755   2.055   6.867 -1.3507 -1.3448 -1.9946
    6MOL     H9  919   2.655   1.926   6.904  2.8077 -0.3573 -0.7080
    6MOL    H10  920   2.810   1.940   7.079 -0.7239  0.1474 -0.8798
    6MOL    C11  921   2.707   2.347   7.255 -0.1636  0.5569  0.5788
    6MOL    C12  922   2.637   2.386   7.385 -0.2266  0.1255  0.3336
    6MOL    C13  923   2.651   2.426   7.134  0.0257  0.5362 -0.2009
    6MOL    O14  924   2.582   2.382   7.048  0.4530  0.0687  0.5329
    6MOL    O15  925   2.676   2.556   7.147 -0.1016  0.4465 -0.9166
    6MOL    H16  926   2.811   2.378   7.264 -0.4398  1.3348  1.1595
    6MOL    H17  927   2.666   2.321   7.467 -2.8049  0.0883  1.2569
    6MOL    H18  928   2.665   2.488   7.412 -0.8847 -0.1410  2.0771
    6MOL    H19  929   2.530   2.398   7.374 -0.1325 -0.3447 -1.2888
    6MOL    C20  930   2.629   2.650   7.060  0.3486 -1.0977 -0.3274
    6MOL    C21  931   2.700   2.783   7.054 -0.2896  0.3419 -0.2904
    6MOL    C22  932   2.481   2.680   7.084  0.2681 -0.3756  0.0039
    6MOL    O23  933   2.418   2.758   7.015  0.3124  0.0072 -0.2217
    6MOL    O24  934   2.424   2.615   7.188  0.6329 -0.2120 -0.5689
    6MOL    H25  935   2.618   2.626   6.955 -0.1212  2.5770 -1.2131
    6MOL    H26  936   2.663   2.849   6.975  1.2207 -0.5010 -1.7345
    6MOL    H27  937   2.688   2.837   7.148 -0.5331 -0.7864  0.3457
    6MOL    H28  938   2.806   2.758   7.047 -0.0452  0.7578  1.5717
    6MOL    C29  939   2.288   2.574   7.204 -0.4089 -0.2413 -0.0381
    6MOL    C30  940   2.253   2.486   7.082 -0.4084  0.4812 -0.7001
    6MOL    C31  941   2.198   2.698   7.212  0.1283  0.0239 -0.4384
    6MOL    O32  942   2.118   2.728   7.125  0.2139 -0.0871  0.0579
    6MOL    O33  943   2.208   2.771   7.324  0.4337  0.0457  0.5643
    6MOL    H34  944   2.295   2.524   7.301 -1.0839  1.1048  0.7164
    6MOL    H35  945   2.258   2.539   6.987  0.4588 -0.4587 -1.1777
    6MOL    H36  946   2.321   2.404   7.062  0.5849  1.4492 -1.3010
    6MOL    H37  947   2.155   2.441   7.100  0.7595 -1.5995  0.7062
    6MOL    C38  948   2.104   2.870   7.350 -0.0490 -0.7014 -0.1602
    6MOL    C39  949   2.164   2.972   7.457  0.1488 -0.4749  0.7463
    6MOL    C40  950   1.980   2.806   7.417  0.3862  0.5167 -0.1050
    6MOL    O41  951   1.962   2.688   7.413 -0.1937  0.2288 -0.5290
    6MOL    O42  952   1.899   2.884   7.489 -0.4569  0.0424  0.4846
    6MOL    H43  953   2.087   2.928   7.259 -1.3028 -0.8985 -0.0571
    6MOL    H44  954   2.157   2.930   7.558  0.0231 -2.0051  0.1115
    6MOL    H45  955   2.266   3.005   7.438 -0.2613 -0.1088 -0.9123
    6MOL    H46  956   2.108   3.066   7.456  0.4014 -0.3245 -2.0080
    6MOL    C47  957   1.799   2.841   7.571  0.5223  0.3173 -0.1739
    6MOL    C48  958   1.725   2.972   7.569  0.2379 -0.0393 -0.3850
    6MOL    C49  959   1.851   2.786   7.707  0.4145 -0.2315  0.2422
    6MOL    O50  960   1.972   2.790   7.736 -0.4663  0.1149 -0.2578
    6MOL    O51  961   1.751   2.742   7.785  0.0932  0.1055  0.0899
    6MOL    H52  962   1.743   2.757   7.529  1.6004 -0.6313  0.2644
    6MOL    H53  963   1.635   2.952   7.628 -0.3535  0.0871 -1.2346
    6MOL    H54  964   1.789   3.050   7.610  0.3721 -0.8010  0.8795
    6MOL    H55  965   1.676   2.996   7.475 -1.1945  1.7485  0.7838
    6MOL    C56  966   1.791   2.688   7.908 -0.2822 -0.1509 -0.3062
    6MOL    C57  967   1.687   2.595   7.968  1.4615 -0.1161  0.4324
    6MOL    C58  968   1.819   2.810   8.003  0.1847  0.5257  0.0562
    6MOL    O59  969   1.722   2.879   8.041 -0.2160 -0.1595 -0.4199
    6MOL    O60  970   1.948   2.820   8.055 -0.0722  0.1873 -0.2591
    6MOL    H61  971   1.887   2.637   7.907  0.6459  1.5686 -1.3789
    6MOL    H62  972   1.597   2.655   7.979  1.8093  0.3330  0.8768
    6MOL    H63  973   1.675   2.504   7.909  1.3467 -0.3592  0.8218
    6MOL    H64  974   1.710   2.559   8.069 -0.6681 -0.8286  0.6894
    6MOL    C65  975   2.004   2.945   8.101 -0.0430 -0.2685 -0.4370
    6MOL    C66  976   2.064   3.018   7.975 -0.1979 -0.6931  0.1019
    6MOL    C67  977   2.100   2.927   0.072 -0.4217  0.0778  0.3647
    6MOL    O68  978   2.066   2.969   0.177  0.1064 -0.3741 -0.1589
    6MOL    O69  979   2.223   2.878   0.042 -0.7215  0.2934 -0.5927
    6MOL    H70  980   1.922   3.009   8.134 -0.0164  0.0365 -0.9598
    6MOL    H71  981   2.102   3.114   8.008  1.0028 -0.7432 -1.0929
    6MOL    H72  982   2.144   2.953   7.940  1.2091 -0.1295  2.2174
    6MOL    H73  983   1.993   3.040   7.895 -0.3568  0.3308  0.5219
    6MOL    C74  984   2.320   2.868   0.151  0.1681  0.5261  0.1151
    6MOL    C75  985   2.461   2.869   0.091  0.1086 -0.5701  0.1818
    6MOL    C76  986   2.296   2.737   0.236  0.3573 -0.3312 -0.1049
    6MOL    O77  987   2.234   2.646   0.188 -0.3399  0.2601 -0.1217
    6MOL    O78  988   2.337   2.750   0.363  0.5325  0.2776 -0.0355
    6MOL    H79  989   2.318   2.944   0.229 -0.4012 -1.2660  1.8978
    6MOL    H80  990   2.467   2.825   8.139  1.0915 -1.5539  0.6621
    6MOL    H81  991   2.498   2.971   0.086  0.8553 -0.9187 -2.4725
    6MOL    H82  992   2.529   2.815   0.156  2.7937  0.5814 -1.5816
    6MOL    C83  993   2.291   2.646   0.455 -0.5662  0.4868 -0.0047
    6MOL    C84  994   2.344   2.691   0.590  0.4438  0.4796  0.6567
    6MOL    C85  995   2.342   2.503   0.429  0.9992 -0.4361 -0.9217
    6MOL    O86  996   2.290   2.406   0.481 -0.1144 -0.4828  0.2177
    6MOL    O87  997   2.466   2.506   0.360 -0.3627 -0.3830 -0.5594
    6MOL    H88  998   2.182   2.652   0.460 -0.3996  1.6387  2.9547
    6MOL    H89  999   2.324   2.796   0.608  0.6173  0.6006  0.1469
    6MOL    H90 1000   2.300   2.633   0.672  2.1535 -0.5884  0.8500
    6MOL    H91 1001   2.451   2.673   0.595  0.2086 -0.5892  2.5573
    6MOL    C92 1002   2.554   2.389   0.351  0.3066  0.0762  0.0443
    6MOL    C93 1003   2.706   2.437   0.359 -0.7206  0.0306 -0.3755
    6MOL    C94 1004   2.522   2.336   0.213  0.0936  0.3327 -0.1176
    6MOL    O95 1005   2.610   2.301   0.132 -0.4504  0.5262 -0.6114
    6MOL    O96 1006   2.390   2.318   0.189 -0.0928  0.8254  0.1788
    6MOL    H97 1007   2.528   2.319   0.430 -2.1482 -0.1052 -0.8854
    6MOL    H98 1008   2.721   2.498   0.448 -0.5431  0.4024 -0.6594
    6MOL    H99 1009   2.779   2.356   0.354  0.4453  1.1938 -2.8130
    6MOL   H100 1010   2.721   2.498   0.270 -2.3636  0.4632 -0.3739
    6MOL   C101 1011   2.338   2.235   0.085  0.4408  0.7203 -0.3016
    6MOL   C102 1012   2.190   2.284   0.070 -0.6525  0.1734  0.3261
    6MOL   C103 1013   2.353   2.084   0.120 -0.0262 -0.3446 -0.1914
    6MOL   O104 1014   2.438   2.014   0.056  0.9487  0.0488  0.2504
    6MOL   O105 1015   2.279   2.046   0.225  0.0146  0.7484  0.4049
    6MOL   H106 1016   2.385   2.255   8.137  0.1248 -0.4420 -0.7030
    6MOL   H107 1017   2.135   2.272   0.163  0.5122 -1.6629  0.8242
    6MOL   H108 1018   2.179   2.387   0.039  0.7462 -0.0434 -0.9580
    6MOL   H109 1019   2.129   2.232   8.144 -1.3087 -0.1777  1.1161
    6MOL   C110 1020   2.256   1.905   0.259 -0.5058  0.0355 -0.5514
    6MOL   C111 1021   2.113   1.886   0.288 -0.1862  0.3520  0.4217
    6MOL   C112 1022   2.347   1.868   0.374  0.3773 -1.1027 -0.5448
    6MOL   O113 1023   2.313   1.804   0.470 -0.0196  0.3373 -0.0652
    6MOL   O114 1024   2.468   1.917   0.362 -0.3536 -0.3309 -0.2103
    6MOL   H115 1025   2.283   1.848   0.170 -4.5441 -1.4602 -0.9063
    6MOL   H116 1026   2.053   1.919   0.204  1.4497  0.6515 -0.6530
    6MOL   H117 1027   2.091   1.779   0.289  1.0270 -0.0206 -3.4543
    6MOL   H118 1028   2.083   1.925   0.385 -1.2330 -0.2614  0.3512
    6MOL   C119 1029   2.566   1.895   0.458 -0.7734 -0.0343 -0.8272
    6MOL   C120 1030   2.534   1.982   0.588 -0.1234  0.2295  0.4689
    6MOL   C121 1031   2.702   1.921   0.387  0.0451 -0.3961 -0.5980
    6MOL   O122 1032   2.773   2.014   0.423  0.4235  0.3783  0.4389
    6MOL   O123 1033   2.731   1.839   0.286  0.0318  0.1954  0.5703
    6MOL   H124 1034   2.571   1.790   0.487  0.1993 -0.1346 -1.3413
    6MOL   H125 1035   2.617   1.954   0.652  0.6795 -1.2285 -1.1425
    6MOL   H126 1036   2.538   2.085   0.553  0.4539 -0.0108 -0.1946
    6MOL   H127 1037   2.437   1.972   0.637 -0.6898  1.6420 -0.3259
    6MOL   C128 1038   2.845   1.846   0.213  0.2053  0.4430 -0.4111
    6MOL   C129 1039   2.806   1.913   0.081  0.3752  0.3788  0.4954
    6MOL   C130 1040   2.896   1.699   0.194  0.3645 -0.2326  0.0109
    6MOL   O131 1041   2.850   1.603   0.254  0.0660  0.0787  0.8144
    6MOL   O132 1042   2.984   1.685   0.095 -0.8052  0.1643  0.0215
    6MOL   H133 1043   2.923   1.902   0.266 -0.1334 -0.2178  0.8148
    6MOL   H134 1044   2.769   2.016   0.083  0.0235  0.2376  1.1596
    6MOL   H135 1045   2.880   1.889   0.005 -1.8514 -0.9109 -1.2947
    6MOL   H136 1046   2.720   1.867   0.033  0.2513  1.6401 -0.5298
    6MOL   C137 1047   3.004   1.556   0.039 -0.2938  0.1062 -0.3754
    6MOL   C138 1048   3.136   1.548   8.105 -0.0337 -0.5597  0.7323
    6MOL   C139 1049   2.878   1.512   8.116 -0.5601  0.4805  0.0527
    6MOL   O140 1050   2.802   1.419   8.147  0.0168 -0.1028 -0.2744
    6MOL   O141 1051   2.857   1.598   8.009  0.1895  0.5900  0.8290
    6MOL   H142 1052   3.016   1.485   0.121  3.2189  0.0304 -0.8982
    6MOL   H143 1053   3.168   1.640   8.056  0.5010 -2.1621 -2.0261
    6MOL   H144 1054   3.211   1.521   0.032  1.8494  2.6713  0.0967
    6MOL   H145 1055   3.144   1.469   8.031  1.1772  1.4870 -1.3714
    6MOL   C146 1056   2.752   1.576   7.917  0.2465 -0.2859  0.2605
    6MOL   C147 1057   2.791   1.638   7.775  0.0252 -0.5188 -0.3487
    6MOL   C148 1058   2.626   1.645   7.974  0.2218 -0.4496  0.3398
    6MOL   O149 1059   2.570   1.731   7.909  0.0180 -0.0636 -0.1719
    6MOL   O150 1060   2.593   1.607   8.097  0.6428  0.0052  0.0596
    6MOL   H151 1061   2.721   1.472   7.909  0.7288 -0.4467  0.5151
    6MOL   H152 1062   2.842   1.734   7.783  0.5369 -0.7054 -1.3875
    6MOL   H153 1063   2.861   1.568   7.731 -0.4994 -1.4649  0.2823
    6MOL   H154 1064   2.714   1.659   7.701  1.1357  1.5876 -0.9278
    6MOL   C155 1065   2.469   1.651   0.011  0.4408 -0.7908  0.2030
    6MOL   C156 1066   2.433   1.594   0.152 -0.0358 -0.3062 -0.6705
    6MOL   C157 1067   2.343   1.604   8.076 -0.2525  0.3165  0.1887
    6MOL   O158 1068   2.345   1.505   7.996 -0.1602 -0.6182  0.1658
    6MOL   O159 1069   2.237   1.672   8.114 -0.0156  0.0833 -0.0907
    6MOL   H160 1070   2.471   1.760   0.014 -3.6554 -0.6041 -1.1572
    6MOL   H161 1071   2.344   1.640   0.197  0.9516  0.0968  0.9310
    6MOL   H162 1072   2.417   1.486   0.146 -0.5344 -0.4086  1.7499
    6MOL   H163 1073   2.512   1.622   0.222  1.1521  0.7873 -2.4008
    6MOL   C164 1074   2.103   1.637   8.062 -0.2600 -0.3702 -0.2166
    6MOL   C165 1075   2.003   1.753   8.077 -0.6491 -0.1597 -0.0439
    6MOL   C166 1076   2.043   1.517   8.145  0.3426 -0.2440  0.7862
    6MOL   O167 1077   2.064   1.505   0.121  0.2538  0.1169 -0.3804
    6MOL   O168 1078   1.957   1.434   8.083 -0.1039 -0.5970 -0.2110
    6MOL   H169 1079   2.112   1.627   7.954 -0.1182 -0.2403 -0.2183
    6MOL   H170 1080   2.047   1.851   8.093 -1.5511  0.5123 -1.6393
    6MOL   H171 1081   1.929   1.763   7.998 -2.5940  1.0246  1.8775
    6MOL   H172 1082   1.925   1.736   0.004 -1.9147 -1.0351 -1.5396
    6MOL   C173 1083   1.903   1.328   8.145  0.1787  0.6416  0.2095
    6MOL   C174 1084   2.005   1.220   8.139 -0.1109  0.4116 -0.0153
    6MOL   C175 1085   1.784   1.280   8.068  0.1066 -0.3653 -0.2858
    6MOL   O176 1086   1.770   1.166   8.020  0.0300  0.2458  0.1093
    6MOL   O177 1087   1.689   1.382   8.071  0.3237 -0.0590  0.3173
    6MOL   H178 1088   1.877   1.353   0.100  1.2340  0.8280  0.4381
    6MOL   H179 1089   2.106   1.249   0.018  0.7651 -2.2569 -0.3316
    6MOL   H180 1090   1.972   1.143   0.061 -1.0492  1.8805  1.1886
    6MOL   H181 1091   2.011   1.171   8.042 -3.0044 -1.0508  0.4875
    6MOL   H182 1092   1.736   1.452   8.115 -0.3809  0.0100  0.9596
    7MOL     C1 1093   7.874   0.776   5.493 -0.8346 -0.0974  0.1490
    7MOL     C2 1094   7.798   0.650   5.543  0.7137 -0.5459 -0.6793
    7MOL     C3 1095   7.787   0.855   5.390  0.4798  0.8215 -0.4568
    7MOL     O4 1096   7.782   0.826   5.270 -0.3496 -0.1245 -0.1550
    7MOL     O5 1097   7.727   0.967   5.443 -0.0765  0.1105 -0.5658
    7MOL     H6 1098   7.916   0.846   5.565 -0.3469 -1.3714  1.1136
    7MOL     H7 1099   7.867   0.594   5.606  0.1247 -1.1432 -0.5639
    7MOL     H8 1100   7.709   0.659   5.605  0.8474 -0.7790 -0.4532
    7MOL     H9 1101   7.763   0.583   5.465 -0.6360  0.4884 -0.9839
    7MOL    H10 1102   7.954   0.742   5.427 -0.9746  0.2649 -0.2072
    7MOL    C11 1103   7.645   1.059   5.372 -0.2272 -0.1483 -0.3679
    7MOL    C12 1104   7.670   1.204   5.426  0.1806 -0.2546 -0.6929
    7MOL    C13 1105   7.499   1.019   5.384 -0.1260 -0.5378 -0.5687
    7MOL    O14 1106   7.431   1.054   5.478 -0.1829 -0.3484  0.0150
    7MOL    O15 1107   7.464   0.932   5.285 -0.3297  0.3545  0.3940
    7MOL    H16 1108   7.663   1.061   5.264  0.0752 -0.7968 -0.3326
    7MOL    H17 1109   7.770   1.239   5.400  0.1679 -1.1226 -1.9337
    7MOL    H18 1110   7.597   1.270   5.378 -0.9232  0.8757  2.3665
    7MOL    H19 1111   7.662   1.204   5.535 -1.6765  0.6049 -0.8106
    7MOL    C20 1112   7.352   0.841   5.307  0.6805 -0.1403 -0.0620
    7MOL    C21 1113   7.353   0.723   5.211  0.2089 -0.6698 -0.0121
    7MOL    C22 1114   7.214   0.911   5.299 -0.9191 -0.4024  0.0692
    7MOL    O23 1115   7.207   1.024   5.257 -0.1774  0.1943  0.3847
    7MOL    O24 1116   7.122   0.829   5.343  0.0113  0.2242  0.2873
    7MOL    H25 1117   7.362   0.804   5.409  1.2345 -0.5226 -0.2536
    7MOL    H26 1118   7.323   0.764   5.115  0.1982 -0.7584 -0.0473
    7MOL    H27 1119   7.450   0.675   5.224  0.8779  0.4459 -0.7975
    7MOL    H28 1120   7.280   0.645   5.233 -0.6479 -0.0043 -0.4909
    7MOL    C29 1121   6.989   0.858   5.311  0.3807  0.0779  0.6938
    7MOL    C30 1122   6.911   0.766   5.409  0.4489  0.1857  0.7516
    7MOL    C31 1123   6.949   0.811   5.164  0.4599 -0.2571  0.6254
    7MOL    O32 1124   6.895   0.876   5.077  0.6464 -0.0869  0.7222
    7MOL    O33 1125   6.992   0.688   5.147  0.4760 -0.0852 -0.5622
    7MOL    H34 1126   6.967   0.963   5.333  1.0242  0.6156 -1.1867
    7MOL    H35 1127   6.914   0.807   5.510 -1.0768 -2.0616  1.7424
    7MOL    H36 1128   6.807   0.759   5.379  0.1765  3.4165  0.7873
    7MOL    H37 1129   6.955   0.667   5.395  2.0312  1.1580 -1.5811
    7MOL    C38 1130   7.006   0.616   5.019 -0.4846  0.0048 -0.3128
    7MOL    C39 1131   7.036   0.473   5.057  0.6128 -0.0183  0.0712
    7MOL    C40 1132   7.111   0.669   4.922 -0.9565  0.1585 -0.7235
    7MOL    O41 1133   7.142   0.793   4.923 -0.1232  0.3177  0.3270
    7MOL    O42 1134   7.146   0.586   4.816  0.3188  0.5781  0.0039
    7MOL    H43 1135   6.913   0.614   4.963  0.3175  0.0064 -1.6554
    7MOL    H44 1136   7.049   0.408   4.971  1.3186 -0.8849  0.8310
    7MOL    H45 1137   7.132   0.473   5.108  1.2886 -0.9239 -1.1678
    7MOL    H46 1138   6.955   0.440   5.122  1.3967 -1.4588  0.3239
    7MOL    C47 1139   7.257   0.620   4.737  0.1221  0.6098 -0.3231
    7MOL    C48 1140   7.266   0.528   4.615 -0.9946 -0.5188 -0.8596
    7MOL    C49 1141   7.389   0.609   4.821  0.1284  0.3332  0.4093
    7MOL    O50 1142   7.405   0.526   4.910 -0.1353  0.7033 -0.0871
    7MOL    O51 1143   7.486   0.711   4.781  0.8759  0.0304 -0.4373
    7MOL    H52 1144   7.245   0.726   4.712 -0.7347  0.4633 -0.5320
    7MOL    H53 1145   7.364   0.534   4.567 -0.4094 -2.0768  0.0668
    7MOL    H54 1146   7.248   0.424   4.643  0.6470 -0.4709  0.5199
    7MOL    H55 1147   7.191   0.541   4.538 -0.4627 -0.3628 -1.3561
    7MOL    C56 1148   7.614   0.727   4.835  0.2370 -0.1014  0.1543
    7MOL    C57 1149   7.664   0.875   4.824  0.5901 -0.4758  0.1042
    7MOL    C58 1150   7.708   0.630   4.757  0.5146 -0.3297  0.1051
    7MOL    O59 1151   7.663   0.551   4.676 -0.0325 -0.1467 -0.6105
    7MOL    O60 1152   7.839   0.641   4.800  0.2134  0.2826  0.4116
    7MOL    H61 1153   7.613   0.704   4.941  1.1739  0.7026  0.3366
    7MOL    H62 1154   7.568   0.928   4.830  0.9999  0.2915 -0.0833
    7MOL    H63 1155   7.728   0.904   4.908  0.0803 -1.0035  0.6760
    7MOL    H64 1156   7.718   0.901   4.733  0.2451 -0.5375 -0.1177
    7MOL    C65 1157   7.937   0.556   4.737 -0.2418  0.9564 -0.0851
    7MOL    C66 1158   8.053   0.530   4.839 -0.2105 -0.3200 -0.4780
    7MOL    C67 1159   7.995   0.632   4.609 -0.0022  1.0730  0.1358
    7MOL    O68 1160   8.034   0.576   4.505 -0.6970 -0.1804  0.1306
    7MOL    O69 1161   7.995   0.763   4.633  0.3674  0.7647  0.1694
    7MOL    H70 1162   7.902   0.457   4.709  1.5648 -0.2219  1.7231
    7MOL    H71 1163   8.113   0.619   4.852  1.3609 -1.4685  0.3339
    7MOL    H72 1164   8.028   0.505   4.942 -2.0591  0.7904 -0.6353
    7MOL    H73 1165   8.112   0.448   4.799 -0.4624 -0.8461  0.2027
    7MOL    C74 1166   8.041   0.857   4.540 -0.5406  0.0275  0.6419
    7MOL    C75 1167   8.041   0.987   4.616 -0.3685  0.6235 -0.0722
    7MOL    C76 1168   7.948   0.862   4.423  0.0347 -0.2418 -0.0915
    7MOL    O77 1169   7.847   0.935   4.422  0.3502 -0.2761  0.5197
    7MOL    O78 1170   7.985   0.787   4.317  0.4238 -0.5699 -0.2321
    7MOL    H79 1171   8.144   0.846   4.508 -0.5068  1.8186  0.1076
    7MOL    H80 1172   8.093   1.068   4.565 -1.0823 -0.1132 -2.0137
    7MOL    H81 1173   7.945   1.023   4.654 -0.1680 -0.1568  1.2278
    7MOL    H82 1174   8.092   0.965   4.710  0.6623  2.2603 -0.2181
    7MOL    C83 1175   7.908   0.779   4.188  0.1214  0.2248  0.1130
    7MOL    C84 1176   7.940   0.907   4.098 -0.0680 -0.4845  0.4286
    7MOL    C85 1177   7.758   0.747   4.206  0.2845  0.0192 -0.2084
    7MOL    O86 1178   7.673   0.813   4.149 -0.1219  0.3663 -0.1089
    7MOL    O87 1179   7.731   0.635   4.282 -0.1751 -0.3794  0.4210
    7MOL    H88 1180   7.938   0.684   4.143  0.6996 -0.2629  1.4980
    7MOL    H89 1181   8.040   0.899   4.054 -0.4711  1.0500 -0.7631
    7MOL    H90 1182   7.863   0.929   4.025  1.1937  1.8984 -0.2133
    7MOL    H91 1183   7.950   0.994   4.163  2.9415  0.1909 -0.8129
    7MOL    C92 1184   7.603   0.571   4.269 -0.3740 -0.6029  0.3166
    7MOL    C93 1185   7.595   0.444   4.364 -0.4431 -0.0990  0.1759
    7MOL    C94 1186   7.578   0.524   4.125  0.0605  0.3760 -0.3059
    7MOL    O95 1187   7.670   0.481   4.059 -0.0373 -0.0553  0.3737
    7MOL    O96 1188   7.455   0.544   4.086  0.3479  0.1649  0.2022
    7MOL    H97 1189   7.527   0.648   4.284  0.1515 -0.2988  1.4702
    7MOL    H98 1190   7.571   0.360   4.298 -1.8567  1.2930 -1.1035
    7MOL    H99 1191   7.678   0.443   4.435 -1.1817 -2.2988  1.0743
    7MOL   H100 1192   7.493   0.449   4.402 -0.6062  0.5550 -0.3394
    7MOL   C101 1193   7.395   0.520   3.953 -0.6969  0.2009 -0.8009
    7MOL   C102 1194   7.243   0.561   3.956  0.2376  0.4575 -0.6064
    7MOL   C103 1195   7.433   0.378   3.895  0.1230  0.9232 -0.0066
    7MOL   O104 1196   7.472   0.376   3.779 -0.1774  0.2145 -0.1560
    7MOL   O105 1197   7.405   0.266   3.967 -0.1926  0.4131 -0.2633
    7MOL   H106 1198   7.449   0.589   3.887 -2.0388  0.6010 -1.4865
    7MOL   H107 1199   7.190   0.500   4.028  3.1749 -0.0730  1.1732
    7MOL   H108 1200   7.219   0.663   3.987 -0.7921  0.0740 -0.0941
    7MOL   H109 1201   7.187   0.549   3.863 -0.6061 -2.6362  0.2544
    7MOL   C110 1202   7.430   0.133   3.913 -0.9770 -0.4636 -0.5431
    7MOL   C111 1203   7.323   0.030   3.966  0.0618 -0.3740 -0.3276
    7MOL   C112 1204   7.579   0.080   3.954  0.6076  0.0583  0.1507
    7MOL   O113 1205   7.658   0.028   3.875 -0.3930  0.1742 -0.2655
    7MOL   O114 1206   7.594   0.097   4.090 -0.4393  0.3964  0.1915
    7MOL   H115 1207   7.430   0.122   3.804  0.7684 -1.7792 -0.4309
    7MOL   H116 1208   7.355   8.077   3.941  1.7275  0.1969 -0.4988
    7MOL   H117 1209   7.315   0.047   4.074  0.3197  2.2697 -0.6856
    7MOL   H118 1210   7.226   0.054   3.923  0.2118 -0.0545 -0.4879
    7MOL   C119 1211   7.692   0.033   4.168  0.0148 -0.1290  0.0893
    7MOL   C120 1212   7.658   0.049   4.324 -0.1561 -0.0029 -0.1337
    7MOL   C121 1213   7.834   0.088   4.145  0.1682 -0.3087  0.0733
    7MOL   O122 1214   7.930   0.018   4.108  0.3078 -0.1563 -0.0955
    7MOL   O123 1215   7.837   0.217   4.158  0.1164  0.2206  0.1213
    7MOL   H124 1216   7.682   8.075   4.141 -0.4864 -1.1907  4.0608
    7MOL   H125 1217   7.675   0.152   4.356  0.7605 -0.4772  0.9282
    7MOL   H126 1218   7.558   0.011   4.342  0.4809 -0.5958  2.2908
    7MOL   H127 1219   7.724   8.137   4.387 -0.6306  0.4604  0.8251
    7MOL   C128 1220   7.958   0.287   4.124  1.0070 -1.2028  0.2770
    7MOL   C129 1221   7.974   0.395   4.234  0.2811  0.4161 -0.3074
    7MOL   C130 1222   7.945   0.343   3.975  0.3401  0.9507  0.3161
    7MOL   O131 1223   7.966   0.466   3.951 -0.4120 -0.0656  0.0071
    7MOL   O132 1224   7.913   0.247   3.888  0.2531  0.6643 -0.1370
    7MOL   H133 1225   8.052   0.232   4.116  0.8194 -1.3450 -1.3083
    7MOL   H134 1226   8.064   0.456   4.230  0.0131  1.1076  2.8296
    7MOL   H135 1227   7.886   0.459   4.242 -2.4932 -2.7531 -3.7581
    7MOL   H136 1228   7.978   0.344   4.330 -1.6293 -0.8492 -0.8749
    7MOL   C137 1229   7.925   0.271   3.744  0.3227  0.1865 -0.0995
    7MOL   C138 1230   7.790   0.276   3.677  0.3514  0.1991  0.6795
    7MOL   C139 1231   8.014   0.163   3.670 -0.7579  0.2076 -0.5998
    7MOL   O140 1232   8.037   0.168   3.549 -0.0847  0.5542 -0.0151
    7MOL   O141 1233   8.063   0.070   3.753 -0.0744  0.4008  0.5209
    7MOL   H142 1234   7.974   0.366   3.722  1.4936 -0.3098  0.3116
    7MOL   H143 1235   7.734   0.182   3.677  1.0465 -0.2792 -2.2988
    7MOL   H144 1236   7.726   0.357   3.712 -0.1181  0.1725 -0.0801
    7MOL   H145 1237   7.807   0.291   3.570  0.7175 -0.6511  0.6132
    7MOL   C146 1238   0.022   8.140   3.705 -0.0369  0.3280 -0.4487
    7MOL   C147 1239   0.000   7.995   3.767  0.1794  0.5657  0.5963
    7MOL   C148 1240   0.147   0.075   3.734  1.2266  0.3554  0.3400
    7MOL   O149 1241   0.206   0.135   3.638  0.2108  0.4670 -0.0276
    7MOL   O150 1242   0.175   0.088   3.864  0.2613 -0.5085 -0.3131
    7MOL   H151 1243   0.004   8.119   3.599 -2.0957 -1.9400  0.2967
    7MOL   H152 1244   8.107   7.999   3.868 -1.2579  0.2974  0.0299
    7MOL   H153 1245   8.079   7.929   3.715 -1.1509  0.9229  1.8581
    7MOL   H154 1246   0.093   7.938   3.771 -1.0437 -1.5323 -0.2563
    7MOL   C155 1247   0.299   0.146   3.913 -0.2862 -0.7073 -0.0818
    7MOL   C156 1248   0.394   0.023   3.948 -1.1697 -0.3630 -0.0726
    7MOL   C157 1249   0.269   0.215   4.046  0.5985 -0.6735  0.5524
    7MOL   O158 1250   0.157   0.257   4.066  0.8136  0.5537 -0.4772
    7MOL   O159 1251   0.372   0.250   4.124  0.5077 -0.1243  0.3648
    7MOL   H160 1252   0.338   0.219   3.842 -1.7248 -1.0296 -1.2321
    7MOL   H161 1253   0.373   8.125   4.044  1.2349 -0.5987  0.3690
    7MOL   H162 1254   0.405   8.100   3.866  1.6828  1.3086 -1.2466
    7MOL   H163 1255   0.496   0.060   3.960 -0.8068 -1.4126  0.1145
    7MOL   C164 1256   0.346   0.290   4.260  0.3697 -0.3359 -0.1235
    7MOL   C165 1257   0.477   0.332   4.329 -0.0016  0.0252 -0.7051
    7MOL   C166 1258   0.272   0.183   4.347  0.5040 -0.1947 -0.4838
    7MOL   O167 1259   0.197   0.202   4.444 -0.5379 -0.5188  0.1899
    7MOL   O168 1260   0.293   0.057   4.296 -0.9091 -0.0060  0.0692
    7MOL   H169 1261   0.280   0.376   4.272  0.4477 -0.6408  2.9135
    7MOL   H170 1262   0.486   0.439   4.311  0.6589 -0.1693 -1.5237
    7MOL   H171 1263   0.465   0.316   4.436 -0.9742 -2.1841 -1.1124
    7MOL   H172 1264   0.556   0.261   4.306  0.8871 -0.1267  2.5853
    7MOL   C173 1265   0.203   8.093   4.333 -0.4208 -0.5597 -0.4493
    7MOL   C174 1266   0.304   7.990   4.362  0.1079  0.1502 -0.0490
    7MOL   C175 1267   0.103   8.062   4.225  0.1996 -0.2608 -0.4535
    7MOL   O176 1268   0.085   7.955   4.165 -0.0463 -0.2404 -0.0731
    7MOL   O177 1269   0.022   0.021   4.199  1.2237 -0.0290 -0.2882
    7MOL   H178 1270   0.145   8.121   4.421 -0.8564  2.7952 -1.7469
    7MOL   H179 1271   0.258   7.898   4.399  3.1832  0.0953  3.9145
    7MOL   H180 1272   0.352   7.958   4.270  1.5110  0.8948  0.4105
    7MOL   H181 1273   0.388   8.021   4.424  0.0965  0.5524 -0.2316
    7MOL   H182 1274   8.113   8.146   4.127  0.6709  1.0349 -0.1985
    8MOL     C1 1275   2.456   7.647   6.428 -0.0736 -0.4633  0.0702
    8MOL     C2 1276   2.306   7.662   6.390  0.6192  0.1721  0.2156
    8MOL     C3 1277   2.478   7.544   6.533 -0.7617  1.0485 -0.2331
    8MOL     O4 1278   2.574   7.468   6.533 -0.0461 -0.2795  0.3084
    8MOL     O5 1279   2.391   7.556   6.635  0.7301  0.1096  0.3641
    8MOL     H6 1280   2.513   7.614   6.340 -2.1152  1.0861 -1.8940
    8MOL     H7 1281   2.266   7.566   6.356 -0.4065  1.0208 -1.0202
    8MOL     H8 1282   2.252   7.708   6.473 -0.2786  0.5812 -0.5828
    8MOL     H9 1283   2.300   7.721   6.299  1.7977 -3.1196 -2.0831
    8MOL    H10 1284   2.492   7.743   6.465  1.6459 -1.0084 -0.1226
    8MOL    C11 1285   2.396   7.464   6.744 -0.3166 -0.0027  0.3622
    8MOL    C12 1286   2.260   7.453   6.808  0.3704 -0.2970 -0.0346
    8MOL    C13 1287   2.515   7.488   6.842 -0.8259  0.9330 -0.7721
    8MOL    O14 1288   2.604   7.404   6.856  0.0935 -0.1322 -0.0154
    8MOL    O15 1289   2.514   7.613   6.892  0.2062 -0.1941 -0.2642
    8MOL    H16 1290   2.410   7.366   6.700 -0.0027 -0.8829  2.3911
    8MOL    H17 1291   2.201   7.405   6.730 -1.4792  0.8888  0.6053
    8MOL    H18 1292   2.248   7.405   6.905  0.3327  1.0956  0.6629
    8MOL    H19 1293   2.226   7.556   6.817  3.9998  1.4402 -4.5949
    8MOL    C20 1294   2.629   7.662   6.961 -0.0466  0.0776  0.2980
    8MOL    C21 1295   2.571   7.763   7.064 -0.4683  0.1481  0.4581
    8MOL    C22 1296   2.732   7.717   6.860 -0.5228 -0.2586 -0.1036
    8MOL    O23 1297   2.737   7.836   6.835 -0.5840 -0.5964  0.4087
    8MOL    O24 1298   2.803   7.621   6.795 -0.4908 -0.1307  0.4373
    8MOL    H25 1299   2.676   7.581   7.017  0.8735  0.1827 -0.3028
    8MOL    H26 1300   2.512   7.837   7.010  0.0008 -0.3305 -0.7314
    8MOL    H27 1301   2.505   7.703   7.126 -1.3330 -0.1800 -0.7562
    8MOL    H28 1302   2.647   7.808   7.127  0.8692  0.4221 -1.3212
    8MOL    C29 1303   2.912   7.652   6.710  0.0872 -0.1466 -0.0269
    8MOL    C30 1304   3.027   7.716   6.785  0.6620  0.2961 -0.2762
    8MOL    C31 1305   2.864   7.730   6.582 -0.0921  0.0330 -0.1284
    8MOL    O32 1306   2.750   7.741   6.548 -0.1201 -0.3657  0.2061
    8MOL    O33 1307   2.974   7.785   6.509  0.3617 -0.3945  0.4788
    8MOL    H34 1308   2.959   7.557   6.685  3.2592  1.8620 -1.9953
    8MOL    H35 1309   3.107   7.748   6.719  0.3282  0.6297 -0.5249
    8MOL    H36 1310   2.993   7.806   6.837  0.3029 -0.3034  0.5366
    8MOL    H37 1311   3.070   7.652   6.862 -0.4155  1.0576  0.9675
    8MOL    C38 1312   2.972   7.880   6.397  0.3368  0.0218 -0.2137
    8MOL    C39 1313   2.963   8.035   6.450  0.2634  0.6859 -0.4648
    8MOL    C40 1314   2.871   7.850   6.288  0.0539  0.9044  0.3632
    8MOL    O41 1315   2.769   7.919   6.265 -0.8737  0.2888  1.2354
    8MOL    O42 1316   2.890   7.733   6.224 -0.3318  0.2262  0.5195
    8MOL    H43 1317   3.067   7.868   6.345  1.0377 -0.0217  1.0357
    8MOL    H44 1318   2.926   8.102   6.372  0.4559 -0.2790 -1.4045
    8MOL    H45 1319   2.903   8.024   6.540 -0.7122 -2.2729 -1.3906
    8MOL    H46 1320   3.059   8.071   6.485  0.4647 -1.3410  1.1821
    8MOL    C47 1321   2.806   7.696   6.110  0.7466 -0.0358  0.0897
    8MOL    C48 1322   2.800   7.546   6.092 -0.1943 -1.0178 -0.3780
    8MOL    C49 1323   2.852   7.764   5.977  0.3710 -0.4502 -0.3751
    8MOL    O50 1324   2.792   7.866   5.939 -0.5005 -0.4603  0.1050
    8MOL    O51 1325   2.961   7.701   5.923  0.0690  0.2163 -1.1418
    8MOL    H52 1326   2.704   7.728   6.132  1.5786  0.8949  2.8129
    8MOL    H53 1327   2.892   7.493   6.069  0.9889  0.8678 -0.0739
    8MOL    H54 1328   2.752   7.503   6.180  0.8087  0.5818  0.9763
    8MOL    H55 1329   2.730   7.522   6.012 -1.1534 -1.5668  0.6148
    8MOL    C56 1330   3.026   7.732   5.804  0.0245 -0.2790  0.6974
    8MOL    C57 1331   3.101   7.867   5.803 -0.1898 -0.0293  0.0641
    8MOL    C58 1332   2.932   7.721   5.678 -0.0945 -0.7921 -0.1718
    8MOL    O59 1333   2.944   7.798   5.582  0.1160 -0.0907 -0.1630
    8MOL    O60 1334   2.837   7.622   5.688  0.0213  0.0818 -0.2172
    8MOL    H61 1335   3.103   7.656   5.797 -1.4744 -1.8489  0.9911
    8MOL    H62 1336   3.147   7.887   5.706  0.6050 -2.1379 -0.0114
    8MOL    H63 1337   3.036   7.953   5.823 -0.1220  0.4251 -1.5843
    8MOL    H64 1338   3.180   7.864   5.878 -0.1820  0.3423  0.0719
    8MOL    C65 1339   2.747   7.602   5.580 -0.8343 -0.1292 -0.1690
    8MOL    C66 1340   2.613   7.643   5.638 -0.1556 -0.3923  0.3153
    8MOL    C67 1341   2.756   7.453   5.557 -0.2844  0.1886  0.1201
    8MOL    O68 1342   2.770   7.410   5.440 -0.2589  0.0522 -0.7357
    8MOL    O69 1343   2.748   7.373   5.673  0.3828 -0.6113 -0.0862
    8MOL    H70 1344   2.768   7.657   5.489  0.7128 -1.3331 -0.5516
    8MOL    H71 1345   2.602   7.751   5.643 -0.4151 -0.4833  2.2089
    8MOL    H72 1346   2.532   7.600   5.580  0.8369 -1.5621 -0.2431
    8MOL    H73 1347   2.599   7.610   5.741  0.8563  3.7990  1.9074
    8MOL    C74 1348   2.781   7.240   5.671  0.6499  1.1400 -0.1878
    8MOL    C75 1349   2.692   7.153   5.756  0.0396 -0.6613  0.0269
    8MOL    C76 1350   2.928   7.227   5.718 -0.4461  0.1605  0.3085
    8MOL    O77 1351   2.981   7.324   5.773  0.2736 -0.1768 -0.4364
    8MOL    O78 1352   2.980   7.102   5.693 -0.1158 -0.5373  0.1432
    8MOL    H79 1353   2.786   7.202   5.569  1.5685 -0.7908  0.5461
    8MOL    H80 1354   2.686   7.186   5.859  1.6658  1.2225 -0.4462
    8MOL    H81 1355   2.597   7.165   5.704  0.1416  0.1659  0.0193
    8MOL    H82 1356   2.729   7.051   5.761 -0.2928 -0.7798  0.0682
    8MOL    C83 1357   3.101   7.054   5.750 -0.0988 -0.6618  0.5914
    8MOL    C84 1358   3.225   7.104   5.678 -0.2070 -0.3695 -0.3825
    8MOL    C85 1359   3.096   6.901   5.739  0.0626  0.1186 -0.3536
    8MOL    O86 1360   3.182   6.835   5.684  0.0211  0.4545 -0.1512
    8MOL    O87 1361   2.974   6.844   5.792 -0.0343 -0.1473  0.0472
    8MOL    H88 1362   3.108   7.077   5.856  0.7339  1.7001  0.0487
    8MOL    H89 1363   3.322   7.068   5.713  0.7713  2.9477  0.5486
    8MOL    H90 1364   3.199   7.092   5.573  0.6397 -1.4952 -0.4633
    8MOL    H91 1365   3.227   7.210   5.703 -0.4128 -0.2378 -0.9061
    8MOL    C92 1366   2.933   6.716   5.744 -0.2496  0.0162 -0.1161
    8MOL    C93 1367   2.778   6.701   5.763 -0.1370 -0.3373  0.0667
    8MOL    C94 1368   3.006   6.602   5.814 -1.0990 -0.3518  0.1037
    8MOL    O95 1369   3.044   6.606   5.931  0.3181  0.6892 -0.0149
    8MOL    O96 1370   3.031   6.494   5.731  0.0810 -0.3526  0.3082
    8MOL    H97 1371   2.950   6.718   5.637  1.8346  0.4745  0.2009
    8MOL    H98 1372   2.738   6.605   5.729 -0.5076 -0.7604  1.6185
    8MOL    H99 1373   2.749   6.704   5.868 -0.1704 -0.4736  0.0614
    8MOL   H100 1374   2.720   6.777   5.711  1.3063  0.6675 -0.1108
    8MOL   C101 1375   3.095   6.374   5.782 -1.0060 -0.0713 -0.0127
    8MOL   C102 1376   3.207   6.330   5.684 -0.2715  0.0460 -0.5457
    8MOL   C103 1377   2.991   6.269   5.805 -0.0485  0.1132  0.3415
    8MOL   O104 1378   2.962   6.216   5.916  0.1172  0.4698 -0.1388
    8MOL   O105 1379   2.933   6.235   5.692  0.0193 -0.6418  0.0935
    8MOL   H106 1380   3.149   6.381   5.876 -1.5236 -1.2370  0.3879
    8MOL   H107 1381   3.267   6.413   5.647 -0.7807  0.9394  0.5871
    8MOL   H108 1382   3.271   6.250   5.724 -1.8988 -0.7912  0.4458
    8MOL   H109 1383   3.159   6.289   5.595 -0.7629 -0.8316  0.1123
    8MOL   C110 1384   2.823   6.139   5.690 -0.0922  0.2402  0.2553
    8MOL   C111 1385   2.810   6.092   5.549 -0.0793 -0.0233  0.0882
    8MOL   C112 1386   2.701   6.206   5.754  0.2923 -0.2881  0.8898
    8MOL   O113 1387   2.675   6.325   5.748 -1.0513 -0.3848  0.1807
    8MOL   O114 1388   2.626   6.115   5.812 -0.6168 -0.0633 -0.1894
    8MOL   H115 1389   2.842   6.058   5.761  0.5859 -0.2719 -0.4957
    8MOL   H116 1390   2.741   6.009   5.533 -0.3747 -0.3470  2.9380
    8MOL   H117 1391   2.775   6.175   5.487  1.5195 -1.2691 -2.6081
    8MOL   H118 1392   2.905   6.069   5.501 -0.5908 -0.6634 -0.6424
    8MOL   C119 1393   2.515   6.147   5.896  0.6151 -1.1267  0.3588
    8MOL   C120 1394   2.574   6.130   6.046 -0.5088 -0.1250  0.4189
    8MOL   C121 1395   2.412   6.034   5.860 -0.5260  0.2283  0.1271
    8MOL   O122 1396   2.302   6.057   5.816 -0.2208 -0.0877 -0.0554
    8MOL   O123 1397   2.459   5.920   5.888  0.1377 -0.0621 -0.1208
    8MOL   H124 1398   2.469   6.243   5.873  1.4042 -0.5055  1.3199
    8MOL   H125 1399   2.669   6.182   6.055 -1.1000  1.3052 -1.1248
    8MOL   H126 1400   2.520   6.180   6.126  0.2298  0.3972  0.5939
    8MOL   H127 1401   2.603   6.027   6.065 -0.1222  0.0525  0.7942
    8MOL   C128 1402   2.384   5.803   5.858 -0.6859 -0.2391 -0.0285
    8MOL   C129 1403   2.442   5.702   5.955 -0.6105  0.2446 -0.4071
    8MOL   C130 1404   2.402   5.748   5.715  0.0199 -0.7523  0.2149
    8MOL   O131 1405   2.467   5.803   5.628  0.5155  0.1009  0.3836
    8MOL   O132 1406   2.330   5.630   5.691  0.1026  0.0204  0.3261
    8MOL   H133 1407   2.277   5.814   5.874 -0.3100  3.1035  0.5379
    8MOL   H134 1408   2.542   5.740   5.978 -1.0078  1.4568 -0.6280
    8MOL   H135 1409   2.396   5.695   6.054  0.0518  0.1849 -0.1018
    8MOL   H136 1410   2.455   5.605   5.908  2.0203 -1.4587  3.5850
    8MOL   C137 1411   2.331   5.562   5.569  0.2643  0.5268 -0.0052
    8MOL   C138 1412   2.241   5.446   5.590 -0.3371  0.2246  0.6654
    8MOL   C139 1413   2.471   5.506   5.529  0.9022  0.4959  0.0854
    8MOL   O140 1414   2.518   5.513   5.415  0.0206 -0.4566  0.4789
    8MOL   O141 1415   2.524   5.443   5.632  0.5008 -0.6897  0.1153
    8MOL   H142 1416   2.298   5.643   5.503  3.1962  1.5785 -0.2623
    8MOL   H143 1417   2.227   5.397   5.494  0.2681  1.0597  0.1416
    8MOL   H144 1418   2.275   5.380   5.671  0.2503 -0.9298 -0.5075
    8MOL   H145 1419   2.146   5.492   5.617 -2.5819 -2.7157 -1.9824
    8MOL   C146 1420   2.636   5.356   5.624 -1.0577 -0.3789  0.4819
    8MOL   C147 1421   2.623   5.256   5.742  0.2320  0.0543 -0.1180
    8MOL   C148 1422   2.773   5.433   5.626 -0.5342 -0.1748  0.0256
    8MOL   O149 1423   2.869   5.385   5.564  1.3747 -0.2258 -0.1681
    8MOL   O150 1424   2.769   5.551   5.693  0.2054 -0.7571 -0.1633
    8MOL   H151 1425   2.634   5.299   5.531 -1.0328  0.0766  0.2061
    8MOL   H152 1426   2.525   5.270   5.788  1.2874 -2.0256  2.9376
    8MOL   H153 1427   2.637   5.154   5.706 -1.7588  0.0778 -1.0041
    8MOL   H154 1428   2.688   5.271   5.828 -1.0975  1.0846  0.7210
    8MOL   C155 1429   2.874   5.647   5.694  0.1797 -0.5995 -0.1307
    8MOL   C156 1430   2.829   5.756   5.799  0.6275 -0.7916  0.4118
    8MOL   C157 1431   2.910   5.698   5.554  0.6015 -0.1790  0.0111
    8MOL   O158 1432   3.019   5.738   5.521 -0.2619  0.0756 -0.4421
    8MOL   O159 1433   2.793   5.710   5.482 -0.3456 -0.0486  0.0441
    8MOL   H160 1434   2.961   5.589   5.725  0.9266  1.5940  1.9862
    8MOL   H161 1435   2.909   5.829   5.809  0.3432 -0.3125 -0.7698
    8MOL   H162 1436   2.738   5.810   5.770  2.0158  1.7576  0.6235
    8MOL   H163 1437   2.825   5.722   5.903  1.2371  1.4615  1.2211
    8MOL   C164 1438   2.789   5.747   5.346  0.2428  0.4662  0.8138
    8MOL   C165 1439   2.645   5.773   5.299 -0.2760 -0.0860 -0.1673
    8MOL   C166 1440   2.875   5.652   5.252  0.2948  0.4271  0.2829
    8MOL   O167 1441   2.954   5.694   5.168  0.1795 -0.1210 -0.7333
    8MOL   O168 1442   2.857   5.524   5.278 -0.5129 -0.7011 -0.1854
    8MOL   H169 1443   2.834   5.847   5.344  0.1055  0.5357  1.1589
    8MOL   H170 1444   2.605   5.679   5.263 -0.7340 -1.1733  3.0087
    8MOL   H171 1445   2.580   5.805   5.381 -0.3636  1.7578 -0.9371
    8MOL   H172 1446   2.655   5.859   5.233 -0.2450 -0.0170 -0.0734
    8MOL   C173 1447   2.928   5.427   5.204  0.3496 -0.1605  0.5132
    8MOL   C174 1448   2.820   5.324   5.153  0.0278  0.4818  1.1051
    8MOL   C175 1449   3.033   5.365   5.299  0.4107  0.3948 -0.0177
    8MOL   O176 1450   3.040   5.245   5.316  0.1170  0.7298  0.2801
    8MOL   O177 1451   3.108   5.458   5.366  0.1224  0.5166  0.0716
    8MOL   H178 1452   2.973   5.468   5.113 -0.5595 -2.4580 -1.0052
    8MOL   H179 1453   2.731   5.372   5.111  0.8722  2.8157  1.9143
    8MOL   H180 1454   2.868   5.272   5.071 -1.1390  2.6118 -0.9613
    8MOL   H181 1455   2.790   5.247   5.225 -2.3032  0.3911  0.0731
    8MOL   H182 1456   3.179   5.423   5.416  0.3783 -1.6311 -1.7130
    9MOL     C1 1457   3.974   6.729   3.064 -0.1684 -0.2923 -0.1923
    9MOL     C2 1458   3.838   6.658   3.072 -0.5865 -0.6948  0.3850
    9MOL     C3 1459   3.971   6.876   3.055 -0.9098  0.1709 -1.1340
    9MOL     O4 1460   4.009   6.943   3.151  0.1851 -0.0726  0.4542
    9MOL     O5 1461   3.901   6.928   2.949  0.2877 -0.2178  0.8177
    9MOL     H6 1462   4.036   6.703   3.150 -0.9405  0.6232  0.6510
    9MOL     H7 1463   3.788   6.659   2.975  2.3122  0.8576 -1.1830
    9MOL     H8 1464   3.841   6.553   3.098  0.1684 -0.4139  1.4746
    9MOL     H9 1465   3.775   6.708   3.146 -0.6117  0.3963 -0.3551
    9MOL    H10 1466   4.020   6.691   2.973  1.7188  0.0081  0.6140
    9MOL    C11 1467   3.858   7.065   2.942  0.7765  0.2729  0.0205
    9MOL    C12 1468   3.743   7.083   2.836 -0.1501  0.4012  0.8602
    9MOL    C13 1469   3.981   7.152   2.911  0.0567  0.0433  0.4367
    9MOL    O14 1470   4.033   7.214   3.003  0.1736  0.2652 -0.6203
    9MOL    O15 1471   4.022   7.148   2.782  0.1154 -0.2709  0.0970
    9MOL    H16 1472   3.795   7.096   3.025  1.5402 -0.8526  1.0393
    9MOL    H17 1473   3.659   7.014   2.844 -0.5745  1.0227  1.8491
    9MOL    H18 1474   3.704   7.184   2.847  2.1240  1.7486 -2.5273
    9MOL    H19 1475   3.771   7.069   2.732 -2.7286 -4.1618  0.6126
    9MOL    C20 1476   4.152   7.206   2.750 -0.0310  0.4975  0.0913
    9MOL    C21 1477   4.124   7.330   2.659 -0.0868  0.2762  0.4733
    9MOL    C22 1478   4.237   7.090   2.687 -0.4803 -0.1026 -0.3155
    9MOL    O23 1479   4.265   7.074   2.569  0.0823  0.0466  0.4106
    9MOL    O24 1480   4.276   7.016   2.798 -0.3374  0.2565 -0.5488
    9MOL    H25 1481   4.204   7.240   2.839 -1.4039  0.3717  0.9630
    9MOL    H26 1482   4.088   7.291   2.564 -0.2098 -0.7342  0.9268
    9MOL    H27 1483   4.051   7.399   2.703 -1.6479 -0.6275 -0.6586
    9MOL    H28 1484   4.212   7.392   2.642  0.8330 -1.7488 -2.6424
    9MOL    C29 1485   4.334   6.886   2.783  0.1894 -0.1331 -0.2997
    9MOL    C30 1486   4.325   6.805   2.911 -0.6576  0.4092  0.0653
    9MOL    C31 1487   4.484   6.907   2.753 -0.3833 -0.1808  0.1306
    9MOL    O32 1488   4.550   7.010   2.780  0.3091 -0.3734 -0.0990
    9MOL    O33 1489   4.539   6.795   2.703  0.2211 -0.1186  1.2067
    9MOL    H34 1490   4.293   6.821   2.706  0.5440 -0.1357 -0.4905
    9MOL    H35 1491   4.221   6.790   2.940 -0.0178 -2.7894  0.8681
    9MOL    H36 1492   4.370   6.706   2.904 -2.4786 -0.3463 -1.3229
    9MOL    H37 1493   4.364   6.861   2.996  1.2821 -1.4938  0.4558
    9MOL    C38 1494   4.673   6.774   2.666  1.2288 -0.1486  0.0153
    9MOL    C39 1495   4.667   6.699   2.527 -1.1246  0.3241  0.3215
    9MOL    C40 1496   4.742   6.680   2.774  0.3039  0.0771 -0.0289
    9MOL    O41 1497   4.847   6.707   2.825 -0.2855 -0.1450  0.2793
    9MOL    O42 1498   4.668   6.578   2.811  0.4558 -0.1603  0.0110
    9MOL    H43 1499   4.711   6.874   2.649 -0.5571  0.8414  1.5951
    9MOL    H44 1500   4.764   6.661   2.497 -1.5763 -1.7051  1.3149
    9MOL    H45 1501   4.598   6.614   2.534  1.6583 -1.8958  1.8339
    9MOL    H46 1502   4.630   6.768   2.452  0.6870 -1.2668 -2.0775
    9MOL    C47 1503   4.693   6.498   2.928  0.1878  0.3672  0.7641
    9MOL    C48 1504   4.613   6.367   2.904 -0.1047 -0.5573 -0.1812
    9MOL    C49 1505   4.655   6.567   3.060  0.4701  0.7105  0.0348
    9MOL    O50 1506   4.618   6.688   3.064  0.4794  0.3016  0.4220
    9MOL    O51 1507   4.674   6.491   3.169 -0.2091 -0.0981 -0.1325
    9MOL    H52 1508   4.800   6.476   2.932  0.1035  0.2343  2.5854
    9MOL    H53 1509   4.634   6.327   2.805 -2.7596  0.4755 -1.1761
    9MOL    H54 1510   4.620   6.303   2.993 -1.2712  1.0740  1.1104
    9MOL    H55 1511   4.507   6.388   2.894  0.2057  0.9959 -0.3291
    9MOL    C56 1512   4.631   6.534   3.298  0.4883 -0.0161  0.0783
    9MOL    C57 1513   4.707   6.436   3.399  0.0025 -0.7521 -0.2492
    9MOL    C58 1514   4.479   6.522   3.316  0.3337  0.5423  0.2688
    9MOL    O59 1515   4.418   6.417   3.333 -0.0020  0.0720 -0.2439
    9MOL    O60 1516   4.416   6.642   3.307 -0.3445 -0.2494 -0.1709
    9MOL    H61 1517   4.653   6.640   3.308 -2.3811  0.5073  1.2452
    9MOL    H62 1518   4.663   6.337   3.392 -1.7484  0.0524 -1.1015
    9MOL    H63 1519   4.814   6.434   3.379  0.0553 -5.4185 -0.0203
    9MOL    H64 1520   4.687   6.486   3.495  1.7658  1.0400 -0.7681
    9MOL    C65 1521   4.281   6.666   3.341  0.0407  0.2429 -0.1978
    9MOL    C66 1522   4.264   6.820   3.320 -0.7375  0.1190 -0.4284
    9MOL    C67 1523   4.244   6.623   3.481 -0.0633  0.2903 -0.7130
    9MOL    O68 1524   4.165   6.527   3.506  0.3430  0.4382 -0.0832
    9MOL    O69 1525   4.306   6.701   3.566  0.2420  0.0604  0.0658
    9MOL    H70 1526   4.208   6.622   3.273 -1.4529  3.3486 -0.7159
    9MOL    H71 1527   4.303   6.855   3.225 -1.2590  0.7647 -0.4067
    9MOL    H72 1528   4.159   6.850   3.326 -0.5636  0.5890  0.2930
    9MOL    H73 1529   4.318   6.892   3.381 -1.4883  0.2076  0.1343
    9MOL    C74 1530   4.265   6.723   3.706  0.0642  0.2922  0.3697
    9MOL    C75 1531   4.377   6.795   3.777 -0.4346 -0.6114  0.8426
    9MOL    C76 1532   4.192   6.607   3.778  0.4874 -0.4569  0.4377
    9MOL    O77 1533   4.067   6.604   3.762  0.4831 -0.1086 -0.2905
    9MOL    O78 1534   4.274   6.532   3.860 -0.2358 -0.2937  0.0699
    9MOL    H79 1535   4.183   6.793   3.689 -0.0258  0.1516  0.2340
    9MOL    H80 1536   4.332   6.833   3.869 -0.9164  1.0061 -0.0482
    9MOL    H81 1537   4.456   6.725   3.802  1.8179  0.8366 -1.9621
    9MOL    H82 1538   4.425   6.872   3.716  2.2788 -1.9119  1.2374
    9MOL    C83 1539   4.219   6.449   3.960 -0.3796  0.7907  0.1990
    9MOL    C84 1540   4.156   6.523   4.077  0.0023  0.0645 -0.1435
    9MOL    C85 1541   4.341   6.372   4.011  0.4292  0.0444  1.1278
    9MOL    O86 1542   4.411   6.407   4.103 -0.6388 -0.0434 -0.4261
    9MOL    O87 1543   4.363   6.259   3.938 -0.4658 -0.4759  0.0051
    9MOL    H88 1544   4.143   6.384   3.917  0.3572  1.0915 -1.6217
    9MOL    H89 1545   4.078   6.592   4.044  0.9505 -0.3497 -3.4351
    9MOL    H90 1546   4.101   6.455   4.143 -3.2816  0.3806 -2.4375
    9MOL    H91 1547   4.236   6.574   4.130  1.6381 -1.7245 -0.8260
    9MOL    C92 1548   4.479   6.186   3.949 -0.3960 -0.1352 -0.3566
    9MOL    C93 1549   4.593   6.265   3.884  0.2669  0.1110  0.3349
    9MOL    C94 1550   4.457   6.040   3.897  0.4522 -0.1157  0.1477
    9MOL    O95 1551   4.522   5.994   3.806  0.0239 -0.1688 -0.4464
    9MOL    O96 1552   4.350   5.977   3.965 -0.4442  0.1405 -0.0203
    9MOL    H97 1553   4.503   6.181   4.055 -1.2543  1.2596 -0.0792
    9MOL    H98 1554   4.555   6.352   3.830  1.0215 -0.6286 -1.4637
    9MOL    H99 1555   4.661   6.303   3.960  0.0329  0.6965  0.2510
    9MOL   H100 1556   4.651   6.207   3.812  2.5207  2.0193  0.5496
    9MOL   C101 1557   4.313   5.844   3.936 -0.1454 -0.0307 -0.0721
    9MOL   C102 1558   4.172   5.816   3.988  0.2170  0.1212  0.2734
    9MOL   C103 1559   4.409   5.745   3.996  1.2599  0.8508 -0.6292
    9MOL   O104 1560   4.497   5.781   4.076  0.1282 -0.4647 -0.0609
    9MOL   O105 1561   4.388   5.620   3.948  0.7159  0.0135  0.1952
    9MOL   H106 1562   4.310   5.831   3.827  0.4540  2.3692 -0.4106
    9MOL   H107 1563   4.136   5.713   3.979 -2.4653  0.9323  1.1635
    9MOL   H108 1564   4.144   5.833   4.092 -1.9446 -1.2064 -0.0705
    9MOL   H109 1565   4.097   5.878   3.939 -0.0130  0.2338  0.7629
    9MOL   C110 1566   4.469   5.513   4.009  0.3370  0.2969 -0.7005
    9MOL   C111 1567   4.489   5.392   3.916 -0.2814  0.0206  0.6069
    9MOL   C112 1568   4.403   5.466   4.146 -0.1287  0.4819  0.0112
    9MOL   O113 1569   4.279   5.479   4.167  0.0536  0.4557  0.0395
    9MOL   O114 1570   4.488   5.402   4.224 -0.1466  0.2056 -0.4026
    9MOL   H115 1571   4.571   5.543   4.032  0.9338 -0.8690 -1.7482
    9MOL   H116 1572   4.403   5.366   3.854  0.6815 -3.0803  0.4892
    9MOL   H117 1573   4.575   5.404   3.850 -0.7913 -0.8796 -0.2296
    9MOL   H118 1574   4.495   5.301   3.976 -1.8888  0.0964  0.9165
    9MOL   C119 1575   4.446   5.327   4.344 -0.5037  0.0600 -0.2252
    9MOL   C120 1576   4.560   5.249   4.409  0.0458 -0.5435  0.2518
    9MOL   C121 1577   4.328   5.227   4.317  0.1749 -0.2382 -0.8256
    9MOL   O122 1578   4.218   5.236   4.374  0.0454  0.5833  0.5031
    9MOL   O123 1579   4.351   5.131   4.222  0.6313  0.4808 -0.5815
    9MOL   H124 1580   4.409   5.402   4.414  1.5612  1.0818 -0.1890
    9MOL   H125 1581   4.654   5.300   4.428 -0.8103  1.0191  0.3362
    9MOL   H126 1582   4.527   5.193   4.497  0.4476  0.4858  1.0754
    9MOL   H127 1583   4.592   5.163   4.351 -1.2342 -0.5055 -0.5228
    9MOL   C128 1584   4.249   5.043   4.174  0.2318  0.3800 -0.0285
    9MOL   C129 1585   4.325   4.920   4.126 -0.6690 -0.5715 -0.3572
    9MOL   C130 1586   4.178   5.105   4.048 -0.3000  0.3412  0.3776
    9MOL   O131 1587   4.237   5.176   3.971  0.5633  0.4701 -0.2406
    9MOL   O132 1588   4.049   5.055   4.027  0.1781  0.0435 -0.3448
    9MOL   H133 1589   4.173   5.029   4.251  0.2608  1.2147  0.1597
    9MOL   H134 1590   4.373   4.886   4.218 -0.2047 -0.0682 -0.4061
    9MOL   H135 1591   4.269   4.833   4.093 -0.5421 -0.1346 -1.7564
    9MOL   H136 1592   4.404   4.955   4.060  1.5652  0.8782  2.8986
    9MOL   C137 1593   3.997   5.043   3.900 -0.3373  0.0908  0.3739
    9MOL   C138 1594   3.849   5.003   3.930 -0.3291 -0.1980  0.5230
    9MOL   C139 1595   4.075   4.953   3.803 -0.4922  0.9779 -0.7605
    9MOL   O140 1596   4.155   4.864   3.844  0.5800 -0.4704  0.3702
    9MOL   O141 1597   4.041   4.977   3.681 -0.3464  0.3922  0.1105
    9MOL   H142 1598   4.006   5.138   3.848 -1.5983 -1.0580 -2.0179
    9MOL   H143 1599   3.783   5.089   3.944 -1.6149 -1.0015 -0.4761
    9MOL   H144 1600   3.806   4.939   3.852 -1.2585  0.7755  0.2174
    9MOL   H145 1601   3.842   4.947   4.023  1.3974  1.5543  1.7442
    9MOL   C146 1602   4.067   4.883   3.579 -0.3503 -1.3085  0.0526
    9MOL   C147 1603   4.026   4.949   3.447 -0.5625  0.4120 -0.1783
    9MOL   C148 1604   3.990   4.748   3.599  1.0456  0.2876  0.0907
    9MOL   O149 1605   3.874   4.740   3.643  0.4499 -0.3265 -0.2255
    9MOL   O150 1606   4.067   4.649   3.572  0.4324 -0.2084 -0.1723
    9MOL   H151 1607   4.175   4.869   3.577 -0.2849 -0.9423  0.8716
    9MOL   H152 1608   3.996   5.053   3.462 -0.2302  0.5286 -0.3209
    9MOL   H153 1609   4.113   4.956   3.381 -1.1416  0.2087 -0.9785
    9MOL   H154 1610   3.945   4.900   3.393 -1.6072  0.9201  0.9108
    9MOL   C155 1611   4.030   4.516   3.588  0.3705 -0.5400 -0.0372
    9MOL   C156 1612   4.160   4.429   3.587  0.1216 -0.0396  0.1663
    9MOL   C157 1613   3.935   4.472   3.475  0.8980 -0.0103  0.9276
    9MOL   O158 1614   3.928   4.523   3.360 -0.1546 -0.1430  0.0052
    9MOL   O159 1615   3.852   4.386   3.518 -0.0962 -0.2506 -0.4225
    9MOL   H160 1616   3.990   4.499   3.688 -1.0765 -3.8085 -1.1027
    9MOL   H161 1617   4.217   4.437   3.494 -0.4885 -3.1061 -0.5399
    9MOL   H162 1618   4.233   4.469   3.658 -0.0787  2.0252 -0.7539
    9MOL   H163 1619   4.134   4.326   3.613 -0.5758 -0.0439 -0.5337
    9MOL   C164 1620   3.750   4.323   3.438 -0.4902 -0.7438  0.6918
    9MOL   C165 1621   3.670   4.243   3.544 -0.3046 -0.3164 -0.4343
    9MOL   C166 1622   3.809   4.224   3.336 -0.3812 -0.0006  0.7068
    9MOL   O167 1623   3.757   4.196   3.225  0.3912 -0.3696  0.0828
    9MOL   O168 1624   3.922   4.162   3.378 -0.4971  0.0599  0.4048
    9MOL   H169 1625   3.689   4.400   3.390  1.0333  0.2825  0.3623
    9MOL   H170 1626   3.619   4.314   3.608  1.9393  3.0381 -2.1750
    9MOL   H171 1627   3.590   4.191   3.493  0.4608  0.0186 -2.0230
    9MOL   H172 1628   3.738   4.167   3.583 -0.0315 -0.9514 -2.0928
    9MOL   C173 1629   4.000   4.066   3.305 -0.5923  0.0378 -0.1058
    9MOL   C174 1630   4.000   3.937   3.385  0.2754  0.4302 -0.0962
    9MOL   C175 1631   4.138   4.127   3.272  0.4264  0.1554 -0.7516
    9MOL   O176 1632   4.246   4.084   3.308  0.1845  0.9174  0.7976
    9MOL   O177 1633   4.129   4.237   3.199 -0.2152  0.1060 -0.4284
    9MOL   H178 1634   3.949   4.045   3.211 -1.2789 -0.9015  0.4722
    9MOL   H179 1635   4.042   3.942   3.486 -0.7691 -0.3384  0.3827
    9MOL   H180 1636   3.904   3.888   3.372  1.0402 -0.8464 -1.1132
    9MOL   H181 1637   4.054   3.865   3.324 -1.0535 -0.0678 -0.6967
    9MOL   H182 1638   4.218   4.268   3.195 -0.8760  2.1085 -0.0398
   10MOL     C1 1639   6.773   5.484   4.855 -0.3113  0.3386  0.4298
   10MOL     C2 1640   6.927   5.465   4.870 -0.5838 -0.6698 -0.0814
   10MOL     C3 1641   6.725   5.615   4.893  0.8171  0.2693 -0.0927
   10MOL     O4 1642   6.629   5.660   4.836 -0.1700  0.1837 -0.4163
   10MOL     O5 1643   6.785   5.675   4.998 -0.1565 -0.0208  0.3708
   10MOL     H6 1644   6.755   5.470   4.749  0.1865  0.9283  0.2686
   10MOL     H7 1645   6.951   5.443   4.974 -1.6624 -0.7232  0.1561
   10MOL     H8 1646   6.974   5.389   4.809  1.6356  2.2349 -2.1721
   10MOL     H9 1647   6.986   5.554   4.847 -1.5208 -0.3192 -1.1426
   10MOL    H10 1648   6.706   5.413   4.905 -1.5062  1.7697  0.8917
   10MOL    C11 1649   6.745   5.813   5.032 -0.2491 -0.0677 -0.0432
   10MOL    C12 1650   6.865   5.871   5.112  0.6460 -0.9550 -0.1080
   10MOL    C13 1651   6.613   5.806   5.113 -0.5148 -0.0828  0.4079
   10MOL    O14 1652   6.505   5.833   5.059  0.4393  0.2276  0.1961
   10MOL    O15 1653   6.630   5.765   5.244  0.1572 -0.4129 -0.0741
   10MOL    H16 1654   6.734   5.869   4.939  1.2021 -0.7459 -0.6441
   10MOL    H17 1655   6.878   5.832   5.212  1.3347 -0.9061 -0.1770
   10MOL    H18 1656   6.961   5.863   5.061  1.1818 -1.5485  0.9788
   10MOL    H19 1657   6.852   5.979   5.120  0.1301 -1.0088 -0.1673
   10MOL    C20 1658   6.528   5.778   5.340 -0.9059  0.1114 -1.0121
   10MOL    C21 1659   6.596   5.733   5.467 -0.1573  0.9014 -0.1756
   10MOL    C22 1660   6.398   5.718   5.303 -0.0234 -0.1736  0.7896
   10MOL    O23 1661   6.293   5.786   5.327  0.5516 -0.2903 -0.1349
   10MOL    O24 1662   6.408   5.593   5.257  0.4087  0.3986 -0.6361
   10MOL    H25 1663   6.506   5.884   5.359 -0.9589  0.0352 -0.6381
   10MOL    H26 1664   6.663   5.813   5.499  1.2609 -0.4431  0.2895
   10MOL    H27 1665   6.527   5.728   5.552  0.6957  0.6672  0.5131
   10MOL    H28 1666   6.644   5.635   5.461 -1.5741  0.0739  1.4658
   10MOL    C29 1667   6.310   5.538   5.166 -0.3648 -0.0656 -0.3040
   10MOL    C30 1668   6.211   5.458   5.251 -0.0459 -0.0724  0.6258
   10MOL    C31 1669   6.373   5.448   5.055 -0.2217 -0.5616 -0.6936
   10MOL    O32 1670   6.489   5.408   5.070 -0.5081 -0.5964 -0.3188
   10MOL    O33 1671   6.298   5.398   4.969  0.3378  0.6837 -0.1927
   10MOL    H34 1672   6.265   5.623   5.115  1.2692 -0.1946 -2.0381
   10MOL    H35 1673   6.253   5.390   5.325  0.6259  0.4574  0.7318
   10MOL    H36 1674   6.142   5.523   5.305  0.4063 -0.9921  2.3282
   10MOL    H37 1675   6.141   5.407   5.184  2.3419 -0.4321 -1.6552
   10MOL    C38 1676   6.330   5.276   4.903  0.5994  0.2259 -0.3314
   10MOL    C39 1677   6.231   5.278   4.784  0.4560  0.1475 -0.8110
   10MOL    C40 1678   6.325   5.157   5.000 -0.0923 -0.0525 -0.0844
   10MOL    O41 1679   6.224   5.135   5.071 -0.4958 -0.3594 -0.2440
   10MOL    O42 1680   6.438   5.083   5.014  0.0766 -0.2755 -0.3282
   10MOL    H43 1681   6.430   5.276   4.859  0.4861 -1.5826 -0.6502
   10MOL    H44 1682   6.130   5.298   4.820  1.5128 -1.9863  3.7113
   10MOL    H45 1683   6.252   5.356   4.712 -1.6821  0.3749 -1.2169
   10MOL    H46 1684   6.227   5.180   4.737  2.1143  0.7413 -2.2292
   10MOL    C47 1685   6.455   4.987   5.120  0.1299 -0.4412  0.5621
   10MOL    C48 1686   6.364   4.863   5.107 -0.5472 -0.7168 -0.0341
   10MOL    C49 1687   6.459   5.054   5.262  0.0555 -0.1678  0.0377
   10MOL    O50 1688   6.375   5.014   5.340  0.2838  0.1342  0.4374
   10MOL    O51 1689   6.552   5.150   5.288 -0.0470 -0.0424  0.5216
   10MOL    H52 1690   6.554   4.943   5.111  0.2246 -0.3196  1.0196
   10MOL    H53 1691   6.370   4.812   5.011 -1.5611  0.0167 -0.4930
   10MOL    H54 1692   6.391   4.787   5.180  0.0406 -0.0100  0.4832
   10MOL    H55 1693   6.262   4.897   5.126 -0.9435 -1.4865 -0.7640
   10MOL    C56 1694   6.571   5.193   5.417 -0.8884  0.0430 -0.1531
   10MOL    C57 1695   6.657   5.325   5.425 -0.1711  0.6234 -0.3628
   10MOL    C58 1696   6.644   5.080   5.490 -0.0089 -0.9331 -0.3116
   10MOL    O59 1697   6.742   5.032   5.437 -0.1069 -0.7934 -0.2849
   10MOL    O60 1698   6.589   5.049   5.611  0.7228  0.0461 -0.0278
   10MOL    H61 1699   6.474   5.196   5.468 -2.1258  0.2356 -2.4773
   10MOL    H62 1700   6.657   5.361   5.528 -0.4600 -2.0854  0.6152
   10MOL    H63 1701   6.753   5.310   5.375  0.7303 -1.1208  1.7538
   10MOL    H64 1702   6.596   5.403   5.380  0.0454  1.4731  0.7725
   10MOL    C65 1703   6.632   4.935   5.688  0.3810  0.3658  0.2021
   10MOL    C66 1704   6.595   4.802   5.614 -0.1617 -0.6171 -0.7690
   10MOL    C67 1705   6.568   4.942   5.824 -0.5424 -0.4055 -0.1661
   10MOL    O68 1706   6.485   4.866   5.867 -0.2238  0.1732 -0.5088
   10MOL    O69 1707   6.624   5.049   5.894 -0.0397 -0.3507 -0.3719
   10MOL    H70 1708   6.741   4.933   5.686  0.3604  0.5005 -1.2873
   10MOL    H71 1709   6.487   4.788   5.602 -0.2689  0.1391 -0.6795
   10MOL    H72 1710   6.630   4.794   5.511  0.7770 -3.5176 -0.2669
   10MOL    H73 1711   6.628   4.713   5.667  0.1348 -0.7015 -1.0930
   10MOL    C74 1712   6.583   5.069   6.029 -0.1015  0.1835 -0.3590
   10MOL    C75 1713   6.473   5.174   6.025 -0.2060 -0.6881 -0.9555
   10MOL    C76 1714   6.702   5.132   6.109  0.3960  0.8077 -0.0125
   10MOL    O77 1715   6.797   5.184   6.052  0.3699 -0.1282  0.3535
   10MOL    O78 1716   6.679   5.118   6.234  1.0205  0.7491 -0.2125
   10MOL    H79 1717   6.539   4.982   6.077  0.0934  0.0101 -0.4913
   10MOL    H80 1718   6.430   5.187   6.125  0.3849 -0.2969 -0.7492
   10MOL    H81 1719   6.505   5.269   5.984  1.8661 -0.3262  1.3680
   10MOL    H82 1720   6.390   5.129   5.971 -1.8131  0.7254  0.2848
   10MOL    C83 1721   6.781   5.141   6.334 -0.0861  0.6292 -0.5271
   10MOL    C84 1722   6.778   5.016   6.424 -0.2163 -0.3159 -0.0178
   10MOL    C85 1723   6.721   5.258   6.424 -0.1272 -0.5297 -0.0149
   10MOL    O86 1724   6.606   5.269   6.462 -0.2741 -0.2508 -0.5157
   10MOL    O87 1725   6.811   5.350   6.447  0.2001 -0.2215  0.1249
   10MOL    H88 1726   6.883   5.157   6.299  0.3749 -2.2797 -0.6571
   10MOL    H89 1727   6.834   5.041   6.514 -1.3344  0.5008  0.4659
   10MOL    H90 1728   6.676   4.993   6.455  0.1885  0.6468  2.0898
   10MOL    H91 1729   6.825   4.927   6.381 -0.4908 -1.1417  1.3804
   10MOL    C92 1730   6.764   5.479   6.506  0.1799  0.4323  0.0544
   10MOL    C93 1731   6.694   5.571   6.406 -0.2448  0.3573  0.4659
   10MOL    C94 1732   6.877   5.559   6.571 -0.2408  0.1302 -0.0428
   10MOL    O95 1733   6.857   5.640   6.657 -0.6132 -0.5825  0.7106
   10MOL    O96 1734   7.001   5.524   6.518 -0.1728 -0.9332 -0.2347
   10MOL    H97 1735   6.697   5.464   6.591 -0.9110  0.7448 -0.7333
   10MOL    H98 1736   6.652   5.654   6.462  0.5805  0.4463  0.9569
   10MOL    H99 1737   6.758   5.613   6.329 -0.5549 -0.0129 -0.0009
   10MOL   H100 1738   6.613   5.517   6.357  0.9569  0.1570 -1.3618
   10MOL   C101 1739   7.125   5.567   6.581 -0.6449  0.6214  0.9203
   10MOL   C102 1740   7.247   5.523   6.500  1.0286  0.3701  0.1358
   10MOL   C103 1741   7.139   5.503   6.716 -0.4217  0.2902  0.0226
   10MOL   O104 1742   7.091   5.391   6.748 -0.2092  0.8764 -0.2419
   10MOL   O105 1743   7.218   5.582   6.788 -0.1129  0.0852  0.3706
   10MOL   H106 1744   7.117   5.674   6.605 -0.3890  0.8869 -0.1680
   10MOL   H107 1745   7.334   5.570   6.546  0.3768 -0.1910  1.9742
   10MOL   H108 1746   7.255   5.419   6.469  3.2183  0.3034  0.8016
   10MOL   H109 1747   7.242   5.569   6.401 -0.7903 -1.6450 -0.7384
   10MOL   C110 1748   7.240   5.558   6.922  0.2270 -0.0549  0.0577
   10MOL   C111 1749   7.264   5.688   7.002  0.0329  0.5249  0.0757
   10MOL   C112 1750   7.353   5.460   6.937 -0.8285 -0.2356  0.1921
   10MOL   O113 1751   7.413   5.432   6.834 -0.0613  0.2499  0.1218
   10MOL   O114 1752   7.376   5.413   7.065 -0.4864  0.2530  0.4340
   10MOL   H115 1753   7.161   5.497   6.965  0.2429  0.6919  1.1936
   10MOL   H116 1754   7.254   5.664   7.108  4.5670  1.4271  0.8153
   10MOL   H117 1755   7.367   5.721   6.987  0.0666  0.3018 -0.1804
   10MOL   H118 1756   7.199   5.772   6.980 -2.3414 -0.7425  1.9748
   10MOL   C119 1757   7.496   5.345   7.092 -0.6601 -0.1672 -0.0618
   10MOL   C120 1758   7.460   5.282   7.228  0.0613 -0.1294 -0.1709
   10MOL   C121 1759   7.612   5.444   7.101 -0.6103  0.0716  0.2539
   10MOL   O122 1760   7.715   5.429   7.031  0.0521  0.2537  0.3279
   10MOL   O123 1761   7.593   5.532   7.206 -0.1000  0.0355 -0.3100
   10MOL   H124 1762   7.528   5.268   7.022 -0.8997 -1.2680  1.0171
   10MOL   H125 1763   7.384   5.204   7.224  0.3577 -0.4411  0.2517
   10MOL   H126 1764   7.546   5.229   7.268 -0.6120  0.0757  1.5787
   10MOL   H127 1765   7.434   5.350   7.310 -0.9857 -1.7701  0.8975
   10MOL   C128 1766   7.693   5.632   7.246  0.3488  0.1609 -0.2345
   10MOL   C129 1767   7.677   5.762   7.155  0.3103 -0.1740 -0.6993
   10MOL   C130 1768   7.833   5.574   7.252 -0.7598 -0.0780 -0.2115
   10MOL   O131 1769   7.931   5.643   7.220 -0.1888 -0.1246  0.0729
   10MOL   O132 1770   7.839   5.446   7.313 -0.0051  0.2221  0.2941
   10MOL   H133 1771   7.683   5.666   7.349  1.8277 -2.5448  0.8500
   10MOL   H134 1772   7.749   5.777   7.074  0.4895  1.9301 -0.1715
   10MOL   H135 1773   7.585   5.767   7.097  0.6241  2.3009 -1.0306
   10MOL   H136 1774   7.674   5.845   7.226  0.6449 -1.3832  0.7753
   10MOL   C137 1775   7.958   5.375   7.326 -0.0254 -0.4773  0.2490
   10MOL   C138 1776   7.975   5.295   7.200  0.2211  0.6208 -0.6966
   10MOL   C139 1777   7.941   5.285   7.452 -1.2875 -0.6559  0.4978
   10MOL   O140 1778   8.015   5.302   7.548 -0.1005  0.0674  0.0835
   10MOL   O141 1779   7.837   5.204   7.439 -0.6382 -0.4146 -0.5162
   10MOL   H142 1780   8.046   5.438   7.343  1.7036 -2.7636 -0.0358
   10MOL   H143 1781   8.067   5.238   7.210 -0.6362 -0.3767  2.1180
   10MOL   H144 1782   7.891   5.225   7.191  0.3485 -0.4544  4.4113
   10MOL   H145 1783   7.978   5.356   7.110 -3.0317 -0.1117 -1.3980
   10MOL   C146 1784   7.786   5.133   7.553  0.6359  0.7757 -0.6210
   10MOL   C147 1785   7.701   5.017   7.501 -0.0052 -0.4116  0.5357
   10MOL   C148 1786   7.704   5.228   7.649 -0.2822 -0.0022 -0.0299
   10MOL   O149 1787   7.721   5.220   7.778 -0.0326  0.4339  0.5978
   10MOL   O150 1788   7.628   5.309   7.582  0.3017 -0.0475 -0.5652
   10MOL   H151 1789   7.857   5.082   7.617  1.1748  0.4303 -1.4830
   10MOL   H152 1790   7.666   4.955   7.584  2.9252  0.0164  2.1774
   10MOL   H153 1791   7.628   5.054   7.429  1.6962  1.2136 -0.3859
   10MOL   H154 1792   7.772   4.962   7.440  0.3405  0.0230  0.5469
   10MOL   C155 1793   7.575   5.430   7.646 -0.2332  0.6315 -0.0431
   10MOL   C156 1794   7.464   5.482   7.555 -0.0947 -0.3661  0.1761
   10MOL   C157 1795   7.691   5.525   7.670 -0.0925  0.6998  0.1585
   10MOL   O158 1796   7.784   5.529   7.590 -0.1799 -0.3709 -0.3436
   10MOL   O159 1797   7.663   5.626   7.757  0.1069  0.3152 -0.2340
   10MOL   H160 1798   7.522   5.404   7.738 -2.9555 -0.1376 -1.7842
   10MOL   H161 1799   7.492   5.538   7.466 -0.0032 -1.2698 -0.3740
   10MOL   H162 1800   7.391   5.406   7.527  0.0879  0.2988 -2.2464
   10MOL   H163 1801   7.412   5.557   7.616 -0.0843 -0.9163  0.8653
   10MOL   C164 1802   7.769   5.720   7.782 -0.2698 -0.2884 -0.2089
   10MOL   C165 1803   7.741   5.791   7.915 -0.3528  0.2258 -0.4469
   10MOL   C166 1804   7.790   5.816   7.672 -0.0963 -0.4101  0.3684
   10MOL   O167 1805   7.710   5.833   7.584  0.1932  0.1999  0.8258
   10MOL   O168 1806   7.914   5.874   7.673 -0.0676  0.4764 -0.5164
   10MOL   H169 1807   7.858   5.659   7.796 -0.1443  0.3863  2.0690
   10MOL   H170 1808   7.672   5.875   7.907 -1.9689 -0.9948  0.4008
   10MOL   H171 1809   7.694   5.719   7.982  0.4421 -0.3374 -0.4840
   10MOL   H172 1810   7.837   5.821   7.958 -0.8081 -0.8515  1.3700
   10MOL   C173 1811   7.972   5.963   7.576 -0.8228 -0.2726 -0.4989
   10MOL   C174 1812   7.901   6.097   7.598 -0.3948  0.6329 -0.2971
   10MOL   C175 1813   7.970   5.912   7.433  0.0521 -0.8350 -0.2703
   10MOL   O176 1814   7.910   5.970   7.339 -0.2200  0.4178  0.8239
   10MOL   O177 1815   8.038   5.792   7.415 -0.6063 -1.0600 -0.0948
   10MOL   H178 1816   8.079   5.954   7.593 -0.9070  0.4375  0.4271
   10MOL   H179 1817   7.943   6.137   7.690 -0.4343  0.0509 -0.0243
   10MOL   H180 1818   7.934   6.173   7.527  0.1073 -0.2953 -1.0738
   10MOL   H181 1819   7.793   6.090   7.599 -0.4208  1.0938  0.5794
   10MOL   H182 1820   8.004   5.754   7.336  0.2686  1.3971 -1.7184
   11MOL     C1 1821   2.492   5.926   2.349  0.4758 -0.6632  0.2048
   11MOL     C2 1822   2.517   6.039   2.252 -1.0704 -0.1008  0.4034
   11MOL     C3 1823   2.350   5.926   2.404  0.0327 -0.4970 -0.2777
   11MOL     O4 1824   2.321   5.975   2.509 -0.4969 -0.2503  0.0567
   11MOL     O5 1825   2.264   5.865   2.321  0.1195 -0.0957  1.0562
   11MOL     H6 1826   2.523   5.832   2.303 -1.1302 -0.6901 -0.8403
   11MOL     H7 1827   2.435   6.053   2.182  0.2176  0.1375 -1.0642
   11MOL     H8 1828   2.530   6.138   2.295 -0.0209 -0.1932  0.3134
   11MOL     H9 1829   2.599   6.012   2.186 -1.5449  0.3544 -0.3687
   11MOL    H10 1830   2.547   5.942   2.443  0.7031  2.7016 -0.4513
   11MOL    C11 1831   2.127   5.834   2.354 -0.1857 -0.6725  0.0175
   11MOL    C12 1832   2.095   5.699   2.283 -0.5944 -0.8683 -0.3051
   11MOL    C13 1833   2.036   5.950   2.303 -1.4477  0.0657  0.6291
   11MOL    O14 1834   1.934   5.930   2.237 -0.2507  0.0424 -0.2281
   11MOL    O15 1835   2.083   6.066   2.342  0.1958 -0.1938 -0.1627
   11MOL    H16 1836   2.113   5.827   2.462 -1.3852  0.4957 -0.0518
   11MOL    H17 1837   1.994   5.672   2.314 -0.6737  0.5517  0.7514
   11MOL    H18 1838   2.104   5.700   2.174 -0.4000 -2.5397 -0.3148
   11MOL    H19 1839   2.169   5.632   2.324 -0.8912 -1.5166 -0.8204
   11MOL    C20 1840   2.011   6.186   2.322  0.5228  0.1009 -0.1966
   11MOL    C21 1841   2.127   6.290   2.325  0.4683  0.0079  0.1927
   11MOL    C22 1842   1.894   6.213   2.416 -0.5314 -0.5245 -0.5984
   11MOL    O23 1843   1.900   6.294   2.509  0.1219 -0.2908  0.1642
   11MOL    O24 1844   1.780   6.143   2.383  0.1456  0.1420  0.2710
   11MOL    H25 1845   1.962   6.174   2.225 -1.4169  0.2274  0.7267
   11MOL    H26 1846   2.205   6.244   2.265  1.9642  1.3913  1.0365
   11MOL    H27 1847   2.106   6.387   2.280 -0.3534  0.0441  0.6486
   11MOL    H28 1848   2.167   6.321   2.422 -1.4573  1.5316  0.5293
   11MOL    C29 1849   1.671   6.140   2.476  0.2514  0.5813  0.8104
   11MOL    C30 1850   1.576   6.028   2.437 -0.6142 -0.7946  0.2642
   11MOL    C31 1851   1.597   6.277   2.493 -0.4088 -0.1963  0.0652
   11MOL    O32 1852   1.629   6.376   2.432  0.1828  0.0163 -0.0356
   11MOL    O33 1853   1.500   6.265   2.586  0.1594  0.4554 -0.0901
   11MOL    H34 1854   1.704   6.109   2.575 -3.5825 -2.4604  1.2215
   11MOL    H35 1855   1.507   6.075   2.367 -0.2513 -1.1421 -0.3236
   11MOL    H36 1856   1.624   5.951   2.378 -1.1090 -0.5522 -0.4632
   11MOL    H37 1857   1.517   5.990   2.521  0.0074  0.9610  1.5225
   11MOL    C38 1858   1.410   6.375   2.616 -0.5505  0.2877  0.4743
   11MOL    C39 1859   1.340   6.341   2.748  0.0763 -1.4144  0.3224
   11MOL    C40 1860   1.298   6.377   2.507 -0.1472  0.9056  0.6609
   11MOL    O41 1861   1.274   6.480   2.454 -0.7148 -0.1116  0.2644
   11MOL    O42 1862   1.248   6.260   2.484  0.3664  0.0496 -0.1115
   11MOL    H43 1863   1.464   6.469   2.632 -2.4269  1.6288 -0.8869
   11MOL    H44 1864   1.293   6.426   2.796 -0.0723 -1.7733  0.8234
   11MOL    H45 1865   1.269   6.258   2.751 -1.2185 -0.3883 -1.0603
   11MOL    H46 1866   1.420   6.304   2.812  0.1427  0.0377  1.0900
   11MOL    C47 1867   1.136   6.251   2.394  0.2283  0.2684 -0.4039
   11MOL    C48 1868   0.996   6.304   2.442 -0.3914  0.3150 -0.1937
   11MOL    C49 1869   1.125   6.106   2.343 -0.5416  0.0938 -0.3700
   11MOL    O50 1870   1.130   6.081   2.224 -0.4631  0.5746  0.1823
   11MOL    O51 1871   1.102   6.017   2.443  0.1640  0.1898 -0.3005
   11MOL    H52 1872   1.161   6.315   2.309 -0.3641  0.1950 -0.6335
   11MOL    H53 1873   0.970   6.272   2.543  0.1394  1.2494  0.2478
   11MOL    H54 1874   0.991   6.413   2.436  1.4629  0.5358  1.6868
   11MOL    H55 1875   0.921   6.277   2.368 -0.3101  1.6232 -0.7663
   11MOL    C56 1876   1.074   5.880   2.416  0.4339  0.6104 -0.2281
   11MOL    C57 1877   1.064   5.816   2.558  0.2652 -0.4433 -0.0338
   11MOL    C58 1878   1.193   5.817   2.337  1.0540 -1.2060 -0.7909
   11MOL    O59 1879   1.310   5.838   2.380 -0.2130  0.1761 -0.4701
   11MOL    O60 1880   1.156   5.761   2.229  0.0280 -0.2673  0.5692
   11MOL    H61 1881   0.979   5.864   2.366  0.6306 -0.1271 -0.3652
   11MOL    H62 1882   1.031   5.714   2.541 -1.0523 -0.3243  1.6209
   11MOL    H63 1883   1.160   5.822   2.608  0.6380  2.2963 -1.0053
   11MOL    H64 1884   1.002   5.865   2.634 -1.1202 -2.2625  0.0335
   11MOL    C65 1885   1.250   5.691   2.145 -0.2343 -0.0008 -0.0220
   11MOL    C66 1886   1.306   5.562   2.210 -0.3879  0.2187  0.1183
   11MOL    C67 1887   1.357   5.771   2.075 -0.3133 -0.6542  0.0703
   11MOL    O68 1888   1.469   5.733   2.043 -0.7275  0.1557 -0.0705
   11MOL    O69 1889   1.317   5.891   2.051 -0.2110 -0.1034 -0.7457
   11MOL    H70 1890   1.189   5.661   2.060 -2.4799  0.4362  1.3978
   11MOL    H71 1891   1.392   5.592   2.270 -1.5989  2.1390  0.9556
   11MOL    H72 1892   1.234   5.526   2.284 -0.6227  2.3054  0.9749
   11MOL    H73 1893   1.327   5.482   2.140  2.6483 -1.1853  2.5522
   11MOL    C74 1894   1.390   5.992   1.983  0.4705  0.3322  0.0733
   11MOL    C75 1895   1.455   6.082   2.090 -0.8612 -0.0182 -0.1666
   11MOL    C76 1896   1.297   6.069   1.885 -0.4685 -0.1749 -0.4669
   11MOL    O77 1897   1.194   6.016   1.839 -0.5183  0.1871  0.5061
   11MOL    O78 1898   1.332   6.190   1.849 -0.3208  0.2883  0.7381
   11MOL    H79 1899   1.464   5.967   1.907  0.5310 -1.2470  0.6429
   11MOL    H80 1900   1.506   6.168   2.048  1.8194 -1.4415  0.0754
   11MOL    H81 1901   1.382   6.110   2.167 -1.4847  0.5183 -0.9496
   11MOL    H82 1902   1.534   6.019   2.131 -0.7480  0.3219  0.1509
   11MOL    C83 1903   1.243   6.274   1.782  0.2222 -0.3272 -0.4961
   11MOL    C84 1904   1.262   6.248   1.630 -0.4898  0.0790 -0.7542
   11MOL    C85 1905   1.280   6.421   1.827 -0.0366 -0.9057  1.3014
   11MOL    O86 1906   1.383   6.483   1.793 -0.0623  0.7739 -0.1218
   11MOL    O87 1907   1.193   6.476   1.913 -0.4139  0.2038 -0.3600
   11MOL    H88 1908   1.137   6.255   1.802  0.4932 -1.0031  0.3543
   11MOL    H89 1909   1.240   6.144   1.606 -0.2244 -0.3030  0.6252
   11MOL    H90 1910   1.191   6.317   1.585 -0.1899  1.1746  0.4329
   11MOL    H91 1911   1.361   6.281   1.600 -0.5365  0.8850 -0.0229
   11MOL    C92 1912   1.225   6.602   1.967 -0.7868 -1.0281  0.1545
   11MOL    C93 1913   1.208   6.608   2.121  0.1296 -0.5629 -0.2696
   11MOL    C94 1914   1.130   6.701   1.904 -0.4219  0.3289 -0.2935
   11MOL    O95 1915   1.028   6.665   1.850  0.0815  0.2242 -0.1169
   11MOL    O96 1916   1.173   6.832   1.907  0.0877  0.0161  0.0439
   11MOL    H97 1917   1.324   6.645   1.955 -0.7137 -0.9338  1.0374
   11MOL    H98 1918   1.219   6.511   2.169  1.4535  0.3509  1.3694
   11MOL    H99 1919   1.286   6.673   2.162 -3.2516  3.1380  0.5863
   11MOL   H100 1920   1.108   6.648   2.141  1.3860  2.1144  1.0317
   11MOL   C101 1921   1.086   6.933   1.853  0.4473 -0.3784 -0.2383
   11MOL   C102 1922   1.154   7.054   1.793  0.4491  0.2583  0.8826
   11MOL   C103 1923   0.981   6.981   1.953  0.8333  0.5191  0.4202
   11MOL   O104 1924   1.010   6.998   2.074 -0.0154  0.0457 -0.7961
   11MOL   O105 1925   0.861   7.009   1.892  0.4013 -0.1153 -0.0148
   11MOL   H106 1926   1.031   6.880   1.775  0.6976  0.2825 -0.8666
   11MOL   H107 1927   1.093   7.080   1.706 -1.5492 -2.1197  1.5283
   11MOL   H108 1928   1.153   7.140   1.860  0.6718  2.2711 -1.6193
   11MOL   H109 1929   1.251   7.020   1.755  0.6110  0.4730  1.1010
   11MOL   C110 1930   0.734   7.057   1.954  0.0444  0.1506  0.2020
   11MOL   C111 1931   0.746   7.181   2.037 -0.2392  0.2758  0.0567
   11MOL   C112 1932   0.681   6.946   2.048  0.0991 -0.3848  0.3967
   11MOL   O113 1933   0.739   6.838   2.066 -0.0202  0.2982  0.2286
   11MOL   O114 1934   0.566   6.983   2.116  0.2604  0.0080 -0.0961
   11MOL   H115 1935   0.670   7.064   1.866  1.5263  0.4995 -0.8714
   11MOL   H116 1936   0.652   7.218   2.077 -0.8496 -1.2174  0.0369
   11MOL   H117 1937   0.809   7.154   2.121 -0.6497 -1.9191 -0.3130
   11MOL   H118 1938   0.796   7.259   1.980  1.9494 -2.2683 -1.6253
   11MOL   C119 1939   0.523   6.905   2.224 -1.5015 -0.7108 -0.1931
   11MOL   C120 1940   0.370   6.897   2.222  0.5853  0.4865 -0.0647
   11MOL   C121 1941   0.590   6.956   2.352 -0.0995  0.1885  0.4390
   11MOL   O122 1942   0.614   6.885   2.454  0.0358 -0.3824 -0.0007
   11MOL   O123 1943   0.610   7.090   2.350 -0.0725  0.0789  0.2312
   11MOL   H124 1944   0.558   6.802   2.217  1.4695  0.3538 -1.7872
   11MOL   H125 1945   0.330   6.998   2.214  1.4447  0.7677 -0.9834
   11MOL   H126 1946   0.328   6.846   2.135  1.7102 -1.0060  0.2342
   11MOL   H127 1947   0.324   6.844   2.306 -0.0984  0.4857 -0.4365
   11MOL   C128 1948   0.672   7.167   2.448 -0.6840 -0.1068 -0.1413
   11MOL   C129 1949   0.676   7.317   2.402 -0.3687  0.7164  0.3657
   11MOL   C130 1950   0.812   7.111   2.477 -0.2115 -0.7796 -0.0420
   11MOL   O131 1951   0.892   7.077   2.386 -0.2850 -0.4340 -0.9566
   11MOL   O132 1952   0.826   7.102   2.608 -0.2824  0.2275  0.2779
   11MOL   H133 1953   0.598   7.170   2.528 -1.3134  0.3238 -0.7253
   11MOL   H134 1954   0.744   7.316   2.317 -1.3521  1.5189 -0.4431
   11MOL   H135 1955   0.583   7.361   2.366 -1.3176 -1.2673  0.3536
   11MOL   H136 1956   0.719   7.382   2.478  1.6996  0.6569 -0.7222
   11MOL   C137 1957   0.958   7.104   2.673  0.8320  0.8326 -0.0304
   11MOL   C138 1958   0.951   7.025   2.802 -0.0189 -0.6908  0.0281
   11MOL   C139 1959   0.984   7.252   2.700  0.4863  0.6481  0.0372
   11MOL   O140 1960   0.894   7.332   2.718 -0.1869 -0.6793  0.2973
   11MOL   O141 1961   1.111   7.286   2.710 -0.5207 -0.5051 -0.6054
   11MOL   H142 1962   1.036   7.065   2.608  0.3977 -0.2109  0.0538
   11MOL   H143 1963   0.963   6.921   2.773 -0.3614 -1.3574  2.2022
   11MOL   H144 1964   1.026   7.064   2.871 -2.2726  2.7148  0.7041
   11MOL   H145 1965   0.858   7.036   2.857 -0.1743 -2.6124  0.1778
   11MOL   C146 1966   1.150   7.425   2.754  0.2999 -0.1449  0.3187
   11MOL   C147 1967   1.303   7.413   2.759  0.2812  0.3359 -0.3095
   11MOL   C148 1968   1.107   7.449   2.903 -0.6730  0.0441  0.0003
   11MOL   O149 1969   1.050   7.358   2.974 -0.2188  0.2691 -0.2244
   11MOL   O150 1970   1.131   7.577   2.944  0.5019 -0.5667 -0.3646
   11MOL   H151 1971   1.115   7.496   2.679 -0.0619  0.5779  1.1657
   11MOL   H152 1972   1.349   7.364   2.844  1.1692  0.1167 -0.9132
   11MOL   H153 1973   1.334   7.349   2.676  0.6363  0.8933 -0.6135
   11MOL   H154 1974   1.358   7.506   2.747 -1.0353  1.3017  1.0820
   11MOL   C155 1975   1.097   7.626   3.076  0.8888  0.2997 -0.2147
   11MOL   C156 1976   1.091   7.772   3.074  0.4581 -0.5755  0.0331
   11MOL   C157 1977   1.190   7.579   3.192  0.0283 -0.2610 -1.1913
   11MOL   O158 1978   1.149   7.569   3.309 -0.2583 -0.1773 -0.3029
   11MOL   O159 1979   1.312   7.552   3.144  0.4101  0.2225  0.0450
   11MOL   H160 1980   1.000   7.580   3.098  1.3872 -2.8893 -4.0455
   11MOL   H161 1981   1.191   7.813   3.057  0.4213  0.4850  2.2412
   11MOL   H162 1982   1.030   7.804   2.990  0.8667 -1.1674 -0.4932
   11MOL   H163 1983   1.039   7.815   3.159  0.7734  0.2791 -0.2021
   11MOL   C164 1984   1.418   7.525   3.236  0.0141 -0.3732  0.1614
   11MOL   C165 1985   1.544   7.560   3.157 -0.3578  0.3100  0.4598
   11MOL   C166 1986   1.428   7.377   3.277  0.4872  0.1199  0.8375
   11MOL   O167 1987   1.420   7.345   3.395 -0.0699  0.3587  0.0335
   11MOL   O168 1988   1.428   7.287   3.172 -0.2116 -0.7498  0.4447
   11MOL   H169 1989   1.406   7.586   3.326 -1.8512 -0.1809 -0.2003
   11MOL   H170 1990   1.631   7.569   3.222 -0.2078  1.0532  0.1660
   11MOL   H171 1991   1.565   7.492   3.074  0.2553  1.5006 -0.3767
   11MOL   H172 1992   1.533   7.659   3.114  0.8182  0.3048  0.1100
   11MOL   C173 1993   1.436   7.148   3.196  0.6257 -0.3572 -0.8963
   11MOL   C174 1994   1.589   7.120   3.193  0.3016  0.0507  0.9038
   11MOL   C175 1995   1.358   7.067   3.086  0.9515  0.7269  0.9926
   11MOL   O176 1996   1.279   6.974   3.112 -0.0702  0.1547  0.1864
   11MOL   O177 1997   1.385   7.108   2.956  0.4628  0.4465 -0.5244
   11MOL   H178 1998   1.399   7.129   3.297  0.1287 -2.4093 -1.4456
   11MOL   H179 1999   1.639   7.147   3.100 -1.6608 -1.1290 -0.5488
   11MOL   H180 2000   1.642   7.169   3.274  1.1308  0.6225  0.0125
   11MOL   H181 2001   1.611   7.013   3.193 -0.0646 -0.0429 -1.2101
   11MOL   H182 2002   1.339   7.065   2.886  0.4139  0.6078 -0.5901
   12MOL     C1 2003   2.038   2.760   5.927  0.5032  0.0093  1.4450
   12MOL     C2 2004   2.172   2.800   5.852 -0.8477  0.3293 -0.4708
   12MOL     C3 2005   1.931   2.735   5.822  0.0396  0.0911 -0.7669
   12MOL     O4 2006   1.854   2.820   5.794  0.2025 -0.1130  1.1876
   12MOL     O5 2007   1.938   2.607   5.777 -0.0152 -0.0337  0.5109
   12MOL     H6 2008   2.052   2.671   5.989 -0.1227 -0.4680  0.9155
   12MOL     H7 2009   2.228   2.710   5.825  1.0915  2.1563 -2.8331
   12MOL     H8 2010   2.169   2.858   5.759  0.2758  1.4095  0.1469
   12MOL     H9 2011   2.233   2.858   5.921 -0.9393 -0.8274  0.6000
   12MOL    H10 2012   2.004   2.840   5.992 -1.0303  1.3958 -0.9955
   12MOL    C11 2013   1.839   2.556   5.687  0.0914 -0.5739  0.1405
   12MOL    C12 2014   1.875   2.407   5.664  0.6275  0.4835 -0.3809
   12MOL    C13 2015   1.825   2.636   5.559  1.2641  0.2146 -0.9890
   12MOL    O14 2016   1.721   2.651   5.495 -0.7954 -0.2167  0.0229
   12MOL    O15 2017   1.945   2.669   5.527 -0.3431  0.2341 -0.5151
   12MOL    H16 2018   1.740   2.572   5.731 -0.1858 -1.8485 -0.0064
   12MOL    H17 2019   1.802   2.354   5.603  0.0267  0.4350  0.3652
   12MOL    H18 2020   1.968   2.393   5.609  0.8963 -4.7739  1.1705
   12MOL    H19 2021   1.881   2.360   5.762  0.3514 -0.4784 -0.8271
   12MOL    C20 2022   1.969   2.741   5.400  0.1050 -0.5507 -0.6561
   12MOL    C21 2023   2.121   2.772   5.382 -0.5076  0.5109 -0.0114
   12MOL    C22 2024   1.889   2.875   5.385 -0.0197 -0.5985  0.1205
   12MOL    O23 2025   1.814   2.901   5.288  0.1540 -0.1639 -0.0929
   12MOL    O24 2026   1.926   2.963   5.475  0.7035 -0.3079 -0.0815
   12MOL    H25 2027   1.942   2.676   5.317 -1.6930 -1.1496  0.3558
   12MOL    H26 2028   2.153   2.807   5.480 -0.8539 -0.8859  0.6156
   12MOL    H27 2029   2.168   2.684   5.339  0.4212  0.6658  0.6781
   12MOL    H28 2030   2.138   2.854   5.313 -0.4519  0.2966 -0.2512
   12MOL    C29 2031   1.878   3.099   5.480  0.0436 -0.4753 -0.8783
   12MOL    C30 2032   1.987   3.188   5.547  0.8111  0.2232 -0.2173
   12MOL    C31 2033   1.742   3.105   5.552 -0.9082 -0.2450  0.1817
   12MOL    O32 2034   1.699   3.000   5.606 -0.1385 -0.3774  0.0219
   12MOL    O33 2035   1.689   3.231   5.546 -0.1821 -0.0316 -0.2520
   12MOL    H34 2036   1.868   3.133   5.378  1.0221 -1.3396 -1.2769
   12MOL    H35 2037   1.972   3.294   5.526  1.4219  0.8008  2.0623
   12MOL    H36 2038   2.006   3.176   5.654  0.9362  0.7434 -0.1762
   12MOL    H37 2039   2.087   3.170   5.509  0.1440 -1.1724 -1.3582
   12MOL    C38 2040   1.577   3.268   5.625 -0.4464  0.0884 -0.1409
   12MOL    C39 2041   1.492   3.361   5.542 -0.6580 -0.2478  0.3455
   12MOL    C40 2042   1.629   3.333   5.757  0.1351  0.3691  0.9608
   12MOL    O41 2043   1.603   3.452   5.792 -0.3208 -0.3317  0.0865
   12MOL    O42 2044   1.714   3.246   5.824 -0.3119  0.1147 -0.4569
   12MOL    H43 2045   1.517   3.186   5.664 -1.6797  0.9380 -0.2234
   12MOL    H44 2046   1.446   3.309   5.458 -0.4090  1.3658 -0.8152
   12MOL    H45 2047   1.405   3.392   5.600 -0.5970  0.1779  0.2105
   12MOL    H46 2048   1.545   3.453   5.516 -2.3065  0.8043  0.5631
   12MOL    C47 2049   1.779   3.296   5.940  0.4171  0.2380 -0.4225
   12MOL    C48 2050   1.906   3.199   5.951 -1.2611 -0.2529  0.2697
   12MOL    C49 2051   1.702   3.275   6.076  0.1423  0.1435  0.4531
   12MOL    O50 2052   1.610   3.190   6.089  0.0112 -0.3201 -0.2023
   12MOL    O51 2053   1.740   3.360   6.170  0.2555  0.0969  0.0592
   12MOL    H52 2054   1.806   3.401   5.936 -1.3226  0.9230  3.2783
   12MOL    H53 2055   1.880   3.093   5.950  1.4602 -0.9339 -0.9692
   12MOL    H54 2056   1.970   3.210   5.864 -3.8119 -0.3754 -1.6920
   12MOL    H55 2057   1.964   3.209   6.043  0.1492 -0.2744 -0.6051
   12MOL    C56 2058   1.686   3.353   6.307  0.5815  0.4029  0.7536
   12MOL    C57 2059   1.738   3.483   6.366  0.2447 -0.7658 -0.8930
   12MOL    C58 2060   1.736   3.238   6.390  0.5706  0.0049  0.6438
   12MOL    O59 2061   1.831   3.170   6.350 -0.8877 -0.5156 -0.2138
   12MOL    O60 2062   1.656   3.215   6.496 -0.0802 -0.7036  0.1686
   12MOL    H61 2063   1.578   3.354   6.302  0.6276  0.8331 -0.3079
   12MOL    H62 2064   1.847   3.473   6.363  0.5296  1.9547 -1.1247
   12MOL    H63 2065   1.709   3.568   6.304 -0.4761 -1.7381 -1.8984
   12MOL    H64 2066   1.703   3.500   6.468  2.4214 -0.1489 -0.2193
   12MOL    C65 2067   1.690   3.122   6.598  0.5988 -0.2986 -0.7827
   12MOL    C66 2068   1.587   3.120   6.709  0.0011 -0.1713 -0.2618
   12MOL    C67 2069   1.823   3.161   6.659 -0.0752 -0.4017  0.5692
   12MOL    O68 2070   1.871   3.278   6.657 -0.2015 -0.4169 -0.2430
   12MOL    O69 2071   1.894   3.052   6.708  0.2669 -0.0593 -0.2575
   12MOL    H70 2072   1.703   3.023   6.553  0.4197 -0.2223 -1.0047
   12MOL    H71 2073   1.610   3.056   6.794  0.2882  1.0919  0.6410
   12MOL    H72 2074   1.591   3.213   6.767  1.2671 -2.0764  2.8078
   12MOL    H73 2075   1.486   3.102   6.675 -0.3899 -1.8115  1.7211
   12MOL    C74 2076   2.007   3.083   6.785 -0.5733  0.2265 -0.5696
   12MOL    C75 2077   2.112   2.971   6.790  0.1151  0.0413  0.4995
   12MOL    C76 2078   1.974   3.128   6.924  0.1686 -0.2955 -0.0916
   12MOL    O77 2079   2.016   3.233   6.971 -0.8784  0.8345  0.4239
   12MOL    O78 2080   1.884   3.043   6.980  0.6701 -0.0183  0.0295
   12MOL    H79 2081   2.060   3.168   6.742  0.1193  0.5545  0.8993
   12MOL    H80 2082   2.069   2.878   6.827  0.9387  0.0954  1.6199
   12MOL    H81 2083   2.132   2.957   6.684 -1.3284 -1.2424  0.3876
   12MOL    H82 2084   2.212   2.983   6.832 -0.9175  2.2150  2.4619
   12MOL    C83 2085   1.841   3.076   7.116  0.1755  0.7292 -0.2730
   12MOL    C84 2086   1.757   2.953   7.154 -0.2519 -0.6354 -0.2068
   12MOL    C85 2087   1.764   3.202   7.132 -0.8083  0.5257 -0.1555
   12MOL    O86 2088   1.710   3.267   7.045  0.9241 -0.5223 -0.1596
   12MOL    O87 2089   1.767   3.237   7.259  0.4649 -0.5191  0.0571
   12MOL    H88 2090   1.930   3.081   7.178  0.2581 -0.8448 -0.2383
   12MOL    H89 2091   1.811   2.859   7.160 -0.1075 -0.6313 -1.2787
   12MOL    H90 2092   1.724   2.958   7.258  1.1872 -2.0162  0.3233
   12MOL    H91 2093   1.681   2.944   7.076  0.2338 -1.8984 -0.5372
   12MOL    C92 2094   1.702   3.358   7.305 -0.0402 -0.0201 -0.2420
   12MOL    C93 2095   1.784   3.427   7.412 -0.0090  0.0754  0.2403
   12MOL    C94 2096   1.564   3.311   7.354  0.4421 -0.4726  0.5174
   12MOL    O95 2097   1.509   3.210   7.316  0.3106  0.2268  0.3376
   12MOL    O96 2098   1.505   3.398   7.443  0.2818  0.2161  0.4000
   12MOL    H97 2099   1.678   3.427   7.223 -0.5004  1.6409  1.2591
   12MOL    H98 2100   1.740   3.527   7.422  2.7542  1.3084  0.3864
   12MOL    H99 2101   1.786   3.370   7.504  0.4356  0.7268  0.6330
   12MOL   H100 2102   1.883   3.451   7.372 -0.3369  1.7386  0.3592
   12MOL   C101 2103   1.384   3.365   7.510  0.9614 -0.0802  0.3480
   12MOL   C102 2104   1.337   3.493   7.566 -0.1341 -0.2332 -0.5406
   12MOL   C103 2105   1.407   3.249   7.609 -0.1352 -0.3635  0.0663
   12MOL   O104 2106   1.519   3.230   7.650  0.3149  0.5027 -0.1758
   12MOL   O105 2107   1.298   3.192   7.653  0.2024 -0.3439  0.5834
   12MOL   H106 2108   1.320   3.328   7.430  2.4016 -0.0309 -0.8498
   12MOL   H107 2109   1.241   3.484   7.616 -0.3389  1.6949 -0.5464
   12MOL   H108 2110   1.403   3.528   7.645 -1.2646  2.4100 -0.7325
   12MOL   H109 2111   1.347   3.571   7.490 -0.0625 -0.1816 -0.4774
   12MOL   C110 2112   1.308   3.091   7.756 -0.0708 -0.1649 -0.2974
   12MOL   C111 2113   1.172   3.025   7.751  0.6864 -0.0801 -0.2756
   12MOL   C112 2114   1.339   3.141   7.897  0.3038 -0.6997 -0.7342
   12MOL   O113 2115   1.333   3.258   7.929  0.8172 -0.3712  0.0837
   12MOL   O114 2116   1.368   3.037   7.981  0.2617 -0.2450 -0.9445
   12MOL   H115 2117   1.388   3.020   7.734  1.4876  1.4577  0.0381
   12MOL   H116 2118   1.150   2.982   7.654 -2.2967  0.5377  0.0849
   12MOL   H117 2119   1.153   2.941   7.818  0.4296 -0.1324 -0.4141
   12MOL   H118 2120   1.096   3.099   7.775  1.1650 -0.0328  1.1899
   12MOL   C119 2121   1.380   3.061   8.125 -0.0877  0.0472 -0.3142
   12MOL   C120 2122   1.510   3.015   0.038 -0.0890 -0.4329 -0.1072
   12MOL   C121 2123   1.263   2.999   0.054  0.6770 -0.1277  0.0354
   12MOL   O122 2124   1.276   2.933   0.158 -0.7236 -0.2040  0.3808
   12MOL   O123 2125   1.145   3.037   8.137  0.9293  0.0408  0.0596
   12MOL   H124 2126   1.379   3.167   0.002  1.6400  0.1911 -0.8380
   12MOL   H125 2127   1.522   2.908   0.022  0.5078 -0.1655 -1.6065
   12MOL   H126 2128   1.594   3.070   8.145 -0.4296 -0.3385 -0.6875
   12MOL   H127 2129   1.512   3.042   0.143  1.5191  0.0136 -0.2406
   12MOL   C128 2130   1.016   2.995   0.039  0.4702  0.0855  0.0100
   12MOL   C129 2131   0.906   3.040   8.095  0.1494 -0.1725  0.6681
   12MOL   C130 2132   0.984   3.053   0.174 -0.1204 -0.1809  0.5805
   12MOL   O131 2133   1.016   3.163   0.208  0.1010  0.2995 -0.1076
   12MOL   O132 2134   0.902   2.974   0.244  0.5464 -0.6797  0.0681
   12MOL   H133 2135   1.024   2.888   0.053 -0.9927 -0.0123  0.1223
   12MOL   H134 2136   0.809   3.010   8.135  0.9289 -2.1526  1.1297
   12MOL   H135 2137   0.914   3.145   8.066  0.9168 -0.6335 -0.8592
   12MOL   H136 2138   0.923   2.994   7.998 -1.6452  2.9946 -1.2582
   12MOL   C137 2139   0.844   3.021   0.366 -0.8725  0.2014  0.1100
   12MOL   C138 2140   0.826   2.898   0.462  0.4807 -0.2077 -0.1219
   12MOL   C139 2141   0.708   3.088   0.339  0.3984 -0.4047 -0.0850
   12MOL   O140 2142   0.677   3.103   0.218  0.0666 -0.3111  0.5235
   12MOL   O141 2143   0.629   3.117   0.447  0.0755  0.6501  0.6114
   12MOL   H142 2144   0.911   3.090   0.418  2.2327 -0.5621 -2.7025
   12MOL   H143 2145   0.758   2.829   0.412 -0.3303  0.1798  0.4478
   12MOL   H144 2146   0.922   2.846   0.470  0.8609  0.1438 -2.0922
   12MOL   H145 2147   0.790   2.930   0.560  0.6384 -0.1404 -0.0855
   12MOL   C146 2148   0.487   3.128   0.427 -0.5039  0.0315 -0.4609
   12MOL   C147 2149   0.421   3.211   0.543  0.2394 -0.5701  0.5770
   12MOL   C148 2150   0.429   2.986   0.420 -0.3476  0.3210  0.5746
   12MOL   O149 2151   0.330   2.957   0.353  0.2641 -0.8573 -0.2269
   12MOL   O150 2152   0.490   2.896   0.507  0.6482  0.3817 -0.4713
   12MOL   H151 2153   0.460   3.188   0.340 -1.2739  3.8556  2.2659
   12MOL   H152 2154   0.462   3.312   0.544 -1.9198  0.3453 -0.5156
   12MOL   H153 2155   0.315   3.216   0.519  0.4952 -1.2612 -0.7347
   12MOL   H154 2156   0.434   3.156   0.636 -0.5254  0.1228  1.0979
   12MOL   C155 2157   0.431   2.770   0.529  1.1891 -0.0366 -0.4995
   12MOL   C156 2158   0.493   2.729   0.667  0.1598  0.2212  0.1008
   12MOL   C157 2159   0.462   2.672   0.415  0.0900  0.3095 -0.6455
   12MOL   O158 2160   0.373   2.639   0.338 -0.5474  0.1626 -0.0629
   12MOL   O159 2161   0.586   2.639   0.407 -0.1870 -0.3532 -0.3655
   12MOL   H160 2162   0.324   2.784   0.545  1.6721  0.4370  2.8804
   12MOL   H161 2163   0.590   2.680   0.652  0.4144  0.8078 -0.1892
   12MOL   H162 2164   0.510   2.817   0.729 -1.0563 -0.0378  0.8157
   12MOL   H163 2165   0.433   2.663   0.729  2.6422 -1.0926  1.1707
   12MOL   C164 2166   0.645   2.571   0.292  0.3754  0.2122  0.0877
   12MOL   C165 2167   0.772   2.508   0.348 -0.0224  0.4163 -0.6486
   12MOL   C166 2168   0.677   2.676   0.178  0.0040  0.3241  0.3047
   12MOL   O167 2169   0.791   2.711   0.155 -0.2185  0.0132 -0.0317
   12MOL   O168 2170   0.561   2.717   0.111  0.4636  0.5677  0.4834
   12MOL   H169 2171   0.570   2.503   0.250 -2.6479  3.2935  0.2624
   12MOL   H170 2172   0.741   2.458   0.440 -2.4993 -1.9546 -2.6769
   12MOL   H171 2173   0.813   2.441   0.273  0.8832  0.0894  0.1290
   12MOL   H172 2174   0.850   2.579   0.376 -0.3226 -0.3430  2.3114
   12MOL   C173 2175   0.572   2.827   0.024  0.7406  0.7910  0.0226
   12MOL   C174 2176   0.433   2.892   0.018  0.4458 -0.4431 -0.2598
   12MOL   C175 2177   0.613   2.773   8.033  0.3081 -0.1381  0.0987
   12MOL   O176 2178   0.711   2.797   7.965  0.0844  0.2354 -0.2612
   12MOL   O177 2179   0.520   2.685   7.992  0.4861 -0.1878  0.0070
   12MOL   H178 2180   0.649   2.893   0.063  0.7347  0.3612  0.7894
   12MOL   H179 2181   0.350   2.821   0.016 -0.3219  0.3188  2.2635
   12MOL   H180 2182   0.414   2.947   0.110  0.2540 -2.4381  0.9310
   12MOL   H181 2183   0.422   2.971   8.091  1.9312  0.2492  0.2458
   12MOL   H182 2184   0.440   2.687   8.041  1.5338  1.3813  1.6877
   13MOL     C1 2185   1.637   5.531   5.185 -0.5496  0.4650  0.0417
   13MOL     C2 2186   1.501   5.567   5.107 -0.4502 -0.4182  0.1013
   13MOL     C3 2187   1.620   5.443   5.314 -0.1616 -0.0282  0.0673
   13MOL     O4 2188   1.509   5.399   5.350 -0.4603 -0.3293 -0.3531
   13MOL     O5 2189   1.734   5.438   5.383 -0.1890 -0.0169 -0.1662
   13MOL     H6 2190   1.686   5.476   5.106 -1.2897  1.7434 -1.3309
   13MOL     H7 2191   1.436   5.632   5.166 -0.3147 -0.1990  0.0116
   13MOL     H8 2192   1.525   5.617   5.013 -0.8953 -0.2948  0.0507
   13MOL     H9 2193   1.442   5.477   5.090 -0.6955 -0.1819 -0.3214
   13MOL    H10 2194   1.701   5.617   5.206 -1.6157  0.6747  2.7458
   13MOL    C11 2195   1.765   5.366   5.500  0.0847  0.1994  0.5222
   13MOL    C12 2196   1.863   5.438   5.585 -0.2963  0.5733  0.4513
   13MOL    C13 2197   1.807   5.227   5.458 -0.5442  0.1361 -0.8380
   13MOL    O14 2198   1.925   5.212   5.430  0.3095  0.0506 -0.5804
   13MOL    O15 2199   1.712   5.131   5.443  0.7095 -0.2020 -0.2712
   13MOL    H16 2200   1.678   5.351   5.564 -0.3468 -1.1275 -0.3510
   13MOL    H17 2201   1.906   5.379   5.666 -2.2794  0.0393  1.1336
   13MOL    H18 2202   1.951   5.472   5.530 -0.7236  0.3546 -0.3634
   13MOL    H19 2203   1.827   5.528   5.634 -0.1314  0.6827  0.3713
   13MOL    C20 2204   1.758   5.002   5.407  0.7240 -0.3549  0.0335
   13MOL    C21 2205   1.757   4.994   5.250 -0.2564 -0.0822  0.6300
   13MOL    C22 2206   1.659   4.895   5.459  0.1119  0.2222 -0.1109
   13MOL    O23 2207   1.586   4.923   5.548 -0.2509 -0.4846  0.3018
   13MOL    O24 2208   1.680   4.776   5.401  0.7021  0.1080 -0.4398
   13MOL    H25 2209   1.853   4.979   5.455  0.4661  2.4461  2.0210
   13MOL    H26 2210   1.809   4.906   5.214 -2.6910 -1.6298  0.7441
   13MOL    H27 2211   1.663   4.967   5.202  1.3626 -0.0136 -2.6681
   13MOL    H28 2212   1.799   5.083   5.203  0.6132 -0.8962 -0.1485
   13MOL    C29 2213   1.578   4.672   5.400  0.1976 -0.1582  1.0828
   13MOL    C30 2214   1.630   4.542   5.469  0.3464  0.4990  0.7512
   13MOL    C31 2215   1.528   4.655   5.261  0.4965  0.3309  0.1563
   13MOL    O32 2216   1.590   4.690   5.163  0.4452  0.8015 -0.0285
   13MOL    O33 2217   1.403   4.610   5.257  0.0933  0.0487 -0.4538
   13MOL    H34 2218   1.493   4.700   5.463  0.2485 -0.3654  1.2444
   13MOL    H35 2219   1.717   4.495   5.424 -0.3958 -2.9573  2.7231
   13MOL    H36 2220   1.658   4.559   5.573 -3.2936 -3.4002  2.5460
   13MOL    H37 2221   1.551   4.467   5.461  0.3979  0.3030  2.0144
   13MOL    C38 2222   1.340   4.608   5.130  0.3215 -0.4018  0.1354
   13MOL    C39 2223   1.285   4.745   5.092  0.2131 -0.2460 -0.3678
   13MOL    C40 2224   1.228   4.508   5.136 -0.4537  0.0982 -0.3880
   13MOL    O41 2225   1.237   4.404   5.073 -0.5535  0.1443  0.7004
   13MOL    O42 2226   1.117   4.541   5.212 -0.7338 -0.0124  0.3007
   13MOL    H43 2227   1.406   4.585   5.046 -0.2365 -0.5615 -0.2709
   13MOL    H44 2228   1.232   4.736   4.997 -0.2767 -0.9044 -0.0394
   13MOL    H45 2229   1.230   4.782   5.179  2.7342  1.2664  0.6254
   13MOL    H46 2230   1.363   4.820   5.080  0.4538 -1.0043 -4.1135
   13MOL    C47 2231   0.993   4.460   5.216  0.0353 -0.1072 -0.4713
   13MOL    C48 2232   1.010   4.346   5.314 -0.0905  0.0274  0.0716
   13MOL    C49 2233   0.947   4.422   5.072 -0.7977 -0.6107 -0.1465
   13MOL    O50 2234   0.903   4.311   5.050 -0.3900 -0.3449  0.3282
   13MOL    O51 2235   0.950   4.525   4.982  0.3079  0.4061 -0.1884
   13MOL    H52 2236   0.918   4.527   5.258  2.3967  1.5860  1.1803
   13MOL    H53 2237   0.910   4.308   5.335  0.4909 -1.6898 -0.2079
   13MOL    H54 2238   1.060   4.269   5.256 -0.5333  2.7856 -4.2616
   13MOL    H55 2239   1.047   4.381   5.410 -1.2783  0.9540  0.2015
   13MOL    C56 2240   0.904   4.502   4.852  0.1464  0.0929 -0.3268
   13MOL    C57 2241   0.992   4.602   4.774 -0.4019  0.6570  0.4948
   13MOL    C58 2242   0.755   4.517   4.830  0.3774  0.1517 -0.5346
   13MOL    O59 2243   0.678   4.580   4.904 -0.1330 -0.0653  0.1010
   13MOL    O60 2244   0.716   4.452   4.724 -0.4052 -0.6339 -0.2252
   13MOL    H61 2245   0.940   4.402   4.828  3.7316  0.7856  1.8149
   13MOL    H62 2246   0.964   4.706   4.790 -1.1376  0.2678  1.7960
   13MOL    H63 2247   1.099   4.593   4.789 -0.3822 -0.4669 -0.2082
   13MOL    H64 2248   0.959   4.572   4.674 -0.3031 -0.8295  0.9025
   13MOL    C65 2249   0.587   4.458   4.672  0.0747 -0.0973  0.6409
   13MOL    C66 2250   0.569   4.330   4.588 -0.1686  0.5077  0.7545
   13MOL    C67 2251   0.562   4.585   4.598  0.7734 -0.3434 -1.0506
   13MOL    O68 2252   0.505   4.683   4.648  0.9557 -0.0879  0.1277
   13MOL    O69 2253   0.595   4.568   4.475 -0.3006  0.0609 -0.4363
   13MOL    H70 2254   0.512   4.452   4.751 -0.1687  1.0683  0.4993
   13MOL    H71 2255   0.605   4.236   4.630  0.6204 -0.4038 -1.8736
   13MOL    H72 2256   0.465   4.307   4.564  0.0685  0.6741 -0.4275
   13MOL    H73 2257   0.638   4.343   4.506 -0.6359 -0.5520  0.1866
   13MOL    C74 2258   0.621   4.683   4.392  0.0302 -0.6200  0.3016
   13MOL    C75 2259   0.625   4.632   4.238  0.0887  0.0060  0.2722
   13MOL    C76 2260   0.748   4.759   4.436  0.6631 -0.4333 -0.1353
   13MOL    O77 2261   0.836   4.720   4.509  0.0163  0.2239  0.1654
   13MOL    O78 2262   0.751   4.875   4.382  0.2796  0.1463  0.1626
   13MOL    H79 2263   0.530   4.741   4.403  0.0696 -0.2795 -0.9995
   13MOL    H80 2264   0.642   4.722   4.179  1.0434  1.1308  2.2105
   13MOL    H81 2265   0.708   4.562   4.234 -0.8142 -1.1724  1.5172
   13MOL    H82 2266   0.528   4.596   4.203  1.0951 -3.7877  1.1549
   13MOL    C83 2267   0.851   4.968   4.408  0.0949  0.1111  0.0444
   13MOL    C84 2268   0.802   5.118   4.404 -0.3900  0.7532 -0.4942
   13MOL    C85 2269   0.969   4.956   4.315  0.1402  0.0221 -0.1024
   13MOL    O86 2270   0.972   4.870   4.229  0.4301 -0.2443 -1.2213
   13MOL    O87 2271   1.065   5.052   4.328  0.3175  1.0320  0.1129
   13MOL    H88 2272   0.889   4.941   4.506 -3.6953 -1.0143  1.3093
   13MOL    H89 2273   0.695   5.123   4.425 -0.9206 -2.9090 -1.9177
   13MOL    H90 2274   0.872   5.182   4.458  0.1301  0.2466 -0.5695
   13MOL    H91 2275   0.814   5.156   4.302 -1.6960  0.7799 -0.6487
   13MOL    C92 2276   1.168   5.055   4.231  0.0665 -0.3498  0.6548
   13MOL    C93 2277   1.301   5.063   4.304  0.6211 -0.5776  0.5228
   13MOL    C94 2278   1.142   5.163   4.125 -0.3901  0.7489 -0.4121
   13MOL    O95 2279   1.032   5.224   4.104 -0.3043 -0.3124  0.0916
   13MOL    O96 2280   1.258   5.175   4.045 -0.2572  0.2294  0.3721
   13MOL    H97 2281   1.174   4.970   4.163  1.5252  1.1983 -1.2062
   13MOL    H98 2282   1.311   5.151   4.368  1.0249  0.2042 -0.6032
   13MOL    H99 2283   1.334   4.977   4.361  0.2400 -0.8596  0.3189
   13MOL   H100 2284   1.385   5.079   4.237  0.0008  3.9815  0.6438
   13MOL   C101 2285   1.255   5.245   3.927 -0.0820  0.4505  0.1912
   13MOL   C102 2286   1.349   5.174   3.825 -0.2283  0.1860 -0.0906
   13MOL   C103 2287   1.300   5.389   3.946 -0.2579  0.0012 -0.3232
   13MOL   O104 2288   1.349   5.425   4.053  0.0770  0.2521 -0.0256
   13MOL   O105 2289   1.311   5.461   3.830 -0.2806 -0.2156 -0.4306
   13MOL   H106 2290   1.159   5.246   3.876 -0.9713 -0.1659  1.8250
   13MOL   H107 2291   1.326   5.211   3.725 -0.1512 -0.6543 -0.4268
   13MOL   H108 2292   1.454   5.181   3.850 -0.4595 -0.0706  0.9643
   13MOL   H109 2293   1.331   5.068   3.806 -1.1191  0.6965 -2.2920
   13MOL   C110 2294   1.351   5.596   3.819  0.0051 -1.3037  0.3635
   13MOL   C111 2295   1.289   5.656   3.693  0.0257  0.2200  0.0948
   13MOL   C112 2296   1.502   5.612   3.838 -0.0642  0.1108 -0.0460
   13MOL   O113 2297   1.577   5.516   3.860  0.9276 -0.0232 -0.5220
   13MOL   O114 2298   1.537   5.740   3.817 -0.4772 -0.6939  0.6489
   13MOL   H115 2299   1.312   5.647   3.907  0.3472 -1.5143  0.6413
   13MOL   H116 2300   1.317   5.759   3.668 -0.7475  0.4010 -0.0296
   13MOL   H117 2301   1.320   5.593   3.609 -0.8522  1.5648 -1.2724
   13MOL   H118 2302   1.181   5.668   3.693 -0.2612 -1.9162 -2.7013
   13MOL   C119 2303   1.675   5.774   3.835 -0.4925  1.3012 -0.3503
   13MOL   C120 2304   1.721   5.793   3.984 -0.4864 -0.6472 -0.2268
   13MOL   C121 2305   1.693   5.902   3.748 -0.4640 -0.2266 -0.0203
   13MOL   O122 2306   1.681   5.905   3.623  0.3060 -0.0535  0.3718
   13MOL   O123 2307   1.709   6.014   3.822 -0.0348 -0.2019 -0.4117
   13MOL   H124 2308   1.745   5.700   3.797 -1.1400  1.0994 -1.1694
   13MOL   H125 2309   1.826   5.823   3.990 -1.0290  1.4796 -0.7509
   13MOL   H126 2310   1.652   5.864   4.029 -1.9127 -1.6941 -0.7109
   13MOL   H127 2311   1.706   5.701   4.040 -0.7830  0.0377  0.8225
   13MOL   C128 2312   1.680   6.142   3.768 -0.3683 -1.0410  0.7289
   13MOL   C129 2313   1.759   6.249   3.857  0.0615  0.5872 -0.3310
   13MOL   C130 2314   1.527   6.161   3.770  0.2019 -0.7723  0.2258
   13MOL   O131 2315   1.465   6.185   3.668 -0.0807 -0.6601 -0.4511
   13MOL   O132 2316   1.469   6.154   3.895 -0.0601  0.1142  0.2040
   13MOL   H133 2317   1.716   6.152   3.666  1.5730  0.5308  1.5590
   13MOL   H134 2318   1.865   6.226   3.871  0.0790  0.8722  0.0046
   13MOL   H135 2319   1.760   6.353   3.825 -2.4200  0.5381 -0.6715
   13MOL   H136 2320   1.716   6.249   3.957  2.4929 -0.0427  0.7652
   13MOL   C137 2321   1.327   6.177   3.900 -0.2460 -0.7102 -0.5017
   13MOL   C138 2322   1.310   6.225   4.047 -0.8720 -0.4930 -0.0690
   13MOL   C139 2323   1.234   6.063   3.860  0.1585  0.0465 -0.5885
   13MOL   O140 2324   1.273   5.949   3.839 -0.0663  0.5132 -0.3209
   13MOL   O141 2325   1.106   6.096   3.857 -0.3299  0.0241  0.2059
   13MOL   H142 2326   1.299   6.261   3.837 -1.4015 -0.2791  0.5862
   13MOL   H143 2327   1.342   6.327   4.064  1.0581 -1.0057 -0.4576
   13MOL   H144 2328   1.204   6.221   4.072 -0.9855  0.1878 -0.4379
   13MOL   H145 2329   1.365   6.162   4.117 -0.4388  1.8337  1.7273
   13MOL   C146 2330   1.009   5.990   3.824 -1.2614 -0.3087  0.7230
   13MOL   C147 2331   0.878   6.063   3.794 -0.4530 -0.2244 -0.3493
   13MOL   C148 2332   0.997   5.888   3.936  0.4777  0.0823 -0.3953
   13MOL   O149 2333   1.038   5.917   4.051  0.4076 -0.0559  0.0715
   13MOL   O150 2334   0.933   5.773   3.896  0.0943  0.0093  0.2768
   13MOL   H151 2335   1.049   5.942   3.735 -0.2386 -0.0339  1.0262
   13MOL   H152 2336   0.842   6.145   3.856 -0.8859  0.5754 -1.6459
   13MOL   H153 2337   0.868   6.093   3.690 -1.3446  0.1445 -0.1550
   13MOL   H154 2338   0.800   5.987   3.797  0.8490 -1.5226  2.8455
   13MOL   C155 2339   0.907   5.675   4.000  0.3116 -0.0614 -0.5740
   13MOL   C156 2340   0.883   5.535   3.929  0.2272 -0.4084 -0.4236
   13MOL   C157 2341   0.782   5.709   4.078  0.3547 -0.3832 -0.9582
   13MOL   O158 2342   0.761   5.667   4.192 -0.5052 -0.1893 -0.4149
   13MOL   O159 2343   0.709   5.811   4.018 -0.3543  0.3170 -1.1635
   13MOL   H160 2344   1.002   5.666   4.053 -1.0599 -1.0233  1.7871
   13MOL   H161 2345   0.875   5.453   3.999 -0.8618 -0.0090 -0.0738
   13MOL   H162 2346   0.789   5.541   3.875 -0.4036 -0.6313  0.6332
   13MOL   H163 2347   0.962   5.517   3.856 -0.6195  0.4589 -1.5773
   13MOL   C164 2348   0.617   5.901   4.079  0.1640 -0.6980  0.2088
   13MOL   C165 2349   0.489   5.885   3.993  0.5087 -0.1030  0.3102
   13MOL   C166 2350   0.666   6.043   4.087 -0.0170 -0.2782  0.1880
   13MOL   O167 2351   0.631   6.128   4.010  0.4235  0.5638  0.1372
   13MOL   O168 2352   0.744   6.060   4.199 -0.1596  0.8478 -0.2220
   13MOL   H169 2353   0.588   5.865   4.178 -1.7550 -1.1962 -0.5148
   13MOL   H170 2354   0.512   5.909   3.890  2.7172  1.2854  1.1015
   13MOL   H171 2355   0.445   5.786   4.004  0.5868 -0.1962 -0.2403
   13MOL   H172 2356   0.417   5.962   4.021 -0.5303 -0.2037 -1.9721
   13MOL   C173 2357   0.800   6.185   4.227 -0.2221 -0.5405 -0.3001
   13MOL   C174 2358   0.946   6.196   4.171 -0.5725 -0.0758 -0.1512
   13MOL   C175 2359   0.793   6.209   4.381  0.4552 -0.1251 -0.0632
   13MOL   O176 2360   0.891   6.223   4.448  0.0199 -0.0510  0.5484
   13MOL   O177 2361   0.666   6.205   4.431 -0.9093 -0.2063  0.2295
   13MOL   H178 2362   0.743   6.261   4.174  0.4028  0.8190  0.9378
   13MOL   H179 2363   0.957   6.180   4.064  0.3004 -1.5565  0.1434
   13MOL   H180 2364   0.986   6.297   4.182 -1.6726  0.3294  0.2505
   13MOL   H181 2365   1.025   6.138   4.219 -1.2846 -0.6016  0.3942
   13MOL   H182 2366   0.612   6.194   4.354  1.3517  0.1512 -1.4938
   14MOL     C1 2367   0.591   1.514   7.805 -0.7348  0.0045  0.2150
   14MOL     C2 2368   0.574   1.490   7.952  0.1731  0.1623  0.3750
   14MOL     C3 2369   0.706   1.617   7.776 -0.0164  0.3105  0.2631
   14MOL     O4 2370   0.827   1.586   7.782 -0.4821 -0.1640  0.2578
   14MOL     O5 2371   0.657   1.731   7.750  0.1440  0.9838 -0.3337
   14MOL     H6 2372   0.623   1.424   7.752 -0.0475  0.1050  0.4440
   14MOL     H7 2373   0.668   1.484   8.008  1.1956 -0.6742 -1.4049
   14MOL     H8 2374   0.507   1.566   7.992 -0.5500  0.0830 -0.6768
   14MOL     H9 2375   0.522   1.396   7.967  0.3550 -0.0770 -0.4806
   14MOL    H10 2376   0.498   1.551   7.763 -1.5537 -2.9995 -0.7606
   14MOL    C11 2377   0.740   1.841   7.715  0.1733 -0.2141 -0.6450
   14MOL    C12 2378   0.717   1.950   7.815  0.0460 -0.2341  0.4602
   14MOL    C13 2379   0.701   1.891   7.579 -0.1959 -0.9865  0.0585
   14MOL    O14 2380   0.621   1.833   7.508 -0.4705 -0.1742 -0.2877
   14MOL    O15 2381   0.754   2.015   7.547 -0.3389 -0.8892  0.3291
   14MOL    H16 2382   0.846   1.814   7.714 -0.2233 -2.0691  1.9495
   14MOL    H17 2383   0.636   2.019   7.791 -0.3421 -0.3084  1.5624
   14MOL    H18 2384   0.710   1.918   7.919 -0.4484 -2.3554 -0.1978
   14MOL    H19 2385   0.800   2.020   7.822  1.3356 -1.7636  0.5769
   14MOL    C20 2386   0.711   2.090   7.430  0.2151 -0.0675 -0.6966
   14MOL    C21 2387   0.818   2.200   7.406 -0.4200  0.0124 -0.4284
   14MOL    C22 2388   0.564   2.144   7.439  0.2315 -0.0634  0.2579
   14MOL    O23 2389   0.521   2.203   7.536  0.0802  0.0853  0.0577
   14MOL    O24 2390   0.501   2.113   7.322  0.0185  0.1872 -0.7945
   14MOL    H25 2391   0.729   2.023   7.346  1.6836  0.1964 -0.5979
   14MOL    H26 2392   0.778   2.267   7.330 -1.5855  0.9795  0.9908
   14MOL    H27 2393   0.839   2.263   7.492  1.1366 -1.1751  0.0757
   14MOL    H28 2394   0.907   2.149   7.369  0.5549  0.2800  1.4839
   14MOL    C29 2395   0.367   2.165   7.294 -0.4437  0.3376  0.0894
   14MOL    C30 2396   0.321   2.115   7.158  0.4395 -0.4007 -0.5122
   14MOL    C31 2397   0.360   2.320   7.289 -0.6441  0.0492  0.3826
   14MOL    O32 2398   0.450   2.392   7.250  0.4442  0.2160 -0.2611
   14MOL    O33 2399   0.236   2.362   7.311 -0.5614 -0.2561  0.0449
   14MOL    H34 2400   0.287   2.139   7.363  0.1336 -1.1021  0.2245
   14MOL    H35 2401   0.384   2.156   7.079  1.3057 -1.1416 -0.2207
   14MOL    H36 2402   0.316   2.007   7.145  1.6776 -0.6653  0.9514
   14MOL    H37 2403   0.221   2.153   7.137 -1.0227 -3.4005  0.7911
   14MOL    C38 2404   0.199   2.498   7.306 -0.6785 -0.3626 -0.6150
   14MOL    C39 2405   0.083   2.503   7.405 -0.2363  0.6316  0.4509
   14MOL    C40 2406   0.160   2.528   7.161  0.3018 -0.1633 -0.3306
   14MOL    O41 2407   0.148   2.442   7.068 -0.4161 -0.0064  0.0743
   14MOL    O42 2408   0.149   2.663   7.145 -0.1315  0.1182 -0.6043
   14MOL    H43 2409   0.285   2.559   7.332 -0.6648 -0.5485 -0.2323
   14MOL    H44 2410   0.057   2.609   7.410 -0.0710  0.8417 -2.3679
   14MOL    H45 2411   8.141   2.445   7.381 -0.8428  1.9704 -0.5757
   14MOL    H46 2412   0.107   2.475   7.507  2.5907 -0.7109 -0.5353
   14MOL    C47 2413   0.094   2.714   7.024 -0.3988  0.1397  0.4718
   14MOL    C48 2414   0.128   2.859   7.009  0.6319  0.4023  1.0275
   14MOL    C49 2415   8.090   2.685   7.008 -0.3262 -0.0396  1.1942
   14MOL    O50 2416   8.014   2.694   7.101 -0.1946  0.5241  0.1197
   14MOL    O51 2417   8.055   2.653   6.882  0.7518 -0.3039  0.5067
   14MOL    H52 2418   0.155   2.667   6.947 -1.1205 -1.7825  1.0606
   14MOL    H53 2419   0.074   2.922   7.080  1.7036  2.4024  0.1201
   14MOL    H54 2420   0.229   2.893   7.033  0.4670  1.3051  0.4916
   14MOL    H55 2421   0.106   2.899   6.910  2.7121 -0.8293  0.0308
   14MOL    C56 2422   7.918   2.610   6.856  0.1164  0.5586 -0.0586
   14MOL    C57 2423   7.903   2.518   6.738  0.5302  0.6866 -0.1558
   14MOL    C58 2424   7.815   2.726   6.856  1.1163  1.2335  0.6653
   14MOL    O59 2425   7.699   2.708   6.890  0.3771  0.2713  0.6389
   14MOL    O60 2426   7.870   2.837   6.817  0.2625 -0.2032 -0.8303
   14MOL    H61 2427   7.901   2.534   6.933  2.1454 -1.3281 -1.4132
   14MOL    H62 2428   7.870   2.417   6.760 -1.9649  0.7529 -3.1793
   14MOL    H63 2429   7.834   2.559   6.664 -0.7672  0.1435  0.7245
   14MOL    H64 2430   7.999   2.521   6.688 -0.5886  2.5277 -2.2925
   14MOL    C65 2431   7.803   2.970   6.812  0.4026  0.0066  0.0364
   14MOL    C66 2432   7.896   3.073   6.747 -0.2256 -0.1505 -0.3877
   14MOL    C67 2433   7.769   3.010   6.961 -0.1245 -0.6813 -0.1382
   14MOL    O68 2434   7.654   3.048   6.986  0.3246  0.1526 -0.0490
   14MOL    O69 2435   7.874   3.002   7.054  0.2247 -0.3662  0.3361
   14MOL    H70 2436   7.708   2.960   6.760  0.1425  2.1642  0.0551
   14MOL    H71 2437   7.850   3.171   6.733 -0.5231 -0.2453 -0.0722
   14MOL    H72 2438   7.994   3.079   6.796 -0.8151 -1.2732  0.9460
   14MOL    H73 2439   7.915   3.039   6.646 -1.5027  2.8666 -1.6993
   14MOL    C74 2440   7.848   3.010   7.199  0.4973  0.3898  0.2044
   14MOL    C75 2441   7.982   3.053   7.262 -0.2879  0.8155  0.1243
   14MOL    C76 2442   7.784   2.883   7.255 -0.5235 -0.0261  0.2984
   14MOL    O77 2443   7.734   2.797   7.183  0.2816  0.6212 -0.8963
   14MOL    O78 2444   7.784   2.887   7.394 -0.7779  0.4308  0.3146
   14MOL    H79 2445   7.790   3.096   7.231  2.4233  2.0390 -0.6777
   14MOL    H80 2446   8.061   3.061   7.187 -1.3298  0.4392 -1.0201
   14MOL    H81 2447   7.971   3.155   7.301  1.2837  0.0120  2.8419
   14MOL    H82 2448   8.009   2.990   7.347 -1.4280  0.6576  0.3714
   14MOL    C83 2449   7.744   2.770   7.462 -1.0412 -0.6606 -0.2647
   14MOL    C84 2450   7.660   2.805   7.586 -0.2279  0.0767 -0.2565
   14MOL    C85 2451   7.877   2.705   7.515  0.1238 -0.5714 -0.0152
   14MOL    O86 2452   7.986   2.720   7.461  0.1673  0.3967 -0.1836
   14MOL    O87 2453   7.859   2.613   7.618 -0.0945 -0.8403  0.7041
   14MOL    H88 2454   7.711   2.691   7.394  0.3890 -0.5231 -1.1431
   14MOL    H89 2455   7.568   2.862   7.568 -0.1938  0.4849  0.8042
   14MOL    H90 2456   7.642   2.715   7.645  0.4548 -0.4631 -0.8694
   14MOL    H91 2457   7.703   2.874   7.659  0.7276  1.9459 -2.5105
   14MOL    C92 2458   7.973   2.546   7.676  0.0012  0.2111 -0.6573
   14MOL    C93 2459   7.912   2.417   7.724 -0.7419 -0.4949 -0.1297
   14MOL    C94 2460   8.035   2.634   7.786 -0.0351 -0.2204 -0.6206
   14MOL    O95 2461   8.015   2.615   7.904  0.3016  0.2038  1.0196
   14MOL    O96 2462   8.122   2.730   7.736 -0.0392  0.0139 -0.1508
   14MOL    H97 2463   8.047   2.524   7.600  1.4054 -1.3368  1.0939
   14MOL    H98 2464   7.879   2.354   7.641  0.9136 -0.0311 -1.1739
   14MOL    H99 2465   7.983   2.350   7.772  0.0376  1.4051  1.4277
   14MOL   H100 2466   7.832   2.430   7.796 -1.9138 -1.8669 -1.1407
   14MOL   C101 2467   0.066   2.791   7.825  0.3065 -0.4201  0.5835
   14MOL   C102 2468   0.135   2.917   7.759 -0.1630 -0.3353 -0.2229
   14MOL   C103 2469   0.184   2.703   7.848 -0.1080 -0.8179 -0.0155
   14MOL   O104 2470   0.235   2.687   7.960  0.2934  0.1189 -0.6254
   14MOL   O105 2471   0.230   2.643   7.736  0.7882  0.0280 -0.1566
   14MOL   H106 2472   0.027   2.813   7.924 -1.0064 -1.5034  0.3302
   14MOL   H107 2473   0.198   2.966   7.833  0.5214  0.7155 -1.4838
   14MOL   H108 2474   0.199   2.896   7.673  0.1296  0.0632 -0.1005
   14MOL   H109 2475   0.070   2.992   7.715 -1.0632 -1.3361 -0.6318
   14MOL   C110 2476   0.339   2.543   7.737  0.3845 -0.7218  0.4283
   14MOL   C111 2477   0.364   2.491   7.598 -0.1757 -0.7820  0.1497
   14MOL   C112 2478   0.302   2.431   7.841 -0.0143  0.3957 -0.2214
   14MOL   O113 2479   0.209   2.351   7.819 -0.0307 -0.5648 -0.4770
   14MOL   O114 2480   0.385   2.433   7.956  0.0563  0.0680  0.5273
   14MOL   H115 2481   0.425   2.597   7.775  0.0761 -1.4203  2.1700
   14MOL   H116 2482   0.463   2.446   7.586  1.5731  2.5292  1.6275
   14MOL   H117 2483   0.291   2.418   7.563 -1.8642  0.6938  0.5270
   14MOL   H118 2484   0.354   2.566   7.520  0.5221 -1.6501 -0.8011
   14MOL   C119 2485   0.352   2.351   8.069  0.3192  0.4814 -0.0440
   14MOL   C120 2486   0.418   2.402   0.047 -0.4817  0.0889  0.6126
   14MOL   C121 2487   0.401   2.205   8.037  0.1655 -0.2270  1.2787
   14MOL   O122 2488   0.463   2.174   7.936 -0.4933 -0.2902 -0.3524
   14MOL   O123 2489   0.370   2.120   8.136 -0.3407 -0.3003 -0.7567
   14MOL   H124 2490   0.244   2.351   8.083  0.3189  2.0702  0.0799
   14MOL   H125 2491   0.368   2.359   0.133 -1.4914  0.0670  0.0175
   14MOL   H126 2492   0.522   2.367   0.044 -0.5059  0.0210  0.5709
   14MOL   H127 2493   0.419   2.510   0.057  0.2721  0.3606 -2.0381
   14MOL   C128 2494   0.426   1.991   8.144 -0.2550  0.2819  0.2292
   14MOL   C129 2495   0.567   1.981   0.030  1.2844 -0.0522  0.1117
   14MOL   C130 2496   0.381   1.901   8.031  0.3694 -0.2171 -0.4020
   14MOL   O131 2497   0.459   1.830   7.965 -0.1408 -0.2375 -0.2723
   14MOL   O132 2498   0.244   1.922   7.997  0.1239 -0.0766 -0.3014
   14MOL   H133 2499   0.382   1.958   0.090 -1.7390  1.4862 -0.0118
   14MOL   H134 2500   0.631   2.046   8.117 -0.4070 -0.8772 -2.6332
   14MOL   H135 2501   0.575   2.021   0.131  0.2578  1.2867 -0.3252
   14MOL   H136 2502   0.609   1.882   0.011  1.6146 -0.1924  1.4610
   14MOL   C137 2503   0.187   1.860   7.877  0.1085  0.1543  0.3141
   14MOL   C138 2504   0.093   1.965   7.822 -0.0077  0.1248 -0.5491
   14MOL   C139 2505   0.122   1.723   7.905 -0.1345  0.1585  0.4260
   14MOL   O140 2506   8.146   1.703   7.882 -0.2029  0.0204  0.2881
   14MOL   O141 2507   0.207   1.623   7.951  0.4168  0.1072  0.1910
   14MOL   H142 2508   0.264   1.839   7.803 -2.1439  2.1805 -2.7105
   14MOL   H143 2509   0.149   2.053   7.787  2.5945 -0.8688  0.9869
   14MOL   H144 2510   0.038   1.936   7.733  0.6688  0.2993 -1.0291
   14MOL   H145 2511   0.023   2.010   7.892  2.1656 -0.5900  2.1491
   14MOL   C146 2512   0.152   1.496   7.986 -0.1711  0.1961  0.2672
   14MOL   C147 2513   0.233   1.421   8.090 -0.0029  0.0131  0.0820
   14MOL   C148 2514   0.136   1.407   7.863 -0.1235  0.1715  0.1600
   14MOL   O149 2515   0.231   1.383   7.796  0.1952 -0.1581  1.0403
   14MOL   O150 2516   0.010   1.374   7.822 -0.0550 -0.5151 -0.2037
   14MOL   H151 2517   0.062   1.532   8.035 -1.2632 -0.3658 -1.2621
   14MOL   H152 2518   0.262   1.485   0.026  0.5589 -0.8525  0.5593
   14MOL   H153 2519   0.191   1.330   8.132  2.0066 -1.2370 -0.5391
   14MOL   H154 2520   0.331   1.401   8.045 -1.1560 -1.6702 -1.7519
   14MOL   C155 2521   8.127   1.293   7.706 -0.6300  0.1561 -0.3823
   14MOL   C156 2522   7.986   1.311   7.661  0.2734  0.0808 -0.2105
   14MOL   C157 2523   0.007   1.142   7.722 -0.2032 -0.3835 -0.4163
   14MOL   O158 2524   0.059   1.071   7.633  0.4126 -0.4899 -0.8516
   14MOL   O159 2525   8.111   1.094   7.841 -0.1171 -0.3753  0.4859
   14MOL   H160 2526   0.036   1.323   7.618 -2.0349  2.2570 -0.6003
   14MOL   H161 2527   7.915   1.276   7.737  0.2413  0.6441  0.0233
   14MOL   H162 2528   7.960   1.415   7.644  1.0728  0.1198 -1.2044
   14MOL   H163 2529   7.972   1.263   7.564 -0.5880 -1.2001  0.5202
   14MOL   C164 2530   8.135   0.958   7.884  0.0405  0.1300 -0.1135
   14MOL   C165 2531   8.014   0.935   7.972 -0.3794 -0.1107 -0.1093
   14MOL   C166 2532   0.120   0.945   7.955 -0.5189  0.7164 -0.3767
   14MOL   O167 2533   0.126   0.975   8.075  0.2389  0.4225 -1.0214
   14MOL   O168 2534   0.228   0.899   7.876  0.0911 -0.2769  0.7302
   14MOL   H169 2535   8.128   0.896   7.794 -0.2824  1.1707 -0.8117
   14MOL   H170 2536   8.016   0.833   8.010 -0.3795  0.5794  1.8320
   14MOL   H171 2537   8.020   1.000   8.060  1.0998 -0.4445  0.0610
   14MOL   H172 2538   7.924   0.957   7.914  0.8759  1.3378 -1.5713
   14MOL   C173 2539   0.367   0.898   7.908 -0.2757 -0.2967  0.2590
   14MOL   C174 2540   0.391   0.811   8.032 -0.5032 -0.1064 -0.2626
   14MOL   C175 2541   0.412   1.047   7.930 -0.1108  0.0765 -0.0137
   14MOL   O176 2542   0.461   1.093   8.033  0.0195 -0.5547  0.0527
   14MOL   O177 2543   0.386   1.119   7.822  0.2728  0.4753  0.4847
   14MOL   H178 2544   0.421   0.860   7.821  0.4902  0.0645  0.5711
   14MOL   H179 2545   0.355   0.708   8.022  2.4221 -1.3264  1.3636
   14MOL   H180 2546   0.492   0.797   8.071 -1.3207 -1.1939  1.5261
   14MOL   H181 2547   0.336   0.850   8.117  0.3545  1.2418 -0.3213
   14MOL   H182 2548   0.397   1.210   7.843  0.8875  0.6945 -0.7436
   15MOL     C1 2549   3.701   5.561   2.143 -0.0324 -0.4415  0.4095
   15MOL     C2 2550   3.645   5.591   2.001 -0.0212  0.1481  0.9059
   15MOL     C3 2551   3.840   5.497   2.138  1.0131  0.3381  0.1590
   15MOL     O4 2552   3.861   5.381   2.164 -0.2929 -0.0987 -0.3092
   15MOL     O5 2553   3.927   5.590   2.107  0.2395 -0.4134  0.0612
   15MOL     H6 2554   3.722   5.653   2.197 -0.1656 -0.2226  0.0933
   15MOL     H7 2555   3.610   5.498   1.957  4.9457 -0.4844 -2.0886
   15MOL     H8 2556   3.554   5.651   2.002  0.1142  0.4130 -0.7660
   15MOL     H9 2557   3.719   5.636   1.934  0.3329  1.5548  2.2108
   15MOL    H10 2558   3.636   5.491   2.195 -0.3670 -1.3481 -1.2003
   15MOL    C11 2559   4.065   5.558   2.099  0.1420  0.2092 -0.1920
   15MOL    C12 2560   4.150   5.680   2.106 -0.1016 -0.2031  0.4692
   15MOL    C13 2561   4.101   5.463   1.979 -0.7060 -0.0769  0.2650
   15MOL    O14 2562   4.198   5.380   1.989  0.6581 -0.3600  0.0445
   15MOL    O15 2563   4.015   5.475   1.871  0.0909  0.6371  0.0263
   15MOL    H16 2564   4.086   5.500   2.188 -0.3994 -0.0883 -0.2544
   15MOL    H17 2565   4.140   5.749   2.022 -1.3058 -0.5225  0.3474
   15MOL    H18 2566   4.129   5.726   2.203 -0.8414 -0.2230  0.3182
   15MOL    H19 2567   4.258   5.664   2.105  0.0411  0.6249  1.0423
   15MOL    C20 2568   4.003   5.375   1.773 -0.1921 -0.0330  0.1752
   15MOL    C21 2569   4.018   5.440   1.631 -0.2491 -0.0056  0.0764
   15MOL    C22 2570   3.869   5.290   1.792  0.2049 -0.0455 -0.3511
   15MOL    O23 2571   3.756   5.317   1.747  0.1612 -0.1883  0.2413
   15MOL    O24 2572   3.897   5.190   1.879  0.2846  0.0049  0.3681
   15MOL    H25 2573   4.091   5.311   1.781 -0.1687 -0.1802 -1.2126
   15MOL    H26 2574   3.925   5.488   1.601  0.1836 -0.4497 -2.0949
   15MOL    H27 2575   4.103   5.507   1.617  1.9731 -2.7172  0.1633
   15MOL    H28 2576   4.024   5.361   1.557 -1.2363 -0.8600  0.9037
   15MOL    C29 2577   3.792   5.136   1.957 -0.2916 -0.1232 -0.6577
   15MOL    C30 2578   3.842   5.062   2.083 -0.1434 -0.4143 -0.0641
   15MOL    C31 2579   3.718   5.035   1.867  0.1850 -0.8241  0.4353
   15MOL    O32 2580   3.594   5.025   1.867  0.9203 -0.3002  0.0975
   15MOL    O33 2581   3.805   4.960   1.798  0.8847 -0.0238  0.2892
   15MOL    H34 2582   3.719   5.213   1.981  1.0622  0.5155  1.5582
   15MOL    H35 2583   3.762   5.017   2.143 -0.2782  0.8558  0.7249
   15MOL    H36 2584   3.920   4.988   2.067  1.0585  0.7377  0.4414
   15MOL    H37 2585   3.892   5.136   2.145  1.6838 -0.1476 -1.8156
   15MOL    C38 2586   3.772   4.898   1.669  0.4442  0.9192  0.1995
   15MOL    C39 2587   3.774   5.011   1.569  0.0295 -0.0744  0.0358
   15MOL    C40 2588   3.639   4.816   1.662 -0.0151 -0.2134 -0.1819
   15MOL    O41 2589   3.553   4.851   1.585  0.1233  0.2754  0.1874
   15MOL    O42 2590   3.630   4.720   1.757  0.0098  0.1964 -0.0591
   15MOL    H43 2591   3.850   4.825   1.646 -1.2253 -0.7568 -0.2906
   15MOL    H44 2592   3.757   4.971   1.469  0.0399 -0.9304  0.3741
   15MOL    H45 2593   3.688   5.078   1.580 -0.6804 -0.4032 -3.0927
   15MOL    H46 2594   3.859   5.078   1.566 -0.6032  0.6971 -1.6696
   15MOL    C47 2595   3.510   4.658   1.784 -0.0203 -0.0856  0.2043
   15MOL    C48 2596   3.494   4.619   1.934  0.0944 -0.4352  0.9894
   15MOL    C49 2597   3.480   4.556   1.680  0.5299 -0.0737  0.5718
   15MOL    O50 2598   3.565   4.532   1.588 -0.0305 -0.1334 -0.1802
   15MOL    O51 2599   3.363   4.501   1.699 -0.3620  0.5794 -0.4124
   15MOL    H52 2600   3.433   4.733   1.767 -0.3979 -0.2484  1.1926
   15MOL    H53 2601   3.532   4.700   1.996 -0.3737  0.2560  0.3918
   15MOL    H54 2602   3.394   4.582   1.959 -0.9377 -0.4277 -2.7235
   15MOL    H55 2603   3.563   4.538   1.956 -0.6579 -1.1436  0.7934
   15MOL    C56 2604   3.321   4.392   1.624 -0.0030 -0.5131 -0.9967
   15MOL    C57 2605   3.168   4.398   1.597 -0.3568  0.1942  0.1835
   15MOL    C58 2606   3.369   4.261   1.686  0.2638  0.1218 -0.8439
   15MOL    O59 2607   3.367   4.157   1.616  0.3594  0.0556 -0.2337
   15MOL    O60 2608   3.398   4.270   1.816  0.4259 -0.3394  0.5175
   15MOL    H61 2609   3.368   4.402   1.526  3.7824 -1.2713  0.6454
   15MOL    H62 2610   3.137   4.321   1.527  4.0282 -0.4894 -1.1882
   15MOL    H63 2611   3.105   4.403   1.685 -1.1270  4.0336 -0.4824
   15MOL    H64 2612   3.132   4.484   1.539  0.3001 -1.2214 -2.4118
   15MOL    C65 2613   3.461   4.158   1.878 -0.3414 -0.1133 -0.7129
   15MOL    C66 2614   3.474   4.195   2.027 -0.3064  0.4160 -0.8067
   15MOL    C67 2615   3.600   4.131   1.820  0.8658  0.7301 -0.0584
   15MOL    O68 2616   3.650   4.180   1.721 -0.3773 -0.2308  0.1451
   15MOL    O69 2617   3.663   4.032   1.892 -0.1748 -0.0710  0.3242
   15MOL    H70 2618   3.402   4.067   1.868 -3.9309  1.8686  1.6336
   15MOL    H71 2619   3.537   4.124   2.080 -1.2013 -0.5435 -1.0173
   15MOL    H72 2620   3.510   4.296   2.049 -0.4589  0.2897  0.0501
   15MOL    H73 2621   3.374   4.179   2.069 -0.8495 -1.2456 -2.6561
   15MOL    C74 2622   3.802   4.002   1.871 -0.4313  0.0883 -0.0377
   15MOL    C75 2623   3.829   3.868   1.928  0.1041 -0.3233  0.0562
   15MOL    C76 2624   3.896   4.115   1.912  0.1050 -0.3100  0.2718
   15MOL    O77 2625   3.961   4.171   1.826  0.3614  0.7639  0.0022
   15MOL    O78 2626   3.894   4.149   2.047  0.2455  0.3353  0.4574
   15MOL    H79 2627   3.817   3.991   1.763 -0.4596  0.2468 -0.0579
   15MOL    H80 2628   3.930   3.838   1.903 -0.7682 -1.5527 -2.0813
   15MOL    H81 2629   3.820   3.880   2.036 -3.2350 -1.3088 -0.0321
   15MOL    H82 2630   3.763   3.786   1.899  0.0697 -0.1806 -0.2663
   15MOL    C83 2631   3.960   4.272   2.081  0.5037 -0.6286 -0.2840
   15MOL    C84 2632   3.978   4.269   2.233 -0.0555 -0.5154  0.1903
   15MOL    C85 2633   3.884   4.393   2.047  0.3656  0.2493 -0.1440
   15MOL    O86 2634   3.759   4.397   2.042  0.3489  0.1134  0.0174
   15MOL    O87 2635   3.970   4.499   2.017 -0.2093  0.3098 -0.4819
   15MOL    H88 2636   4.061   4.280   2.039  0.3059 -0.6498 -0.7652
   15MOL    H89 2637   4.034   4.181   2.267  0.0777 -0.2614  0.6357
   15MOL    H90 2638   4.031   4.356   2.271 -0.0560 -0.4652  0.0749
   15MOL    H91 2639   3.881   4.267   2.283  0.9449  0.7779  2.2294
   15MOL    C92 2640   3.924   4.632   1.983  0.1708 -0.3059 -0.6005
   15MOL    C93 2641   4.042   4.706   1.927 -0.1836 -0.1711 -0.0022
   15MOL    C94 2642   3.866   4.691   2.120  1.2856  0.4159  0.3072
   15MOL    O95 2643   3.746   4.732   2.114  0.1022  0.3904 -0.7117
   15MOL    O96 2644   3.948   4.691   2.225  0.4702 -0.9344  0.2193
   15MOL    H97 2645   3.848   4.631   1.905  0.5428  1.9380 -1.0193
   15MOL    H98 2646   4.022   4.799   1.873  1.0259  0.9507  1.4389
   15MOL    H99 2647   4.127   4.725   1.993  1.8605  1.6149 -2.9757
   15MOL   H100 2648   4.088   4.650   1.845 -1.4877 -1.0175 -0.1690
   15MOL   C101 2649   3.897   4.734   2.345  0.0850 -0.0324 -0.1710
   15MOL   C102 2650   4.012   4.790   2.434  0.3924  0.3310 -0.1325
   15MOL   C103 2651   3.838   4.606   2.408  0.1806 -0.4224 -0.5318
   15MOL   O104 2652   3.906   4.508   2.440 -0.1372 -0.5534  0.5257
   15MOL   O105 2653   3.702   4.607   2.404  0.1343  0.1300 -0.8563
   15MOL   H106 2654   3.818   4.808   2.332  1.6016  1.5912 -0.2121
   15MOL   H107 2655   3.982   4.862   2.510  2.1581 -1.5795  2.4637
   15MOL   H108 2656   4.074   4.721   2.491 -0.0855 -1.0139 -1.2278
   15MOL   H109 2657   4.081   4.837   2.363  1.4395 -0.5166  0.3131
   15MOL   C110 2658   3.633   4.486   2.397  0.4100  0.0399 -0.5416
   15MOL   C111 2659   3.510   4.500   2.308 -0.2590  0.2195 -0.1025
   15MOL   C112 2660   3.609   4.430   2.540 -0.2455 -0.5223 -0.4230
   15MOL   O113 2661   3.665   4.326   2.567  0.1544  0.0344 -0.2507
   15MOL   O114 2662   3.535   4.515   2.621  0.2632 -0.1694 -0.0809
   15MOL   H115 2663   3.702   4.413   2.355  0.0775  0.7926 -2.4223
   15MOL   H116 2664   3.425   4.553   2.350  0.0913 -0.6454  1.7655
   15MOL   H117 2665   3.523   4.558   2.217  0.5690  2.9025  1.6677
   15MOL   H118 2666   3.473   4.399   2.286  0.9458 -0.6499  1.7192
   15MOL   C119 2667   3.545   4.503   2.765  0.0058  0.6723 -0.4768
   15MOL   C120 2668   3.452   4.604   2.829  0.0207  0.4801 -0.4710
   15MOL   C121 2669   3.691   4.514   2.812 -0.7587 -0.0968  0.8953
   15MOL   O122 2670   3.770   4.584   2.746 -0.2622 -0.0541  0.6584
   15MOL   O123 2671   3.716   4.441   2.912  0.6265 -0.3532  0.2711
   15MOL   H124 2672   3.504   4.405   2.790  0.6888  0.6406  0.5658
   15MOL   H125 2673   3.349   4.589   2.797 -0.6168  0.3347  1.5801
   15MOL   H126 2674   3.464   4.569   2.931  2.5042  1.1712 -0.4814
   15MOL   H127 2675   3.495   4.704   2.813 -0.6834  0.5488 -2.0205
   15MOL   C128 2676   3.834   4.446   2.987  0.5935 -0.1927  0.4425
   15MOL   C129 2677   3.885   4.583   3.031 -0.2071 -0.5181 -0.0508
   15MOL   C130 2678   3.949   4.369   2.912 -0.6756  0.5951  0.0028
   15MOL   O131 2679   3.960   4.243   2.914 -0.0483 -0.0813 -0.0429
   15MOL   O132 2680   4.043   4.451   2.852 -0.1869 -0.9252 -0.1270
   15MOL   H133 2681   3.803   4.401   3.081  2.4094 -1.2248  0.5754
   15MOL   H134 2682   3.917   4.637   2.942 -1.2392  0.0097 -0.1112
   15MOL   H135 2683   3.802   4.636   3.079  0.2656 -0.8381  1.1486
   15MOL   H136 2684   3.976   4.589   3.091  0.8244 -3.1909 -1.2718
   15MOL   C137 2685   4.162   4.397   2.787  0.3310  1.0323 -0.8013
   15MOL   C138 2686   4.275   4.370   2.892  0.6445 -0.1843 -0.1488
   15MOL   C139 2687   4.215   4.503   2.689  0.3068  0.1759  0.3928
   15MOL   O140 2688   4.187   4.625   2.696 -1.1230  0.2468 -0.4979
   15MOL   O141 2689   4.298   4.451   2.602 -0.3958 -0.2264  0.1155
   15MOL   H142 2690   4.125   4.311   2.730 -1.0809  1.5393 -0.6605
   15MOL   H143 2691   4.261   4.431   2.982 -0.8351  1.3826 -1.4100
   15MOL   H144 2692   4.280   4.263   2.914 -0.6883 -0.5918 -1.7310
   15MOL   H145 2693   4.378   4.379   2.859  1.0742 -2.0864  0.6179
   15MOL   C146 2694   4.370   4.534   2.512 -0.5595  0.2877  0.0353
   15MOL   C147 2695   4.351   4.468   2.379  0.3994  0.2127 -0.2135
   15MOL   C148 2696   4.519   4.543   2.556 -0.0374  0.7365 -0.7277
   15MOL   O149 2697   4.590   4.617   2.496  0.7484  0.3261 -0.1265
   15MOL   O150 2698   4.549   4.469   2.663  0.1251  0.1828  0.2240
   15MOL   H151 2699   4.337   4.638   2.506  0.8134  0.7437  0.1260
   15MOL   H152 2700   4.246   4.480   2.353 -0.1942  1.4429  2.5214
   15MOL   H153 2701   4.414   4.529   2.314 -0.6788  0.1700 -1.3185
   15MOL   H154 2702   4.387   4.367   2.396  1.1724  0.2551 -1.5294
   15MOL   C155 2703   4.677   4.484   2.725 -0.3209  0.1695 -0.0549
   15MOL   C156 2704   4.724   4.341   2.761  0.0973  1.1863  0.2995
   15MOL   C157 2705   4.650   4.565   2.854 -0.6164  0.8670  0.7708
   15MOL   O158 2706   4.543   4.613   2.882  0.4178  0.3439 -0.4350
   15MOL   O159 2707   4.764   4.590   2.911 -0.3174 -0.1906 -0.4825
   15MOL   H160 2708   4.753   4.540   2.672 -0.2143  1.4559  1.4403
   15MOL   H161 2709   4.825   4.349   2.801  0.4574 -2.4871  0.3004
   15MOL   H162 2710   4.655   4.285   2.824  1.1343 -0.5990 -0.1141
   15MOL   H163 2711   4.739   4.276   2.675 -0.3212  1.6052 -0.0894
   15MOL   C164 2712   4.774   4.658   3.032 -0.0968 -0.3602  0.1914
   15MOL   C165 2713   4.909   4.743   3.042 -0.1052 -0.0310  0.4569
   15MOL   C166 2714   4.769   4.553   3.153 -0.6586  0.1542  0.0774
   15MOL   O167 2715   4.858   4.536   3.231  0.5612 -0.3635 -1.3274
   15MOL   O168 2716   4.644   4.495   3.162 -0.0850  0.2938  0.2406
   15MOL   H169 2717   4.694   4.730   3.047 -0.6720 -0.9428 -0.1004
   15MOL   H170 2718   4.922   4.831   2.979  1.1849  1.2984  2.4917
   15MOL   H171 2719   4.914   4.776   3.146  4.0123 -1.3833  0.7961
   15MOL   H172 2720   4.996   4.681   3.019 -0.8055 -1.5557  1.8016
   15MOL   C173 2721   4.622   4.380   3.236  0.4098  0.1244 -0.2011
   15MOL   C174 2722   4.625   4.255   3.143 -0.1253 -0.2261  0.5058
   15MOL   C175 2723   4.485   4.396   3.304 -0.3713 -0.5182  0.2163
   15MOL   O176 2724   4.385   4.337   3.273 -0.2947 -0.2459  0.3305
   15MOL   O177 2725   4.485   4.498   3.397 -0.2456 -0.1417 -0.8225
   15MOL   H178 2726   4.697   4.364   3.314 -1.6723 -0.6673  1.6874
   15MOL   H179 2727   4.577   4.172   3.195 -0.6251 -0.2033  0.0815
   15MOL   H180 2728   4.566   4.279   3.055  0.7292  0.3597  0.0864
   15MOL   H181 2729   4.720   4.225   3.100 -1.0471  1.2713 -2.7133
   15MOL   H182 2730   4.575   4.522   3.413 -0.5090  0.3622 -0.0697
   16MOL     C1 2731   2.063   5.505   2.617  0.2035 -0.8245  0.1790
   16MOL     C2 2732   1.945   5.419   2.560 -0.0606  0.4403 -0.0161
   16MOL     C3 2733   2.190   5.418   2.594  0.6635  0.6886  0.2700
   16MOL     O4 2734   2.249   5.363   2.684  0.0667  0.3381 -0.1075
   16MOL     O5 2735   2.213   5.402   2.465  0.1238 -0.2425 -0.9680
   16MOL     H6 2736   2.075   5.598   2.562 -1.4703 -0.1535  0.9063
   16MOL     H7 2737   1.913   5.341   2.629 -2.5725  1.5138  0.0671
   16MOL     H8 2738   1.864   5.491   2.558 -0.4765  0.1771  3.9659
   16MOL     H9 2739   1.952   5.383   2.457 -1.9370 -0.8688  0.2950
   16MOL    H10 2740   2.050   5.523   2.724 -1.5997 -0.8932 -0.0147
   16MOL    C11 2741   2.330   5.338   2.415  0.0245  0.4749 -0.2609
   16MOL    C12 2742   2.358   5.392   2.276  0.3622  0.1541 -0.4000
   16MOL    C13 2743   2.321   5.186   2.412  0.6318  0.2107 -0.0182
   16MOL    O14 2744   2.215   5.121   2.403 -0.2329 -0.3401 -0.0923
   16MOL    O15 2745   2.435   5.134   2.436  0.2480 -0.1533  0.2073
   16MOL    H16 2746   2.418   5.357   2.476 -0.0349 -0.4609  0.1257
   16MOL    H17 2747   2.261   5.424   2.237  0.2099 -0.1051 -0.2373
   16MOL    H18 2748   2.431   5.473   2.271 -0.1323  0.5588 -1.4793
   16MOL    H19 2749   2.374   5.310   2.205 -3.0150 -1.2142  0.2995
   16MOL    C20 2750   2.456   4.992   2.408 -0.6712  0.2634 -0.6365
   16MOL    C21 2751   2.576   4.951   2.491 -0.4444  0.1506  0.1246
   16MOL    C22 2752   2.493   4.964   2.258  0.8117  0.5002  0.3871
   16MOL    O23 2753   2.610   4.932   2.225  0.0552 -0.4446  0.4512
   16MOL    O24 2754   2.388   4.998   2.174 -0.4081 -0.1621 -0.4775
   16MOL    H25 2755   2.381   4.923   2.448 -0.5317  0.9401  0.8478
   16MOL    H26 2756   2.580   4.994   2.592 -0.3482 -1.2635  0.7303
   16MOL    H27 2757   2.580   4.842   2.487  1.7134  0.2076  0.2458
   16MOL    H28 2758   2.679   4.976   2.465  0.9765 -2.1392  3.2189
   16MOL    C29 2759   2.399   4.984   2.031  0.5573  0.3662 -0.6995
   16MOL    C30 2760   2.281   5.083   1.988  0.0402  0.4185 -0.0227
   16MOL    C31 2761   2.376   4.836   1.998 -0.0373  0.0574  1.0075
   16MOL    O32 2762   2.271   4.795   1.956  0.2747  0.0032  0.1554
   16MOL    O33 2763   2.491   4.771   2.008  0.1177  0.1425 -0.2034
   16MOL    H34 2764   2.494   5.001   1.981  1.1145 -1.7688 -0.3887
   16MOL    H35 2765   2.200   5.079   2.061 -0.0282  0.5822 -0.0886
   16MOL    H36 2766   2.315   5.187   1.984 -2.9401  1.4096 -1.1311
   16MOL    H37 2767   2.244   5.057   1.889  1.1746 -0.8034 -0.1339
   16MOL    C38 2768   2.511   4.629   1.996 -0.1813 -0.2726  0.0687
   16MOL    C39 2769   2.458   4.573   1.867  0.1283  0.1576 -0.4527
   16MOL    C40 2770   2.442   4.558   2.114 -0.2354 -0.3219 -0.5101
   16MOL    O41 2771   2.401   4.443   2.095 -0.3666 -0.0689 -0.2357
   16MOL    O42 2772   2.443   4.616   2.233  0.3051  0.8105  0.1761
   16MOL    H43 2773   2.620   4.621   2.003 -0.1043 -2.0616 -2.4849
   16MOL    H44 2774   2.477   4.467   1.849  0.7485  0.3085 -0.6922
   16MOL    H45 2775   2.354   4.592   1.840  0.1274  0.4690 -0.2358
   16MOL    H46 2776   2.513   4.616   1.783  0.8038  1.2439  0.5255
   16MOL    C47 2777   2.464   4.539   2.350 -0.5270 -0.2685 -0.0113
   16MOL    C48 2778   2.428   4.616   2.474  0.3521 -0.2271  0.0351
   16MOL    C49 2779   2.612   4.499   2.349 -0.5001  0.1119 -0.2540
   16MOL    O50 2780   2.647   4.382   2.343 -0.1819 -0.1233  1.1465
   16MOL    O51 2781   2.696   4.603   2.348 -0.6548  0.1972  0.4290
   16MOL    H52 2782   2.410   4.445   2.357 -0.0107 -0.5840 -0.2473
   16MOL    H53 2783   2.345   4.685   2.461 -0.3625 -0.7268  1.8016
   16MOL    H54 2784   2.393   4.545   2.549  0.1032 -0.0493  0.0872
   16MOL    H55 2785   2.514   4.661   2.524  0.8494  0.3490 -1.2996
   16MOL    C56 2786   2.837   4.593   2.349 -0.4405 -0.2473 -0.0182
   16MOL    C57 2787   2.886   4.733   2.372 -0.0305  0.2292  0.0704
   16MOL    C58 2788   2.889   4.542   2.212  0.1322 -0.0655 -0.5132
   16MOL    O59 2789   2.817   4.531   2.118 -0.2481  0.3583  0.9196
   16MOL    O60 2790   3.022   4.534   2.210  0.2134 -0.1713 -0.5750
   16MOL    H61 2791   2.866   4.532   2.434  1.7703 -0.4218 -0.8530
   16MOL    H62 2792   2.877   4.786   2.277 -2.9540  1.4901  0.9827
   16MOL    H63 2793   2.826   4.789   2.444 -0.4932 -1.0804  0.7147
   16MOL    H64 2794   2.990   4.739   2.403  0.1349  0.2138 -0.4750
   16MOL    C65 2795   3.092   4.508   2.092  0.3097  0.7956  0.1153
   16MOL    C66 2796   3.199   4.400   2.101 -0.0509  0.4265 -0.4595
   16MOL    C67 2797   3.137   4.644   2.039  0.6557 -0.0289  0.1873
   16MOL    O68 2798   3.113   4.676   1.920  0.4664  0.0042  0.9958
   16MOL    O69 2799   3.209   4.724   2.131  0.3976 -0.3649 -0.2539
   16MOL    H70 2800   3.022   4.472   2.017  0.1710  0.4129  0.4292
   16MOL    H71 2801   3.270   4.435   2.176 -1.8815  0.1836  1.4127
   16MOL    H72 2802   3.147   4.308   2.126  0.9365 -0.2811 -0.9569
   16MOL    H73 2803   3.239   4.370   2.004 -0.0200 -0.0053 -0.3138
   16MOL    C74 2804   3.251   4.855   2.108  0.2023 -0.4770  0.1329
   16MOL    C75 2805   3.370   4.884   2.203  0.8110  0.0030 -0.1951
   16MOL    C76 2806   3.134   4.953   2.132 -0.4722  0.2251 -0.3592
   16MOL    O77 2807   3.139   5.047   2.214 -0.0066  0.3198  0.0131
   16MOL    O78 2808   3.037   4.933   2.044 -0.4522  0.1249  0.2520
   16MOL    H79 2809   3.292   4.862   2.007 -0.1453 -2.3788 -0.1561
   16MOL    H80 2810   3.385   4.992   2.194  2.0276 -0.3424 -2.9028
   16MOL    H81 2811   3.358   4.857   2.307 -0.3253 -2.5860 -0.9618
   16MOL    H82 2812   3.462   4.835   2.170  0.2644 -1.6760  0.7194
   16MOL    C83 2813   2.910   4.999   2.057 -0.4517  0.5083 -0.1859
   16MOL    C84 2814   2.813   4.920   1.961  0.0033  0.0218 -0.6837
   16MOL    C85 2815   2.901   5.146   2.023 -0.0167 -0.0044 -0.3210
   16MOL    O86 2816   2.950   5.181   1.917 -0.2908  0.6784  0.0146
   16MOL    O87 2817   2.817   5.210   2.104 -0.1807  0.2768  0.5059
   16MOL    H88 2818   2.872   4.980   2.158  2.5094 -2.0950  0.5240
   16MOL    H89 2819   2.824   4.949   1.857  0.5071 -0.6021 -0.8098
   16MOL    H90 2820   2.828   4.812   1.965 -0.6256 -0.0592 -0.4131
   16MOL    H91 2821   2.711   4.947   1.988  0.0539  1.4495 -1.8360
   16MOL    C92 2822   2.767   5.335   2.062 -0.6299 -0.5608 -0.4760
   16MOL    C93 2823   2.691   5.401   2.179  0.0800  0.0345  0.3830
   16MOL    C94 2824   2.677   5.310   1.940 -0.3346 -0.3063  0.4496
   16MOL    O95 2825   2.622   5.200   1.916 -0.0244 -0.3332  0.0628
   16MOL    O96 2826   2.652   5.429   1.878  0.3869  0.1607 -0.2657
   16MOL    H97 2827   2.849   5.396   2.024  1.0067 -1.6734  1.1195
   16MOL    H98 2828   2.605   5.335   2.195 -0.3469  0.7411  1.0232
   16MOL    H99 2829   2.752   5.411   2.268  0.0463  0.4607  0.3576
   16MOL   H100 2830   2.635   5.487   2.143 -2.1655 -1.8089 -0.6915
   16MOL   C101 2831   2.610   5.439   1.745  0.2528 -0.0447  0.2163
   16MOL   C102 2832   2.459   5.418   1.757  0.0135  0.2457  0.0661
   16MOL   C103 2833   2.682   5.357   1.640 -0.0746  0.0565  0.2803
   16MOL   O104 2834   2.622   5.311   1.538  0.4152  0.6356 -0.5836
   16MOL   O105 2835   2.819   5.365   1.652 -0.6641 -0.0666  0.1571
   16MOL   H106 2836   2.629   5.541   1.714  0.0361 -0.5842 -1.7336
   16MOL   H107 2837   2.451   5.310   1.744  1.1745  0.2298 -0.4775
   16MOL   H108 2838   2.417   5.450   1.853 -0.3251 -1.9321  0.6738
   16MOL   H109 2839   2.408   5.472   1.676  0.7270 -0.5958 -0.9438
   16MOL   C110 2840   2.908   5.297   1.569 -0.3946  0.6380 -0.4624
   16MOL   C111 2841   2.902   5.337   1.419 -0.1522  0.1164  0.8325
   16MOL   C112 2842   2.907   5.142   1.592  0.1125 -1.4501  0.2093
   16MOL   O113 2843   2.804   5.076   1.576 -0.1999  0.1300  0.1875
   16MOL   O114 2844   3.026   5.093   1.617 -0.4663 -0.0322  0.8742
   16MOL   H115 2845   2.998   5.350   1.601 -0.4433  1.0555 -1.0094
   16MOL   H116 2846   2.949   5.261   1.357  0.7046  0.5746  0.9099
   16MOL   H117 2847   2.800   5.343   1.382  0.1666 -1.0701 -0.2891
   16MOL   H118 2848   2.945   5.436   1.403  2.1054 -0.7808  1.0642
   16MOL   C119 2849   3.055   4.951   1.627 -0.3517  0.5080  0.0192
   16MOL   C120 2850   3.166   4.914   1.724  0.0918 -0.2721  0.5154
   16MOL   C121 2851   3.079   4.894   1.487 -0.4631 -0.0141  0.2452
   16MOL   O122 2852   3.149   4.796   1.469 -0.8639  0.0504  0.6688
   16MOL   O123 2853   3.000   4.952   1.393 -0.7569  0.8442  0.0114
   16MOL   H124 2854   2.970   4.892   1.662  2.0748 -1.3360  3.0596
   16MOL   H125 2855   3.138   4.967   1.815  0.9916  1.2485 -0.0796
   16MOL   H126 2856   3.180   4.806   1.726  2.2877 -0.1089 -2.0036
   16MOL   H127 2857   3.254   4.959   1.677 -1.4704  2.1707 -0.1400
   16MOL   C128 2858   3.014   4.909   1.260  0.2180  0.9275  0.2637
   16MOL   C129 2859   2.924   5.000   1.178 -0.5702 -0.3691  0.1362
   16MOL   C130 2860   2.987   4.765   1.230  0.2660  0.2359  0.0558
   16MOL   O131 2861   3.072   4.696   1.173 -0.0846  0.4680 -0.8821
   16MOL   O132 2862   2.876   4.708   1.276  0.0518  0.4730  0.5208
   16MOL   H133 2863   3.120   4.920   1.233  0.4199 -0.1939  0.5872
   16MOL   H134 2864   2.821   4.971   1.200 -1.2305 -0.4634 -2.7770
   16MOL   H135 2865   2.940   5.107   1.190 -0.9315 -0.2250 -0.6329
   16MOL   H136 2866   2.932   4.977   1.071 -0.5295 -0.1945  0.1021
   16MOL   C137 2867   2.853   4.570   1.261 -0.1316 -0.1134  0.8409
   16MOL   C138 2868   2.755   4.551   1.143 -0.3133 -0.6990  0.0428
   16MOL   C139 2869   2.786   4.525   1.389  0.3793 -0.5617 -0.2297
   16MOL   O140 2870   2.677   4.466   1.391  0.1198 -0.4357 -0.3261
   16MOL   O141 2871   2.845   4.568   1.502  0.2345  0.1781  0.5738
   16MOL   H142 2872   2.942   4.514   1.235 -0.3424 -0.3701  0.6677
   16MOL   H143 2873   2.666   4.614   1.144 -0.4928 -0.8935 -1.6334
   16MOL   H144 2874   2.807   4.564   1.047  0.2309 -1.9913  0.1619
   16MOL   H145 2875   2.721   4.448   1.135  1.3490 -1.3958  1.5435
   16MOL   C146 2876   2.800   4.527   1.632  0.4023  0.6824  0.7467
   16MOL   C147 2877   2.853   4.618   1.742 -0.0083 -0.0378  0.3056
   16MOL   C148 2878   2.830   4.380   1.671  0.7663  0.0479 -0.1335
   16MOL   O149 2879   2.882   4.300   1.592 -0.5731 -0.5371  0.3699
   16MOL   O150 2880   2.780   4.342   1.793 -0.1614 -0.0149  0.0630
   16MOL   H151 2881   2.691   4.535   1.634  0.3112 -0.3123  0.3939
   16MOL   H152 2882   2.840   4.576   1.841 -0.6253  1.4100  0.8563
   16MOL   H153 2883   2.960   4.637   1.734 -0.5087  2.8501 -0.2510
   16MOL   H154 2884   2.803   4.715   1.737 -1.3879 -0.6768  1.2494
   16MOL   C155 2885   2.781   4.210   1.838  0.1015  0.4315  0.7515
   16MOL   C156 2886   2.697   4.208   1.959  0.2671  0.2669 -0.3009
   16MOL   C157 2887   2.920   4.175   1.877 -0.2120 -0.0646  0.5084
   16MOL   O158 2888   3.016   4.247   1.876 -0.2849  0.6099  0.1683
   16MOL   O159 2889   2.928   4.042   1.885  0.5142  0.1568 -0.0870
   16MOL   H160 2890   2.743   4.150   1.755 -0.2281 -0.0954  1.2813
   16MOL   H161 2891   2.601   4.245   1.921 -0.1502  0.5890  1.0401
   16MOL   H162 2892   2.687   4.106   1.996  1.3313  0.3060  0.1215
   16MOL   H163 2893   2.723   4.274   2.042 -0.2394 -2.4121  2.0569
   16MOL   C164 2894   3.043   3.971   1.926  0.5096 -0.6608  0.2803
   16MOL   C165 2895   3.030   3.830   1.872  0.5203  0.0030 -0.1176
   16MOL   C166 2896   3.065   3.988   2.074  0.5058 -0.0238  0.8372
   16MOL   O167 2897   3.174   4.040   2.117  0.1152 -0.4552  0.0787
   16MOL   O168 2898   2.960   3.938   2.149 -0.5252  0.0768 -0.3592
   16MOL   H169 2899   3.128   4.018   1.877  0.0157  0.7508  0.7497
   16MOL   H170 2900   2.933   3.787   1.897  0.0335  1.0422 -0.1750
   16MOL   H171 2901   3.031   3.827   1.763  1.7748 -2.3373 -0.0774
   16MOL   H172 2902   3.101   3.756   1.908  0.0822 -0.2275  0.2822
   16MOL   C173 2903   2.957   3.969   2.286  0.2456 -0.2767  0.4404
   16MOL   C174 2904   2.882   3.863   2.364 -1.3543  0.2064  0.2857
   16MOL   C175 2905   2.893   4.115   2.294  0.3276  0.5647 -0.1568
   16MOL   O176 2906   2.960   4.213   2.332 -0.0637  0.5406  0.2290
   16MOL   O177 2907   2.762   4.127   2.256  0.5662  0.2913 -0.0869
   16MOL   H178 2908   3.051   3.960   2.340  0.2574  0.3901  0.5357
   16MOL   H179 2909   2.922   3.761   2.362 -0.3368  0.6220 -0.9696
   16MOL   H180 2910   2.878   3.908   2.463  1.5337 -0.0962  0.5963
   16MOL   H181 2911   2.776   3.863   2.339 -0.7128 -0.6537 -2.5660
   16MOL   H182 2912   2.727   4.211   2.281  1.5873  0.5287  0.5678
   17MOL     C1 2913   0.673   0.881   4.720  0.3816  0.1069 -0.2168
   17MOL     C2 2914   0.618   0.917   4.859 -0.6912  0.5171 -0.3564
   17MOL     C3 2915   0.755   0.757   4.697  0.1366 -0.3298  0.4647
   17MOL     O4 2916   0.780   0.690   4.795  0.1619 -0.0867 -0.5979
   17MOL     O5 2917   0.799   0.747   4.565  0.2121  0.0863  0.0004
   17MOL     H6 2918   0.585   0.890   4.656 -1.2252 -0.6600  1.8198
   17MOL     H7 2919   0.541   0.994   4.855 -2.4780 -1.3179 -2.1462
   17MOL     H8 2920   0.563   0.833   4.901 -0.7187 -0.0230 -1.4569
   17MOL     H9 2921   0.694   0.930   4.937 -3.1328 -1.2251  2.4105
   17MOL    H10 2922   0.742   0.959   4.689  0.5931 -0.4258 -1.1064
   17MOL    C11 2923   0.895   0.652   4.527 -0.1865 -0.0141  0.0124
   17MOL    C12 2924   0.939   0.698   4.393 -0.5178  0.8782  0.1770
   17MOL    C13 2925   0.832   0.513   4.520  0.1523  0.2921  0.1560
   17MOL    O14 2926   0.712   0.494   4.503 -0.1075 -0.0763  0.4125
   17MOL    O15 2927   0.920   0.409   4.531  0.2570  0.3740 -0.3352
   17MOL    H16 2928   0.979   0.653   4.597 -0.6192  1.5970  0.5288
   17MOL    H17 2929   1.002   0.617   4.355 -2.2449  0.2102 -1.3020
   17MOL    H18 2930   0.847   0.720   4.339 -1.2869  1.5218  1.7093
   17MOL    H19 2931   0.984   0.797   4.401 -0.3052  0.6523  1.9251
   17MOL    C20 2932   0.896   0.273   4.527 -0.8444 -0.3162  1.0767
   17MOL    C21 2933   1.029   0.209   4.590 -0.0451 -0.2660  0.1157
   17MOL    C22 2934   0.886   0.222   4.379 -0.2883 -0.4813 -0.0427
   17MOL    O23 2935   0.953   0.279   4.289  0.8931 -0.0752  0.2946
   17MOL    O24 2936   0.822   0.100   4.366  0.2759 -0.1764 -0.5509
   17MOL    H25 2937   0.807   0.239   4.581 -2.1519 -0.1073 -0.8986
   17MOL    H26 2938   1.006   0.103   4.586  0.4064 -0.4270  1.4473
   17MOL    H27 2939   1.122   0.235   4.539  0.2156  0.6182  0.9950
   17MOL    H28 2940   1.044   0.253   4.689 -0.5703  1.5065 -0.5768
   17MOL    C29 2941   0.819   0.024   4.246  0.3226 -0.3644  0.0130
   17MOL    C30 2942   0.681   8.105   4.235 -0.0856 -0.3662  0.0448
   17MOL    C31 2943   0.932   8.067   4.265 -0.3426 -0.5020  0.1881
   17MOL    O32 2944   0.969   7.997   4.172  0.1835  0.0211 -0.2977
   17MOL    O33 2945   0.987   8.057   4.389  0.2874 -0.0639  0.2379
   17MOL    H34 2946   0.837   0.084   4.157  0.8549 -1.0906 -0.3826
   17MOL    H35 2947   0.609   0.032   4.203  0.3739  0.4915  1.0148
   17MOL    H36 2948   0.686   8.029   4.157 -0.1139 -0.1055 -0.2119
   17MOL    H37 2949   0.644   8.066   4.329 -1.2043  2.3529  0.7682
   17MOL    C38 2950   1.088   7.959   4.423 -0.7717  0.4554  0.5309
   17MOL    C39 2951   1.107   7.955   4.577 -0.1522  0.2531  0.7336
   17MOL    C40 2952   1.229   7.978   4.356 -0.4777 -0.2806  0.3010
   17MOL    O41 2953   1.265   8.086   4.309  0.6502  0.3501 -1.0593
   17MOL    O42 2954   1.294   7.864   4.346 -0.8829 -0.1511  0.2163
   17MOL    H43 2955   1.050   7.861   4.397 -1.7770  0.2673  2.6175
   17MOL    H44 2956   1.166   7.867   4.603 -2.1363 -1.5150 -0.6271
   17MOL    H45 2957   1.159   8.042   4.617 -0.0851 -0.4059  2.0832
   17MOL    H46 2958   1.012   7.933   4.624 -0.5403 -0.4076 -0.3334
   17MOL    C47 2959   1.438   7.858   4.310  1.1053  0.0098  0.2324
   17MOL    C48 2960   1.465   7.760   4.196  0.1933 -0.6628  0.4855
   17MOL    C49 2961   1.526   7.831   4.435  0.6621 -0.4936 -0.7863
   17MOL    O50 2962   1.482   7.842   4.547  0.0428 -0.2549  0.0510
   17MOL    O51 2963   1.648   7.786   4.404 -0.2399  0.0465  0.3751
   17MOL    H52 2964   1.460   7.960   4.276 -1.9705  0.0976 -1.7379
   17MOL    H53 2965   1.455   7.658   4.233 -1.9226 -0.1182  1.5097
   17MOL    H54 2966   1.396   7.777   4.114 -1.7344 -2.2847  1.7091
   17MOL    H55 2967   1.564   7.769   4.151 -0.2020  2.3250  0.1037
   17MOL    C56 2968   1.739   7.745   4.504  0.1516  0.2178  0.3157
   17MOL    C57 2969   1.880   7.731   4.439 -0.8939  0.6048  0.4846
   17MOL    C58 2970   1.695   7.610   4.553  0.5912 -0.6396 -0.7656
   17MOL    O59 2971   1.668   7.598   4.671  0.4295 -0.0922 -0.5676
   17MOL    O60 2972   1.683   7.519   4.458 -0.4811  0.8088  0.2984
   17MOL    H61 2973   1.751   7.815   4.587  0.4327 -0.3808  0.7796
   17MOL    H62 2974   1.921   7.822   4.395  0.6615 -0.2644  0.0804
   17MOL    H63 2975   1.951   7.678   4.504 -1.7621  0.3045  1.1939
   17MOL    H64 2976   1.882   7.662   4.354 -1.7402  0.9908  0.1568
   17MOL    C65 2977   1.642   7.384   4.481  0.6270  0.6017 -0.0039
   17MOL    C66 2978   1.643   7.307   4.351  0.0133 -0.6978 -0.1008
   17MOL    C67 2979   1.493   7.385   4.531  0.0290  0.3790 -0.0285
   17MOL    O68 2980   1.454   7.293   4.606  0.0927  0.3432 -0.0361
   17MOL    O69 2981   1.427   7.486   4.482  0.2937  0.2148 -0.4745
   17MOL    H70 2982   1.706   7.334   4.553  0.1396 -0.4024 -0.2486
   17MOL    H71 2983   1.576   7.357   4.280 -0.5320 -0.4195  0.5982
   17MOL    H72 2984   1.746   7.301   4.319  0.1988  0.1964  0.3078
   17MOL    H73 2985   1.615   7.203   4.370 -0.7008 -0.3861  0.5735
   17MOL    C74 2986   1.293   7.520   4.511  0.2695 -0.4728 -0.1100
   17MOL    C75 2987   1.293   7.589   4.650  0.1563 -0.2968  0.3591
   17MOL    C76 2988   1.192   7.402   4.515 -0.2754  0.4485 -0.0124
   17MOL    O77 2989   1.116   7.379   4.607  0.2111  0.2334  0.2105
   17MOL    O78 2990   1.183   7.336   4.405 -0.7551 -0.0441  0.0172
   17MOL    H79 2991   1.257   7.603   4.450 -0.3714 -0.1671  0.6707
   17MOL    H80 2992   1.351   7.681   4.645  2.7901 -1.9541 -0.1615
   17MOL    H81 2993   1.188   7.613   4.671  0.4582  1.3799 -0.0351
   17MOL    H82 2994   1.329   7.532   4.736 -1.5076  1.1575  2.0757
   17MOL    C83 2995   1.078   7.250   4.383  0.0962  0.2008  0.2964
   17MOL    C84 2996   1.094   7.155   4.262 -0.1669 -0.2339 -0.0961
   17MOL    C85 2997   0.941   7.328   4.380 -0.3913 -0.2278 -0.3694
   17MOL    O86 2998   0.844   7.290   4.442 -0.1034 -0.7482  0.5298
   17MOL    O87 2999   0.950   7.448   4.316  0.4358 -0.8582 -0.0743
   17MOL    H88 3000   1.077   7.180   4.466  0.1574  0.2629  0.3503
   17MOL    H89 3001   1.092   7.050   4.291  2.0546 -1.0012 -2.5537
   17MOL    H90 3002   1.021   7.165   4.181 -2.1860 -4.3839  1.0971
   17MOL    H91 3003   1.191   7.180   4.220 -1.3652  1.2105 -2.0895
   17MOL    C92 3004   0.840   7.547   4.323  0.8057 -0.1105 -0.3626
   17MOL    C93 3005   0.863   7.659   4.220 -0.5265  0.0242 -0.0128
   17MOL    C94 3006   0.826   7.597   4.463  0.9122 -0.6410  0.0670
   17MOL    O95 3007   0.909   7.660   4.522 -0.5886  0.0199 -0.0198
   17MOL    O96 3008   0.699   7.599   4.504 -0.6795  0.3556  0.0402
   17MOL    H97 3009   0.742   7.503   4.306  0.0420  1.0924  0.8352
   17MOL    H98 3010   0.802   7.748   4.234 -1.5044 -0.4067 -1.3941
   17MOL    H99 3011   0.968   7.687   4.220 -0.8569  1.3643  1.9235
   17MOL   H100 3012   0.832   7.633   4.119  0.2687  2.0853 -0.7920
   17MOL   C101 3013   0.656   7.679   4.615  0.1088 -1.0983  0.4263
   17MOL   C102 3014   0.522   7.629   4.670  0.4079 -0.8367  0.5048
   17MOL   C103 3015   0.647   7.825   4.571 -0.4130  0.3277  0.5234
   17MOL   O104 3016   0.605   7.861   4.460  0.0200  0.3639 -0.1095
   17MOL   O105 3017   0.695   7.911   4.676  0.0890  0.0574  0.2415
   17MOL   H106 3018   0.734   7.670   4.690  1.3052 -0.2288 -0.6852
   17MOL   H107 3019   0.453   7.600   4.591 -2.7719  0.0689  2.8421
   17MOL   H108 3020   0.537   7.533   4.718  0.7887 -0.8502  0.3564
   17MOL   H109 3021   0.481   7.699   4.743 -0.9377 -0.3722 -0.6618
   17MOL   C110 3022   0.709   8.054   4.652  0.9665  0.0655 -0.0941
   17MOL   C111 3023   0.800   8.105   4.765  0.2195 -0.2089  0.5894
   17MOL   C112 3024   0.573   8.127   4.655  0.1296  0.0894 -0.7424
   17MOL   O113 3025   0.558   0.080   4.589  0.0910 -0.2052 -0.0925
   17MOL   O114 3026   0.480   8.071   4.733 -0.6236  0.3103 -0.0554
   17MOL   H115 3027   0.749   8.078   4.553 -0.5130  0.4507 -0.6133
   17MOL   H116 3028   0.893   8.049   4.775  0.9208  0.8073 -0.1140
   17MOL   H117 3029   0.824   0.061   4.740 -1.6322  0.8999  3.0858
   17MOL   H118 3030   0.756   8.101   4.865 -0.7083 -0.6270  0.1664
   17MOL   C119 3031   0.355   8.133   4.741 -0.2307 -0.3426 -0.6436
   17MOL   C120 3032   0.381   0.091   4.845  0.0192 -0.3652 -0.1110
   17MOL   C121 3033   0.254   8.032   4.786 -0.5838  0.5460 -0.0827
   17MOL   O122 3034   0.228   8.007   4.903  0.2102 -0.2960  0.1760
   17MOL   O123 3035   0.201   7.973   4.681  0.2540 -0.2978  0.1923
   17MOL   H124 3036   0.316   0.030   4.650 -2.4720  1.4622  1.1436
   17MOL   H125 3037   0.407   0.046   4.941  0.7885 -0.5854 -0.4173
   17MOL   H126 3038   0.468   0.155   4.831  0.5731 -1.1720 -0.4123
   17MOL   H127 3039   0.305   0.167   4.863  2.2939  1.6312  1.3172
   17MOL   C128 3040   0.091   7.881   4.682 -0.4021  0.8175 -0.1900
   17MOL   C129 3041   0.101   7.781   4.566  0.5915 -0.1360 -0.4831
   17MOL   C130 3042   8.105   7.949   4.686  0.2367  0.2990 -0.1090
   17MOL   O131 3043   8.016   7.903   4.761 -0.0898  0.3816  0.0065
   17MOL   O132 3044   8.099   8.059   4.608  0.4196 -0.0268 -0.1052
   17MOL   H133 3045   0.089   7.822   4.774 -0.1993 -1.3445 -1.5406
   17MOL   H134 3046   0.074   7.821   4.468  1.7528 -1.0842 -1.1886
   17MOL   H135 3047   0.199   7.734   4.562  0.7282 -0.0866  1.4378
   17MOL   H136 3048   0.032   7.698   4.577  3.6729 -2.4253  2.6293
   17MOL   C137 3049   7.987   8.146   4.606  0.9427  0.5495  0.1417
   17MOL   C138 3050   7.986   0.073   4.467 -0.2945  0.3867 -0.0664
   17MOL   C139 3051   8.000   0.101   4.717 -0.0005 -0.1803 -0.4141
   17MOL   O140 3052   8.005   0.221   4.694 -0.4546  0.4660  0.1153
   17MOL   O141 3053   7.998   0.049   4.844  0.5329  0.0336  0.1244
   17MOL   H142 3054   7.891   8.098   4.625  0.4325  1.0526 -1.0838
   17MOL   H143 3055   7.974   8.136   4.400 -0.2205 -0.3548  0.8345
   17MOL   H144 3056   7.914   0.155   4.456 -0.1943  0.4323 -0.3818
   17MOL   H145 3057   8.088   0.111   4.470  0.3334 -1.3116  0.9077
   17MOL   C146 3058   7.995   0.139   4.957 -0.9215  0.0392  0.4144
   17MOL   C147 3059   8.043   0.053   5.074 -0.0300 -0.6599  1.0241
   17MOL   C148 3060   7.857   0.195   4.989 -0.3294 -0.5783 -0.4209
   17MOL   O149 3061   7.756   0.140   4.954  0.1537 -0.2513  0.3066
   17MOL   O150 3062   7.864   0.315   5.059  0.0301  0.0607 -0.1568
   17MOL   H151 3063   8.062   0.224   4.958 -1.0417  0.1378  0.1467
   17MOL   H152 3064   8.050   0.117   5.162  1.5184  3.2427 -1.8478
   17MOL   H153 3065   7.976   8.116   5.087  0.2458 -0.7907  1.6024
   17MOL   H154 3066   8.142   0.010   5.062  1.1922  2.2801  0.2149
   17MOL   C155 3067   7.739   0.379   5.095  0.5730 -0.2190  0.1872
   17MOL   C156 3068   7.773   0.522   5.133  0.3392 -0.1020  0.0685
   17MOL   C157 3069   7.683   0.307   5.221  0.0516 -0.0896 -0.4557
   17MOL   O158 3070   7.753   0.281   5.325  0.2210 -0.5923  0.1684
   17MOL   O159 3071   7.554   0.270   5.204  0.1780  0.1174 -0.3910
   17MOL   H160 3072   7.665   0.379   5.015 -0.3977 -1.0057  1.0670
   17MOL   H161 3073   7.836   0.539   5.220 -0.3952 -1.2468  0.8374
   17MOL   H162 3074   7.829   0.575   5.057 -0.1148  1.1364  0.5816
   17MOL   H163 3075   7.684   0.582   5.154  0.4780  0.4964 -0.9903
   17MOL   C164 3076   7.489   0.181   5.295 -0.5532 -0.1001 -0.1913
   17MOL   C165 3077   7.365   0.130   5.232 -1.0485 -0.1247 -0.1317
   17MOL   C166 3078   7.437   0.264   5.417 -0.7030  0.5355  0.5681
   17MOL   O167 3079   7.479   0.247   5.529 -0.1289  0.1529 -0.0608
   17MOL   O168 3080   7.339   0.353   5.380  0.0867 -0.0263 -0.3473
   17MOL   H169 3081   7.554   0.097   5.322  0.7211  0.7272 -0.6675
   17MOL   H170 3082   7.282   0.196   5.206  0.5547  0.9988 -2.6324
   17MOL   H171 3083   7.387   0.089   5.133  0.1316 -1.2035  0.5662
   17MOL   H172 3084   7.328   0.052   5.298  0.4760 -0.7516 -0.0010
   17MOL   C173 3085   7.252   0.398   5.485  0.7950  0.1508  0.2571
   17MOL   C174 3086   7.105   0.408   5.441 -0.0553 -0.2261 -0.3737
   17MOL   C175 3087   7.303   0.527   5.548  0.5089 -0.8143 -0.3216
   17MOL   O176 3088   7.237   0.637   5.565  0.4871  0.4854  0.2135
   17MOL   O177 3089   7.432   0.503   5.598  0.1735 -0.5969 -0.4109
   17MOL   H178 3090   7.254   0.325   5.566  0.0378  1.5791  1.5909
   17MOL   H179 3091   7.046   0.418   5.532  1.1299  1.4112  0.2226
   17MOL   H180 3092   7.093   0.495   5.377  1.6506 -0.5976 -1.2191
   17MOL   H181 3093   7.088   0.318   5.382 -1.2375 -1.1330  1.3120
   17MOL   H182 3094   7.461   0.414   5.604  0.5199 -0.4945 -0.5589
   18MOL     C1 3095   1.951   0.106   7.294  0.2042  0.3592 -0.1088
   18MOL     C2 3096   2.017   0.239   7.264  0.4716  0.7602  0.7280
   18MOL     C3 3097   2.043   0.022   7.381 -1.2022  0.2165 -0.6999
   18MOL     O4 3098   2.113   8.085   7.335 -0.0311 -0.4812  0.2034
   18MOL     O5 3099   2.039   0.054   7.504 -0.2392 -0.5603 -0.4585
   18MOL     H6 3100   1.856   0.118   7.345  1.0980  2.4762  1.1429
   18MOL     H7 3101   1.945   0.305   7.216 -2.1129 -0.7278  2.3834
   18MOL     H8 3102   2.057   0.280   7.357  1.1075  0.4470  0.5953
   18MOL     H9 3103   2.102   0.221   7.199 -0.2319  1.7615 -0.4861
   18MOL    H10 3104   1.924   0.047   7.207 -2.3275 -1.3238  1.7570
   18MOL    C11 3105   2.112   8.143   7.606 -0.1051  0.1920 -0.0330
   18MOL    C12 3106   2.029   8.114   7.730  0.2651  0.2396 -0.7620
   18MOL    C13 3107   2.222   0.095   7.635 -0.0770  0.2383 -0.2943
   18MOL    O14 3108   2.237   0.203   7.580 -0.0641 -0.3973  0.3009
   18MOL    O15 3109   2.298   0.049   7.739 -0.0897 -0.0317  0.3392
   18MOL    H16 3110   2.164   8.050   7.580  0.2045  0.8077 -1.6834
   18MOL    H17 3111   1.991   0.059   7.773 -1.7582 -1.0132  0.1996
   18MOL    H18 3112   1.944   8.050   7.704  0.6239 -1.2474  1.5605
   18MOL    H19 3113   2.081   8.057   7.807 -1.5398  1.7910  1.6917
   18MOL    C20 3114   2.386   0.139   7.810  0.9375  0.1453  0.0504
   18MOL    C21 3115   2.523   0.114   7.761 -1.1028  0.7141  0.4442
   18MOL    C22 3116   2.370   0.109   7.963 -0.4006 -0.0532 -0.6240
   18MOL    O23 3117   2.369   8.140   8.000 -0.3553  0.2591 -0.0915
   18MOL    O24 3118   2.372   0.219   8.042 -0.0108  0.2882 -0.2007
   18MOL    H25 3119   2.345   0.239   7.802  1.5118  0.1985 -2.5538
   18MOL    H26 3120   2.526   0.129   7.653  2.3435 -0.8774  0.2491
   18MOL    H27 3121   2.597   0.187   7.794  1.8286 -2.2403  0.7347
   18MOL    H28 3122   2.555   0.013   7.787 -0.9101  0.9165  0.9920
   18MOL    C29 3123   2.373   0.199   0.035 -0.4458  0.5751  0.1125
   18MOL    C30 3124   2.305   0.321   0.091 -0.1159  0.1780 -0.6266
   18MOL    C31 3125   2.521   0.187   0.084  0.2310  0.2168 -0.0789
   18MOL    O32 3126   2.616   0.239   0.024 -0.1902  0.6067 -0.0098
   18MOL    O33 3127   2.528   0.121   0.198 -0.2413  0.9628  0.0373
   18MOL    H34 3128   2.316   0.111   0.062 -1.0733  1.0102  0.2235
   18MOL    H35 3129   2.277   0.308   0.196  2.0264  0.5726  0.0430
   18MOL    H36 3130   2.375   0.404   0.090 -0.3793  0.4609  1.3997
   18MOL    H37 3131   2.218   0.330   0.027 -0.7942 -1.4553  0.0239
   18MOL    C38 3132   2.656   0.080   0.244  0.3945  0.0524 -0.2981
   18MOL    C39 3133   2.735   0.198   0.314  0.0775 -0.2508 -0.3037
   18MOL    C40 3134   2.736   8.132   0.149  0.0695 -0.4950 -0.3180
   18MOL    O41 3135   2.845   0.019   0.115 -0.3787 -0.7706 -0.1377
   18MOL    O42 3136   2.674   8.015   0.118 -0.0910 -0.0903 -0.2779
   18MOL    H43 3137   2.623   0.012   0.323 -0.6069 -0.4561 -1.1398
   18MOL    H44 3138   2.677   0.256   0.386  1.4569 -0.3742  0.9132
   18MOL    H45 3139   2.827   0.163   0.360 -0.6259  0.3912  1.6513
   18MOL    H46 3140   2.771   0.268   0.239  0.2792 -0.6673 -0.6005
   18MOL    C47 3141   2.738   7.929   0.024  0.4268  0.0503 -0.6443
   18MOL    C48 3142   2.719   7.990   8.029 -0.3836  0.3398 -0.2289
   18MOL    C49 3143   2.681   7.790   0.026 -0.1253 -0.1909  0.5018
   18MOL    O50 3144   2.715   7.702   8.095  0.5008  0.7541  0.3697
   18MOL    O51 3145   2.606   7.768   0.132  0.0212  0.0169  0.2654
   18MOL    H52 3146   2.844   7.923   0.047 -0.0021 -0.5145  1.3399
   18MOL    H53 3147   2.770   7.930   7.954 -2.2371  2.2938 -3.1734
   18MOL    H54 3148   2.617   8.006   7.995 -0.5959 -0.7259 -0.1027
   18MOL    H55 3149   2.775   8.084   8.029  0.2067  0.0006  0.9067
   18MOL    C56 3150   2.535   7.647   0.151  0.2536  0.0593 -0.4388
   18MOL    C57 3151   2.625   7.534   0.215 -0.1704 -0.4467  0.7434
   18MOL    C58 3152   2.452   7.602   0.032  0.3877 -0.7029  0.1311
   18MOL    O59 3153   2.470   7.499   8.116  0.4369 -0.2820 -0.5679
   18MOL    O60 3154   2.356   7.693   0.012 -0.0990  0.0611 -0.4428
   18MOL    H61 3155   2.464   7.673   0.230  0.8889 -1.0550  0.5128
   18MOL    H62 3156   2.703   7.504   0.145  0.4820  0.9606  0.8464
   18MOL    H63 3157   2.661   7.557   0.315 -0.8060  2.7540  0.2899
   18MOL    H64 3158   2.566   7.443   0.226  1.9591 -1.7433  1.6888
   18MOL    C65 3159   2.249   7.673   8.071  0.7188 -0.2361  0.0796
   18MOL    C66 3160   2.206   7.814   8.033  0.5667  0.4151 -0.5877
   18MOL    C67 3161   2.138   7.595   8.145  0.7459  0.6518  0.2676
   18MOL    O68 3162   2.120   7.576   0.118  0.0287  0.0211  0.2221
   18MOL    O69 3163   2.047   7.552   8.053  0.2703  0.1196 -0.2898
   18MOL    H70 3164   2.284   7.624   7.980 -1.0634 -0.1687 -0.6588
   18MOL    H71 3165   2.217   7.875   8.123  1.5147 -0.0545 -0.3854
   18MOL    H72 3166   2.269   7.853   7.953  0.7836 -0.7904 -1.0173
   18MOL    H73 3167   2.104   7.836   8.001  0.4092  0.5470 -0.0032
   18MOL    C74 3168   1.926   7.472   8.080 -0.8354 -0.0756  0.3885
   18MOL    C75 3169   1.839   7.548   0.034  0.1226 -0.2026 -0.1892
   18MOL    C76 3170   1.955   7.327   8.124  0.6343  0.2309 -0.4298
   18MOL    O77 3171   2.066   7.277   8.130  0.1718 -0.2246  0.1608
   18MOL    O78 3172   1.835   7.259   8.145 -0.2509 -0.3058  0.3100
   18MOL    H79 3173   1.870   7.457   7.988  0.7470  3.3027 -1.1995
   18MOL    H80 3174   1.739   7.505   0.024 -0.0569  0.3400 -0.7554
   18MOL    H81 3175   1.864   7.527   0.138 -0.4042 -0.1854 -0.0585
   18MOL    H82 3176   1.825   7.656   0.024  0.3600 -0.1108  0.4949
   18MOL    C83 3177   1.837   7.115   0.002 -0.5613 -0.0130 -0.2755
   18MOL    C84 3178   1.738   7.063   8.045 -1.1724 -0.0641 -0.2829
   18MOL    C85 3179   1.819   7.075   0.145 -0.7500 -0.2174 -0.3529
   18MOL    O86 3180   1.758   6.972   0.169 -0.2853  0.1342  0.4962
   18MOL    O87 3181   1.886   7.147   0.236 -0.3013 -0.1244  0.2813
   18MOL    H88 3182   1.931   7.078   8.110  0.0928  1.7058 -0.3577
   18MOL    H89 3183   1.661   7.008   8.100  1.6495 -2.3000  1.5984
   18MOL    H90 3184   1.699   7.145   7.985  1.2708  1.8707  0.7003
   18MOL    H91 3185   1.777   6.999   7.966  0.4451 -2.8303  2.6130
   18MOL    C92 3186   1.906   7.103   0.369 -0.1139 -0.2758  0.6953
   18MOL    C93 3187   1.858   7.213   0.463  0.6115 -0.3361 -0.5227
   18MOL    C94 3188   2.061   7.072   0.379  0.4026  1.0886  0.3324
   18MOL    O95 3189   2.099   6.965   0.427 -0.1806 -0.0041  0.2270
   18MOL    O96 3190   2.138   7.168   0.330 -0.1155 -0.1818  0.3073
   18MOL    H97 3191   1.856   7.008   0.386  1.7084 -1.3986 -0.0645
   18MOL    H98 3192   1.910   7.225   0.558  0.7288 -0.1660 -0.6065
   18MOL    H99 3193   1.861   7.313   0.419  2.1002  0.0220  0.3358
   18MOL   H100 3194   1.755   7.184   0.485  0.4347  0.2950 -0.5044
   18MOL   C101 3195   2.278   7.155   0.299  0.3159 -0.2393  0.2422
   18MOL   C102 3196   2.338   7.283   0.241  0.7647  0.1841 -0.0183
   18MOL   C103 3197   2.308   7.043   0.200 -0.4686  0.1535 -0.7131
   18MOL   O104 3198   2.233   7.015   0.108 -0.1302 -0.2260 -0.5653
   18MOL   O105 3199   2.425   6.982   0.244 -0.2208  0.2384  0.6420
   18MOL   H106 3200   2.316   7.131   0.398  0.7974  0.1627  0.1550
   18MOL   H107 3201   2.429   7.265   0.184  0.7380 -0.4173  0.1226
   18MOL   H108 3202   2.268   7.332   0.173  0.7129  1.8357  1.2208
   18MOL   H109 3203   2.360   7.353   0.321  0.7888 -1.2711  1.2618
   18MOL   C110 3204   2.484   6.885   0.150 -0.3508  0.6278  0.2711
   18MOL   C111 3205   2.587   6.799   0.226  0.2924  0.5057 -0.1506
   18MOL   C112 3206   2.550   6.942   0.022  0.2896 -0.6881 -0.7639
   18MOL   O113 3207   2.580   7.061   0.021  0.2611  0.5096 -0.3329
   18MOL   O114 3208   2.575   6.855   8.076  0.3459  0.0191 -0.3478
   18MOL   H115 3209   2.400   6.821   0.122  0.2533 -0.5754  1.1659
   18MOL   H116 3210   2.649   6.747   0.153  1.1884  2.9783 -1.1889
   18MOL   H117 3211   2.636   6.872   0.291 -1.0542  1.0210  0.3047
   18MOL   H118 3212   2.533   6.736   0.296 -2.0155  3.3664  0.7497
   18MOL   C119 3213   2.631   6.900   7.954 -0.7319 -0.0951  0.1678
   18MOL   C120 3214   2.516   6.919   7.856 -0.2352 -0.5133  0.4346
   18MOL   C121 3215   2.741   6.804   7.914 -0.5070  0.1373  0.2065
   18MOL   O122 3216   2.734   6.744   7.807 -0.1396  0.0592  0.1412
   18MOL   O123 3217   2.845   6.798   8.002 -0.1512  0.2358 -0.7046
   18MOL   H124 3218   2.675   6.999   7.967  0.4506 -0.7444  1.1921
   18MOL   H125 3219   2.440   6.992   7.885 -0.4780  0.1662 -1.7598
   18MOL   H126 3220   2.548   6.951   7.757  0.8338 -2.8388  0.0079
   18MOL   H127 3221   2.452   6.832   7.841 -3.2108  1.1880  2.5405
   18MOL   C128 3222   2.965   6.737   7.959  0.5389 -0.7953  0.1504
   18MOL   C129 3223   3.057   6.687   8.074  0.1884  0.7155 -0.4092
   18MOL   C130 3224   3.051   6.823   7.868 -0.4103  0.1030 -0.0538
   18MOL   O131 3225   3.032   6.940   7.831 -0.1728  0.2869  0.0571
   18MOL   O132 3226   3.164   6.754   7.830  0.0452  0.0875 -0.1914
   18MOL   H133 3227   2.936   6.650   7.901 -1.9481 -0.6853  1.1599
   18MOL   H134 3228   3.113   6.766   8.125  1.2218  0.1580 -0.6680
   18MOL   H135 3229   3.000   6.638   0.005  1.8853 -0.2488  0.2485
   18MOL   H136 3230   3.126   6.612   8.036 -0.2299  0.2309 -0.2042
   18MOL   C137 3231   3.273   6.812   7.755 -1.0360 -0.2835  0.4034
   18MOL   C138 3232   3.360   6.692   7.728 -0.3597  0.0966 -0.9216
   18MOL   C139 3233   3.348   6.915   7.835 -0.2527  0.1533  0.9479
   18MOL   O140 3234   3.366   7.034   7.810  0.2823  0.0007  0.3306
   18MOL   O141 3235   3.384   6.865   7.961  0.4193  0.0340 -0.1307
   18MOL   H142 3236   3.251   6.852   7.656  1.7716 -1.4241 -0.7604
   18MOL   H143 3237   3.453   6.725   7.683  0.0059  1.7545  1.0036
   18MOL   H144 3238   3.379   6.635   7.818  0.2523  1.3781 -0.2304
   18MOL   H145 3239   3.307   6.628   7.657  0.2556 -2.1265  0.5791
   18MOL   C146 3240   3.452   6.944   8.062  0.3099 -0.2152  0.3501
   18MOL   C147 3241   3.539   6.862   0.007 -0.4202  0.0727  0.1649
   18MOL   C148 3242   3.332   7.005   8.136 -0.2689 -0.4303  0.2790
   18MOL   O149 3243   3.258   6.930   0.056  0.1624  0.2184  0.0020
   18MOL   O150 3244   3.306   7.142   8.115  0.4869  0.0331  0.3143
   18MOL   H151 3245   3.521   7.017   8.019 -0.2021  0.1795  0.1921
   18MOL   H152 3246   3.472   6.793   0.058 -0.6727  0.1786 -0.0194
   18MOL   H153 3247   3.615   6.807   8.100 -1.1095 -1.1122  0.3799
   18MOL   H154 3248   3.589   6.927   0.079  2.5531 -2.0856  0.1476
   18MOL   C155 3249   3.179   7.187   0.001  0.7204 -0.4093  0.2086
   18MOL   C156 3250   3.155   7.329   8.096 -0.0596 -0.2477 -0.5443
   18MOL   C157 3251   3.149   7.184   0.150  0.0854  0.1960 -0.4398
   18MOL   O158 3252   3.243   7.187   0.230 -1.0665  0.8330  0.1796
   18MOL   O159 3253   3.016   7.207   0.188  0.6291 -0.2593  0.0922
   18MOL   H160 3254   3.108   7.125   8.093  1.2265 -0.9032  0.1073
   18MOL   H161 3255   3.184   7.329   7.991 -0.9303 -2.6803 -0.8134
   18MOL   H162 3256   3.048   7.348   8.102 -0.6507 -3.5276  0.2027
   18MOL   H163 3257   3.195   7.397   0.024 -0.6774 -1.2001  0.6696
   18MOL   C164 3258   2.984   7.220   0.326 -0.7862  0.1163 -0.1296
   18MOL   C165 3259   2.832   7.198   0.341  0.6337  0.2674 -0.1545
   18MOL   C166 3260   3.025   7.354   0.380  0.4795 -0.4519 -0.5618
   18MOL   O167 3261   3.062   7.362   0.496 -0.0221 -0.0975  0.1506
   18MOL   O168 3262   2.985   7.461   0.295  0.2956 -0.1118  0.1234
   18MOL   H169 3263   3.033   7.138   0.377 -0.6500 -0.1543 -0.6889
   18MOL   H170 3264   2.805   7.093   0.337  0.3492  0.3535 -0.5899
   18MOL   H171 3265   2.785   7.244   0.427  0.2649 -0.5309  0.0734
   18MOL   H172 3266   2.773   7.241   0.260 -0.8077 -0.4319  0.5264
   18MOL   C173 3267   3.006   7.593   0.335  0.0395  0.1667 -0.6972
   18MOL   C174 3268   2.939   7.693   0.240  0.1969  0.0877  0.1252
   18MOL   C175 3269   3.156   7.624   0.315 -0.0896 -0.0044 -0.0512
   18MOL   O176 3270   3.226   7.684   0.401 -0.2628 -0.7519 -0.2190
   18MOL   O177 3271   3.200   7.593   0.190  0.3109 -0.0402  0.2557
   18MOL   H178 3272   2.974   7.595   0.439 -2.3586 -0.1658 -1.3970
   18MOL   H179 3273   2.831   7.681   0.256  0.0431  0.8715 -0.2705
   18MOL   H180 3274   2.967   7.795   0.267 -2.9672  0.0239  4.1132
   18MOL   H181 3275   2.954   7.666   0.136 -0.0286  0.9629 -0.1386
   18MOL   H182 3276   3.288   7.629   0.185  0.7937 -0.5614  3.4516
   19MOL     C1 3277   3.378   3.679   5.918 -0.4850 -0.5626  0.7590
   19MOL     C2 3278   3.372   3.819   5.971 -0.1692 -0.3377  0.0157
   19MOL     C3 3279   3.326   3.684   5.775  0.5446  0.0689  0.2609
   19MOL     O4 3280   3.404   3.705   5.681  0.0554  0.5310  0.4236
   19MOL     O5 3281   3.192   3.680   5.761 -0.2625  0.4268 -1.0855
   19MOL     H6 3282   3.483   3.648   5.919 -0.0608  0.8219 -0.7868
   19MOL     H7 3283   3.427   3.899   5.920 -1.9407  0.8089 -0.1522
   19MOL     H8 3284   3.270   3.856   5.970  0.3679  1.2716  1.6501
   19MOL     H9 3285   3.398   3.825   6.076  0.2645 -1.9648  0.0145
   19MOL    H10 3286   3.312   3.618   5.981 -1.4727  1.1669  1.4250
   19MOL    C11 3287   3.131   3.680   5.635  0.0308 -0.2745  0.9520
   19MOL    C12 3288   2.985   3.732   5.655  0.0785 -0.6578  0.2252
   19MOL    C13 3289   3.139   3.538   5.571 -0.4164 -1.1005 -0.0368
   19MOL    O14 3290   3.156   3.436   5.640  0.3064  0.0532 -0.2293
   19MOL    O15 3291   3.119   3.544   5.438  0.5326  0.1795  0.1854
   19MOL    H16 3292   3.180   3.751   5.569 -0.5060  0.5893  1.4711
   19MOL    H17 3293   2.927   3.664   5.717  1.1327  0.4299  2.4880
   19MOL    H18 3294   2.982   3.831   5.701  1.0514 -1.1561  1.3703
   19MOL    H19 3295   2.939   3.743   5.557  0.4959 -0.2064  0.0768
   19MOL    C20 3296   3.122   3.420   5.358  0.6028 -0.0391  0.2415
   19MOL    C21 3297   3.199   3.453   5.228 -0.1006  0.0057 -0.3131
   19MOL    C22 3298   2.973   3.377   5.339 -0.1656  0.3996  0.3198
   19MOL    O23 3299   2.933   3.268   5.309  0.2709  0.0753 -0.0047
   19MOL    O24 3300   2.881   3.488   5.350 -0.5116  0.4195  0.1474
   19MOL    H25 3301   3.170   3.335   5.408 -0.4607 -0.2615  0.8902
   19MOL    H26 3302   3.182   3.374   5.154 -1.6996 -2.7131  2.8446
   19MOL    H27 3303   3.159   3.542   5.179 -2.9041 -1.1243 -0.1859
   19MOL    H28 3304   3.306   3.467   5.245  0.1953 -0.3162 -1.8208
   19MOL    C29 3305   2.739   3.465   5.357 -0.0889 -0.4528 -0.6723
   19MOL    C30 3306   2.669   3.585   5.292  0.1499  0.2848  0.0527
   19MOL    C31 3307   2.689   3.440   5.505 -0.2182  0.1889  0.7043
   19MOL    O32 3308   2.578   3.466   5.547  0.9725 -0.7762 -0.7053
   19MOL    O33 3309   2.770   3.363   5.571 -0.4509  0.4610  0.4150
   19MOL    H34 3310   2.700   3.382   5.298 -1.8004 -0.8356  0.9794
   19MOL    H35 3311   2.658   3.678   5.347 -0.0576 -0.6467  1.5933
   19MOL    H36 3312   2.731   3.611   5.206  2.9884  1.8023  2.5093
   19MOL    H37 3313   2.568   3.555   5.264 -0.0446 -0.3956  1.4503
   19MOL    C38 3314   2.740   3.305   5.698 -0.3926  0.5178  0.1599
   19MOL    C39 3315   2.739   3.419   5.807  0.1133  0.7249 -0.4523
   19MOL    C40 3316   2.842   3.184   5.707 -0.7261 -0.5426  0.1087
   19MOL    O41 3317   2.904   3.162   5.812 -0.1508  0.9728 -0.5793
   19MOL    O42 3318   2.859   3.118   5.587 -0.1752 -0.6500 -0.2170
   19MOL    H43 3319   2.641   3.260   5.703 -0.2027  0.1311  0.4906
   19MOL    H44 3320   2.735   3.355   5.896 -1.0697  1.1654 -0.1804
   19MOL    H45 3321   2.836   3.469   5.805  0.0294  0.9470  0.5342
   19MOL    H46 3322   2.653   3.486   5.799  1.0865  2.1269  0.5696
   19MOL    C47 3323   2.953   3.013   5.585  0.0667  0.1808 -0.3517
   19MOL    C48 3324   3.092   3.060   5.566 -0.8101 -0.0511 -0.2319
   19MOL    C49 3325   2.914   2.918   5.462 -0.4545 -0.0404  0.6153
   19MOL    O50 3326   2.840   2.954   5.372  0.5344  0.1799  0.0710
   19MOL    O51 3327   2.981   2.799   5.460  0.2331 -0.4600 -0.1997
   19MOL    H52 3328   2.950   2.954   5.676  0.4941  2.2178  1.0133
   19MOL    H53 3329   3.127   3.125   5.646 -0.4884  0.4950 -0.8088
   19MOL    H54 3330   3.167   2.981   5.571 -1.6245 -0.7443  1.2395
   19MOL    H55 3331   3.098   3.111   5.470 -0.7805 -1.0637 -0.7702
   19MOL    C56 3332   2.977   2.720   5.344  0.4192 -0.0608 -0.6106
   19MOL    C57 3333   2.849   2.631   5.349  0.2406  0.3761  0.3557
   19MOL    C58 3334   3.110   2.644   5.340  0.3921  0.4512  0.2087
   19MOL    O59 3335   3.120   2.521   5.335 -0.0391 -0.1550  0.3232
   19MOL    O60 3336   3.224   2.714   5.340 -0.0458 -0.1809 -0.9422
   19MOL    H61 3337   2.967   2.773   5.249 -0.7434 -0.9552 -0.9995
   19MOL    H62 3338   2.759   2.693   5.351  0.2536  0.3882  0.5615
   19MOL    H63 3339   2.847   2.572   5.257  0.4081 -0.2724  0.7596
   19MOL    H64 3340   2.858   2.563   5.434 -2.9380  0.5406  0.8927
   19MOL    C65 3341   3.350   2.663   5.365 -0.7305 -0.0727 -0.5414
   19MOL    C66 3342   3.434   2.772   5.429 -0.0609 -0.2887  0.1553
   19MOL    C67 3343   3.418   2.620   5.230 -0.3525 -0.0470 -0.8877
   19MOL    O68 3344   3.524   2.663   5.190  0.5313 -0.4358  0.6826
   19MOL    O69 3345   3.354   2.516   5.166  0.5595 -0.2798 -0.2262
   19MOL    H70 3346   3.355   2.579   5.434  1.9183 -0.6533 -1.3985
   19MOL    H71 3347   3.404   2.791   5.532 -0.7278 -0.3431 -0.0266
   19MOL    H72 3348   3.538   2.739   5.434  0.2320  0.5790 -0.1967
   19MOL    H73 3349   3.437   2.864   5.371  0.0996 -1.1090 -1.1563
   19MOL    C74 3350   3.408   2.447   5.056  1.1063  0.8766  0.6317
   19MOL    C75 3351   3.292   2.420   4.959  0.2305  0.0324  0.0952
   19MOL    C76 3352   3.486   2.330   5.105  0.1320 -0.0780  0.1909
   19MOL    O77 3353   3.609   2.329   5.113 -0.3065 -0.3424 -0.2066
   19MOL    O78 3354   3.410   2.224   5.129  0.3797 -0.3016  0.5712
   19MOL    H79 3355   3.469   2.521   5.004  2.3629  0.1169  0.9970
   19MOL    H80 3356   3.214   2.355   4.999  0.9474 -1.0141 -0.1914
   19MOL    H81 3357   3.255   2.511   4.912 -1.2175  0.0023  1.1319
   19MOL    H82 3358   3.336   2.374   4.871  1.6221  1.2856  0.1123
   19MOL    C83 3359   3.467   2.093   5.161  0.3927  0.6817  0.1852
   19MOL    C84 3360   3.498   2.015   5.040  1.0012 -0.2837 -0.2175
   19MOL    C85 3361   3.370   2.026   5.257 -0.1164  0.0146 -0.0419
   19MOL    O86 3362   3.270   2.088   5.306 -0.1231 -0.4859 -0.1616
   19MOL    O87 3363   3.406   1.900   5.289 -0.6651 -0.3841 -0.2991
   19MOL    H88 3364   3.562   2.099   5.215 -0.2212  0.2957  1.3388
   19MOL    H89 3365   3.411   2.004   4.974 -0.2383 -0.2059  1.3632
   19MOL    H90 3366   3.581   2.051   4.979 -0.4940 -0.5147 -2.4796
   19MOL    H91 3367   3.513   1.908   5.058 -3.6419 -0.8607  1.0386
   19MOL    C92 3368   3.310   1.805   5.328  0.1517 -0.4686 -0.3216
   19MOL    C93 3369   3.365   1.702   5.420 -0.7396  0.0593 -0.9178
   19MOL    C94 3370   3.241   1.744   5.208 -0.9824  0.5455  0.4479
   19MOL    O95 3371   3.301   1.742   5.098 -0.2531 -0.1921 -0.1349
   19MOL    O96 3372   3.123   1.686   5.230 -0.0402  0.2715 -0.1081
   19MOL    H97 3373   3.229   1.853   5.382  2.1733  1.9740  0.6701
   19MOL    H98 3374   3.302   1.613   5.426  0.4941 -1.0691 -3.7938
   19MOL    H99 3375   3.464   1.663   5.396 -0.1533  0.4698  0.7999
   19MOL   H100 3376   3.382   1.741   5.520  0.2677  1.1820 -1.5054
   19MOL   C101 3377   3.055   1.617   5.125 -0.6048 -0.2294 -0.1521
   19MOL   C102 3378   2.912   1.616   5.161 -0.3375 -0.7623  0.7532
   19MOL   C103 3379   3.114   1.477   5.097  0.1418  0.1333 -0.0470
   19MOL   O104 3380   3.202   1.442   5.178 -0.3188 -0.0593 -0.2869
   19MOL   O105 3381   3.058   1.397   5.002  0.2959 -0.1969  0.3192
   19MOL   H106 3382   3.072   1.669   5.031  1.9319 -0.7738 -0.0224
   19MOL   H107 3383   2.867   1.715   5.155 -0.5578 -0.8944  0.2217
   19MOL   H108 3384   2.854   1.552   5.095 -1.1094  0.5313  0.1704
   19MOL   H109 3385   2.890   1.576   5.260 -1.3136  0.3516  1.0007
   19MOL   C110 3386   3.100   1.267   4.978  0.1920  0.1053 -0.0484
   19MOL   C111 3387   3.014   1.205   4.871 -0.0930 -0.1966  0.4497
   19MOL   C112 3388   3.090   1.171   5.102  0.4398 -0.4331 -0.1207
   19MOL   O113 3389   3.174   1.087   5.117  0.2309  0.3686  0.0909
   19MOL   O114 3390   2.976   1.190   5.163  0.0729  0.1735 -0.2908
   19MOL   H115 3391   3.203   1.261   4.943  0.6685  1.7626  1.0283
   19MOL   H116 3392   2.914   1.182   4.907 -0.0139 -1.7113 -0.2397
   19MOL   H117 3393   3.005   1.273   4.786  1.0873  0.1106  0.5498
   19MOL   H118 3394   3.076   1.122   4.836  1.9187  1.4101  0.0664
   19MOL   C119 3395   2.934   1.109   5.278 -0.2163 -0.2014 -0.2170
   19MOL   C120 3396   2.808   1.173   5.332 -0.1469  0.2992  0.0705
   19MOL   C121 3397   3.046   1.097   5.384  0.8667  0.3702 -0.4877
   19MOL   O122 3398   3.090   0.988   5.408 -0.0446 -0.3040 -0.2741
   19MOL   O123 3399   3.081   1.214   5.443  0.8810 -0.2986  0.0219
   19MOL   H124 3400   2.922   1.005   5.249  1.9131 -1.1874  2.2806
   19MOL   H125 3401   2.774   1.111   5.416 -0.4726 -0.1831 -0.4113
   19MOL   H126 3402   2.837   1.272   5.366 -0.5848 -0.3380  2.4700
   19MOL   H127 3403   2.725   1.181   5.262  1.3980 -1.4054 -1.9888
   19MOL   C128 3404   3.175   1.221   5.552  0.2395 -0.3559 -0.2673
   19MOL   C129 3405   3.151   1.365   5.599 -0.0316 -0.0337  0.2556
   19MOL   C130 3406   3.316   1.192   5.509 -0.1696  0.1138 -0.0796
   19MOL   O131 3407   3.380   1.101   5.567 -0.2474  0.0304 -0.3490
   19MOL   O132 3408   3.362   1.271   5.408  0.0600 -0.0847  0.0365
   19MOL   H133 3409   3.173   1.150   5.635  2.2988 -1.5768 -1.2073
   19MOL   H134 3410   3.169   1.438   5.520 -0.9954  1.2547  1.1943
   19MOL   H135 3411   3.049   1.370   5.636 -0.7225  0.2614 -1.6493
   19MOL   H136 3412   3.206   1.386   5.691 -0.0434 -1.9173  0.7219
   19MOL   C137 3413   3.495   1.260   5.360 -0.8702  0.2180 -0.1839
   19MOL   C138 3414   3.546   1.395   5.324  0.1303  0.3481  0.3720
   19MOL   C139 3415   3.493   1.155   5.252  0.5718  0.4931 -1.1485
   19MOL   O140 3416   3.467   1.186   5.138 -0.0455 -0.5214  0.6109
   19MOL   O141 3417   3.519   1.035   5.303 -0.4682  0.1736 -0.4715
   19MOL   H142 3418   3.571   1.232   5.433 -0.7944  0.8178 -0.0274
   19MOL   H143 3419   3.583   1.462   5.402 -0.7688  1.8064 -0.4169
   19MOL   H144 3420   3.642   1.374   5.275 -0.0518 -2.3084  1.1147
   19MOL   H145 3421   3.477   1.451   5.261 -0.8558 -3.3769 -2.0202
   19MOL   C146 3422   3.520   0.912   5.226 -0.0145  0.2453 -0.3387
   19MOL   C147 3423   3.485   0.778   5.310  0.0519  0.0390 -0.0791
   19MOL   C148 3424   3.652   0.898   5.156 -0.4489 -0.9015 -0.0848
   19MOL   O149 3425   3.736   0.815   5.185 -0.2895  0.1239  0.0346
   19MOL   O150 3426   3.674   0.986   5.055 -0.6402  0.3675 -1.0520
   19MOL   H151 3427   3.447   0.931   5.148 -0.0773 -1.1980 -0.6409
   19MOL   H152 3428   3.422   0.793   5.398 -0.4233  0.8789 -0.5532
   19MOL   H153 3429   3.434   0.703   5.249  0.5301 -0.7543  0.5080
   19MOL   H154 3430   3.573   0.727   5.348 -0.2915 -0.4100  0.1143
   19MOL   C155 3431   3.790   0.975   4.967  0.7834  0.4692  0.2682
   19MOL   C156 3432   3.789   1.112   4.892 -0.1592 -0.2440 -0.1482
   19MOL   C157 3433   3.784   0.854   4.870  0.1241  0.1282  0.4167
   19MOL   O158 3434   3.677   0.789   4.858 -0.0138 -0.3618  0.4241
   19MOL   O159 3435   3.898   0.828   4.799 -0.4797  0.0551 -0.4609
   19MOL   H160 3436   3.888   0.982   5.013  0.3449 -0.5871  1.4061
   19MOL   H161 3437   3.876   1.120   4.827  0.3115 -0.3470  0.4633
   19MOL   H162 3438   3.691   1.139   4.852 -0.8342 -0.6854  1.1776
   19MOL   H163 3439   3.806   1.200   4.954 -2.8491 -0.4000  0.8802
   19MOL   C164 3440   3.917   0.723   4.712  0.1623  0.0386 -0.1812
   19MOL   C165 3441   4.062   0.693   4.675  0.5868  0.1653  0.5113
   19MOL   C166 3442   3.834   0.744   4.587  0.4048  0.4774  0.4779
   19MOL   O167 3443   3.738   0.670   4.557  0.2158  0.2017  0.1454
   19MOL   O168 3444   3.880   0.844   4.503  0.0142  0.0822 -0.0515
   19MOL   H169 3445   3.875   0.635   4.760 -2.6891  1.9277  0.9212
   19MOL   H170 3446   4.072   0.598   4.623 -0.9342 -0.1535  0.7690
   19MOL   H171 3447   4.107   0.775   4.619  0.4150  0.7521  1.2182
   19MOL   H172 3448   4.113   0.667   4.768 -3.6280  0.1048  2.9194
   19MOL   C173 3449   3.818   0.867   4.376  0.3351 -0.3259 -0.4486
   19MOL   C174 3450   3.883   0.996   4.316 -0.3513  0.5680 -0.5070
   19MOL   C175 3451   3.666   0.896   4.381 -0.0617  0.4418  0.2911
   19MOL   O176 3452   3.586   0.857   4.297 -0.0924  0.0288  0.6216
   19MOL   O177 3453   3.637   0.996   4.467  0.1354 -0.4748 -0.0577
   19MOL   H178 3454   3.835   0.782   4.310 -0.5791  0.3919 -1.6441
   19MOL   H179 3455   3.853   1.018   4.213  2.1023  0.1768 -1.3519
   19MOL   H180 3456   3.860   1.076   4.386 -0.5207 -0.2731  0.4150
   19MOL   H181 3457   3.992   0.984   4.320 -0.5262 -0.8397  0.3932
   19MOL   H182 3458   3.543   0.999   4.478  0.5368  2.3686  3.4344
   20MOL     C1 3459   3.295   4.935   1.008  0.3724 -0.1372 -0.0347
   20MOL     C2 3460   3.334   4.918   0.864 -0.6222 -0.4125  0.3816
   20MOL     C3 3461   3.412   4.957   1.100  0.1168 -0.0116 -0.1435
   20MOL     O4 3462   3.523   4.907   1.087 -0.0510  0.1929 -0.3168
   20MOL     O5 3463   3.364   5.031   1.211 -0.0656 -0.2402  0.2436
   20MOL     H6 3464   3.238   5.028   1.015 -1.4999 -1.3013  0.4435
   20MOL     H7 3465   3.253   4.931   0.793 -0.4735  0.0377  0.2882
   20MOL     H8 3466   3.423   4.974   0.836 -0.4621 -1.1364 -0.5767
   20MOL     H9 3467   3.354   4.812   0.846 -0.7390 -0.7426  2.1122
   20MOL    H10 3468   3.236   4.856   1.054 -0.3237 -1.2550 -2.7484
   20MOL    C11 3469   3.455   5.067   1.315 -0.5536 -0.2310  0.1888
   20MOL    C12 3470   3.362   5.118   1.433 -0.1906 -0.2058 -0.3376
   20MOL    C13 3471   3.558   5.178   1.276  0.2012  0.5350 -0.2463
   20MOL    O14 3472   3.576   5.210   1.159 -0.5778 -0.4385 -0.4491
   20MOL    O15 3473   3.612   5.221   1.388 -0.7919 -0.3559 -0.2249
   20MOL    H16 3474   3.516   4.986   1.351 -1.4150 -0.9910 -0.0322
   20MOL    H17 3475   3.276   5.054   1.449  0.4894 -0.9353  0.5030
   20MOL    H18 3476   3.422   5.124   1.524 -0.4066 -0.0004 -0.2093
   20MOL    H19 3477   3.324   5.220   1.428  0.6958  0.1702  0.5053
   20MOL    C20 3478   3.699   5.332   1.400  0.1010 -0.1610  0.1330
   20MOL    C21 3479   3.622   5.455   1.357  0.1303  0.2948 -0.3496
   20MOL    C22 3480   3.836   5.321   1.331  0.6326 -0.2748  0.2058
   20MOL    O23 3481   3.890   5.412   1.276  0.7190  0.1717  0.1412
   20MOL    O24 3482   3.886   5.196   1.337  0.2027 -0.1910 -0.1501
   20MOL    H25 3483   3.719   5.342   1.507 -0.5316 -1.5727  0.4038
   20MOL    H26 3484   3.611   5.455   1.248 -0.1371  0.6560 -0.3244
   20MOL    H27 3485   3.526   5.461   1.408  0.3111  0.9184 -0.0846
   20MOL    H28 3486   3.670   5.551   1.376 -1.2585  0.9638 -0.1217
   20MOL    C29 3487   3.979   5.143   1.250 -0.1894  0.1649  0.3954
   20MOL    C30 3488   3.926   5.014   1.181 -0.1972  0.1554 -0.0776
   20MOL    C31 3489   4.105   5.123   1.334  0.4558  0.3998  0.0549
   20MOL    O32 3490   4.202   5.200   1.326 -0.2618  0.2184 -0.8232
   20MOL    O33 3491   4.100   5.009   1.415  0.7689 -0.5432 -0.4866
   20MOL    H34 3492   3.992   5.221   1.175 -1.1649  0.9935  1.0588
   20MOL    H35 3493   3.907   4.926   1.242 -0.2138  1.5139  1.9240
   20MOL    H36 3494   3.834   5.041   1.128  0.5844  0.7644 -1.1584
   20MOL    H37 3495   3.996   4.991   1.100  0.5983  1.4251  0.2263
   20MOL    C38 3496   4.222   4.963   1.481 -0.0460 -0.1535  0.1743
   20MOL    C39 3497   4.215   4.817   1.488  0.1949 -0.2048 -0.5991
   20MOL    C40 3498   4.243   5.040   1.615  0.1440 -0.1156  0.3223
   20MOL    O41 3499   4.146   5.092   1.673 -0.1525 -0.1187  0.2517
   20MOL    O42 3500   4.362   5.039   1.664 -0.2720 -0.2463 -0.3823
   20MOL    H43 3501   4.305   4.985   1.413 -0.2213 -0.0615 -0.0088
   20MOL    H44 3502   4.300   4.773   1.539 -0.1368  1.5423  1.5657
   20MOL    H45 3503   4.122   4.783   1.533  1.2241  0.1485  1.8920
   20MOL    H46 3504   4.195   4.782   1.386  0.0821 -1.1989 -0.2413
   20MOL    C47 3505   4.389   5.093   1.793  0.3827  0.3205 -0.5994
   20MOL    C48 3506   4.535   5.138   1.809  0.6094  0.0441 -0.3740
   20MOL    C49 3507   4.345   4.994   1.901  0.2369  0.2702 -0.0682
   20MOL    O50 3508   4.308   4.876   1.876 -0.0957  0.3459  0.5036
   20MOL    O51 3509   4.349   5.050   2.021 -0.8004 -0.1950  0.3266
   20MOL    H52 3510   4.331   5.184   1.810 -2.7476 -1.9588  1.4060
   20MOL    H53 3511   4.543   5.230   1.751 -0.3065  0.5630  0.2993
   20MOL    H54 3512   4.556   5.171   1.911  1.8714  1.5188 -1.0923
   20MOL    H55 3513   4.602   5.053   1.799 -0.6805 -0.8652 -1.3409
   20MOL    C56 3514   4.308   4.970   2.132 -0.5313  0.6887  0.7460
   20MOL    C57 3515   4.300   5.067   2.247 -0.1735  0.2938 -0.3266
   20MOL    C58 3516   4.403   4.853   2.164 -0.1273  0.2402 -0.1950
   20MOL    O59 3517   4.367   4.745   2.208  0.1819 -0.3860  0.2652
   20MOL    O60 3518   4.531   4.885   2.144 -0.2412  0.2978 -0.5704
   20MOL    H61 3519   4.209   4.929   2.115  0.0070  0.3712 -1.8031
   20MOL    H62 3520   4.240   5.041   2.335  1.2475  0.1030  0.6111
   20MOL    H63 3521   4.395   5.096   2.292  0.0162 -1.4241  0.4303
   20MOL    H64 3522   4.248   5.159   2.220 -1.2026  0.3885  1.8765
   20MOL    C65 3523   4.637   4.789   2.155 -0.2812 -0.3077  0.5899
   20MOL    C66 3524   4.765   4.876   2.160  0.4755 -0.3074 -0.1177
   20MOL    C67 3525   4.624   4.699   2.029  0.6353  0.2242 -0.3791
   20MOL    O68 3526   4.589   4.581   2.037  0.8829 -0.3447  0.3718
   20MOL    O69 3527   4.652   4.760   1.904  0.2796 -0.0770  0.2877
   20MOL    H70 3528   4.629   4.728   2.245 -2.5574  1.1894  1.4383
   20MOL    H71 3529   4.754   4.952   2.082 -0.5016 -0.8847 -0.5467
   20MOL    H72 3530   4.774   4.916   2.261 -1.0593  3.5574 -1.4145
   20MOL    H73 3531   4.846   4.809   2.129  1.2913 -0.3336  2.0030
   20MOL    C74 3532   4.662   4.688   1.782  0.2968  0.2302  0.6468
   20MOL    C75 3533   4.522   4.690   1.704 -0.0020  0.3773  0.4362
   20MOL    C76 3534   4.734   4.549   1.788 -0.8684 -1.0654 -0.0292
   20MOL    O77 3535   4.696   4.449   1.731 -0.6473  0.1514 -0.3252
   20MOL    O78 3536   4.844   4.554   1.864  0.0145 -0.5105 -0.9064
   20MOL    H79 3537   4.734   4.743   1.721  0.4811 -1.4951 -0.7494
   20MOL    H80 3538   4.436   4.636   1.743  1.5972 -1.0410  2.1772
   20MOL    H81 3539   4.492   4.793   1.689 -0.3642  0.5734  2.3405
   20MOL    H82 3540   4.535   4.654   1.602 -1.6863  0.6288  0.1325
   20MOL    C83 3541   4.921   4.439   1.897 -0.5222  0.1348 -0.1078
   20MOL    C84 3542   5.031   4.495   1.985 -0.0947 -0.0602  0.9793
   20MOL    C85 3543   4.983   4.372   1.772  0.4889  0.5820  0.2394
   20MOL    O86 3544   4.976   4.425   1.660 -0.0690  0.5005 -0.6444
   20MOL    O87 3545   5.053   4.258   1.808 -0.1444 -0.1979 -0.1968
   20MOL    H88 3546   4.861   4.364   1.948  0.9962 -0.8990  0.1847
   20MOL    H89 3547   5.016   4.472   2.090  2.0759 -2.5905  0.7839
   20MOL    H90 3548   5.120   4.436   1.966 -1.1626 -0.6750 -2.5315
   20MOL    H91 3549   5.063   4.599   1.979  2.2215 -0.7746  0.7282
   20MOL    C92 3550   5.123   4.185   1.705  0.2180 -0.1999 -0.9438
   20MOL    C93 3551   5.174   4.054   1.761  1.0301 -0.3177 -0.1378
   20MOL    C94 3552   5.240   4.275   1.661 -0.6363  0.9293  0.8798
   20MOL    O95 3553   5.260   4.309   1.542  0.0916 -0.3858  0.0405
   20MOL    O96 3554   5.318   4.315   1.762 -0.6422 -0.7754  0.0791
   20MOL    H97 3555   5.053   4.156   1.626 -1.1089  2.3714 -0.7663
   20MOL    H98 3556   5.087   4.002   1.801  0.1558 -0.2357 -1.8586
   20MOL    H99 3557   5.200   3.984   1.681  0.9371 -1.2599  0.6540
   20MOL   H100 3558   5.253   4.067   1.835  0.7873  0.9851 -0.1031
   20MOL   C101 3559   5.424   4.405   1.738  0.0789 -0.0515  0.0589
   20MOL   C102 3560   5.547   4.376   1.827 -0.8310 -0.3828 -0.2711
   20MOL   C103 3561   5.383   4.554   1.739 -0.4396  0.1175 -0.7174
   20MOL   O104 3562   5.458   4.644   1.783  0.4957 -0.1883 -0.1107
   20MOL   O105 3563   5.274   4.577   1.666  0.7164 -0.1688  0.0200
   20MOL   H106 3564   5.463   4.383   1.639  2.3557 -0.3351  0.9763
   20MOL   H107 3565   5.634   4.404   1.767  0.6697 -1.3072  1.4310
   20MOL   H108 3566   5.547   4.431   1.921 -0.4116 -0.0027 -0.4948
   20MOL   H109 3567   5.546   4.272   1.861  0.3936  0.1215  1.3449
   20MOL   C110 3568   5.237   4.714   1.634  0.0738  0.0947  0.1869
   20MOL   C111 3569   5.157   4.780   1.752 -0.1861  0.9501  0.6115
   20MOL   C112 3570   5.136   4.711   1.513  0.1933  0.6399 -0.8186
   20MOL   O113 3571   5.027   4.769   1.515 -0.4256 -0.4190 -0.7221
   20MOL   O114 3572   5.194   4.654   1.401 -0.1277  0.2367 -0.1667
   20MOL   H115 3573   5.320   4.775   1.598  0.1127  0.1093  0.3007
   20MOL   H116 3574   5.063   4.726   1.754  0.4298 -0.3232 -1.7728
   20MOL   H117 3575   5.186   4.752   1.853  0.3584 -0.8248  0.0008
   20MOL   H118 3576   5.139   4.886   1.733 -1.2798  0.3773 -1.7646
   20MOL   C119 3577   5.116   4.659   1.281 -0.8110  0.1006 -0.1298
   20MOL   C120 3578   5.164   4.538   1.187  0.2193 -0.4240  0.5512
   20MOL   C121 3579   5.148   4.794   1.207 -0.4466  0.2299 -0.1035
   20MOL   O122 3580   5.262   4.840   1.212 -0.1882 -0.2008 -0.1726
   20MOL   O123 3581   5.046   4.846   1.132  0.4233 -0.2102  0.2160
   20MOL   H124 3582   5.012   4.630   1.297 -0.1213 -3.5374 -1.8134
   20MOL   H125 3583   5.269   4.553   1.161  0.1805 -0.9546  0.0705
   20MOL   H126 3584   5.153   4.440   1.233  0.7584 -0.9112 -0.3561
   20MOL   H127 3585   5.119   4.547   1.088  2.9054 -0.3258 -0.7090
   20MOL   C128 3586   5.071   4.940   1.029  0.3708  0.3442 -0.9543
   20MOL   C129 3587   4.968   5.053   1.024 -0.2940  0.2357  0.4542
   20MOL   C130 3588   5.079   4.866   0.893  0.4142 -0.2820 -0.1602
   20MOL   O131 3589   5.071   4.741   0.879  0.7772 -0.0301 -0.1770
   20MOL   O132 3590   5.091   4.953   0.788  0.3392  0.3364 -0.4108
   20MOL   H133 3591   5.172   4.981   1.025  0.6969  0.1804  3.1133
   20MOL   H134 3592   4.922   5.090   1.116  1.2232  0.9748  0.9190
   20MOL   H135 3593   5.028   5.137   0.990  0.0062 -0.0493  0.2866
   20MOL   H136 3594   4.888   5.037   0.951  0.7112 -1.0183 -0.3947
   20MOL   C137 3595   5.077   4.911   0.652  0.2149  0.1050  0.0475
   20MOL   C138 3596   5.107   5.041   0.574  0.8530 -0.0030  0.3472
   20MOL   C139 3597   4.936   4.868   0.617  0.5526  0.8277  0.2088
   20MOL   O140 3598   4.837   4.883   0.694 -0.3716  0.5402 -0.0545
   20MOL   O141 3599   4.935   4.808   0.498 -0.0220 -0.1909 -0.0169
   20MOL   H142 3600   5.146   4.829   0.633 -0.3999 -0.6528  1.0892
   20MOL   H143 3601   5.117   5.025   0.466 -2.5839 -0.0819 -0.0200
   20MOL   H144 3602   5.025   5.111   0.589  0.7363  0.0825 -0.6011
   20MOL   H145 3603   5.198   5.093   0.602  0.1676 -0.7887  4.2633
   20MOL   C146 3604   4.818   4.787   0.419 -0.1382  0.2930 -0.3080
   20MOL   C147 3605   4.829   4.655   0.352  0.4307  0.4655 -0.6005
   20MOL   C148 3606   4.788   4.915   0.328  1.1181  0.3422  0.2358
   20MOL   O149 3607   4.845   5.020   0.331  0.1755  0.6327  0.3284
   20MOL   O150 3608   4.682   4.885   0.240  0.0776  0.2205 -0.7016
   20MOL   H151 3609   4.729   4.769   0.481 -0.3641 -1.5202 -1.1388
   20MOL   H152 3610   4.880   4.666   0.256  1.6138  0.0356 -0.0368
   20MOL   H153 3611   4.870   4.570   0.407  0.6603  0.1802 -1.1997
   20MOL   H154 3612   4.727   4.627   0.325 -0.2140 -1.5283  3.5212
   20MOL   C155 3613   4.620   4.984   0.156  0.5767 -0.2015 -0.2768
   20MOL   C156 3614   4.516   5.067   0.237  0.0344  0.1603 -0.2170
   20MOL   C157 3615   4.544   4.924   0.036 -0.2343 -0.5684 -0.8158
   20MOL   O158 3616   4.585   4.942   8.070  0.4837  0.0501  0.1698
   20MOL   O159 3617   4.440   4.841   0.063 -0.3798 -0.1696  0.4586
   20MOL   H160 3618   4.695   5.054   0.119  0.5549  0.4412  0.8613
   20MOL   H161 3619   4.569   5.113   0.320 -1.2678  0.4744  0.4572
   20MOL   H162 3620   4.468   5.147   0.181 -0.8718 -0.0961  0.1758
   20MOL   H163 3621   4.441   5.002   0.284 -0.6764 -0.7050 -2.4866
   20MOL   C164 3622   4.362   4.776   8.112  0.1299  0.8407 -0.1537
   20MOL   C165 3623   4.437   4.663   8.036  0.0099  0.3784 -0.6126
   20MOL   C166 3624   4.291   4.873   8.019  0.0331 -0.0871 -0.6499
   20MOL   O167 3625   4.296   4.860   7.898 -0.3858 -0.2551 -0.3776
   20MOL   O168 3626   4.213   4.971   8.078  0.1695  0.7447  0.2968
   20MOL   H169 3627   4.287   4.723   0.023  1.8617 -3.5343 -1.6667
   20MOL   H170 3628   4.534   4.690   7.994  1.0771 -0.2555  1.3516
   20MOL   H171 3629   4.462   4.578   8.099  0.4527 -0.2169 -1.5893
   20MOL   H172 3630   4.373   4.624   7.957 -0.1358 -1.3022  0.3151
   20MOL   C173 3631   4.163   5.088   8.013  0.0686  0.5367 -0.6444
   20MOL   C174 3632   4.275   5.184   8.038 -0.7397 -0.8118 -0.5664
   20MOL   C175 3633   4.030   5.125   8.088 -0.4849 -0.5190  0.2001
   20MOL   O176 3634   3.920   5.132   8.034  0.4611  0.3582 -0.2339
   20MOL   O177 3635   4.044   5.163   0.068 -0.2481  0.0102 -0.0552
   20MOL   H178 3636   4.130   5.063   7.912 -2.6289  0.2145  0.2565
   20MOL   H179 3637   4.370   5.141   8.006 -1.5410 -0.5171 -3.5376
   20MOL   H180 3638   4.266   5.275   7.978 -0.4545 -1.2792 -1.3240
   20MOL   H181 3639   4.284   5.211   8.143 -0.0525  0.6481 -0.9814
   20MOL   H182 3640   3.959   5.186   0.100  0.1982  0.7155  0.6567
   21MOL     C1 3641   0.331   1.288   0.890  0.1224 -0.9133 -0.7649
   21MOL     C2 3642   0.207   1.201   0.897 -0.3221  0.5457  0.2925
   21MOL     C3 3643   0.323   1.421   0.970  0.0113 -0.7460 -0.4224
   21MOL     O4 3644   0.301   1.524   0.911 -0.3477 -0.8293 -0.7990
   21MOL     O5 3645   0.345   1.399   1.102 -0.0200  0.5391 -0.4578
   21MOL     H6 3646   0.414   1.221   0.913 -0.5415 -2.1463 -1.8907
   21MOL     H7 3647   0.218   1.134   0.983 -2.6286  0.0178  0.2208
   21MOL     H8 3648   0.123   1.268   0.918  1.1210  2.2153  0.8103
   21MOL     H9 3649   0.187   1.142   0.807 -0.2169  2.7753 -1.2263
   21MOL    H10 3650   0.346   1.319   0.787  1.3433 -1.1647 -0.6677
   21MOL    C11 3651   0.319   1.502   1.195  0.0708 -0.4702  0.0833
   21MOL    C12 3652   0.383   1.449   1.329  0.4159  0.4618 -0.0148
   21MOL    C13 3653   0.164   1.528   1.207  0.5568  0.3585 -0.2688
   21MOL    O14 3654   0.123   1.645   1.209 -0.5365 -0.1927 -0.5215
   21MOL    O15 3655   0.093   1.408   1.213 -0.0670  0.7408 -0.1492
   21MOL    H16 3656   0.361   1.592   1.151 -0.4365  1.0450  2.6060
   21MOL    H17 3657   0.361   1.511   1.416 -0.4758 -0.8496  0.7053
   21MOL    H18 3658   0.340   1.351   1.348  0.1662  0.6817  0.5629
   21MOL    H19 3659   0.490   1.451   1.306  0.3012  1.0934 -0.5298
   21MOL    C20 3660   8.097   1.413   1.226 -0.3590  0.0651 -0.5300
   21MOL    C21 3661   8.060   1.283   1.303 -0.0582  0.2120 -0.4713
   21MOL    C22 3662   8.030   1.419   1.083 -0.8618 -0.6449  0.0727
   21MOL    O23 3663   7.942   1.345   1.050 -0.0047 -0.3490  0.3500
   21MOL    O24 3664   8.079   1.518   1.004  0.0005 -0.3547 -0.6582
   21MOL    H25 3665   8.056   1.500   1.276  0.0225 -0.0994  0.0648
   21MOL    H26 3666   7.955   1.256   1.308  0.1045  0.0067  1.9828
   21MOL    H27 3667   8.107   1.203   1.247  1.8492 -0.1853  1.6320
   21MOL    H28 3668   8.105   1.293   1.401  0.2704  1.5943 -0.7512
   21MOL    C29 3669   8.032   1.542   0.871  0.1170  0.5511 -0.2997
   21MOL    C30 3670   8.142   1.614   0.791 -0.0903  0.1670 -0.0185
   21MOL    C31 3671   7.901   1.627   0.866 -0.7752  0.2228  0.0859
   21MOL    O32 3672   7.850   1.660   0.972  0.3007 -0.1193 -0.6146
   21MOL    O33 3673   7.843   1.632   0.746 -0.4300  0.0080  0.4203
   21MOL    H34 3674   8.031   1.444   0.822  3.1947  0.8507 -1.0664
   21MOL    H35 3675   0.087   1.556   0.793 -0.7814 -0.8850  2.9213
   21MOL    H36 3676   8.110   1.648   0.692  1.0285  2.0628  0.2429
   21MOL    H37 3677   0.024   1.702   0.847  3.9587 -1.5532  0.7246
   21MOL    C38 3678   7.718   1.694   0.720  0.0250 -0.1626 -0.0052
   21MOL    C39 3679   7.671   1.649   0.583  0.1264  0.4904 -0.4453
   21MOL    C40 3680   7.722   1.852   0.736 -0.2745  0.3728 -1.0044
   21MOL    O41 3681   7.797   1.929   0.674 -0.1560 -0.6653 -0.1669
   21MOL    O42 3682   7.631   1.904   0.824  0.6434 -0.4882  0.1731
   21MOL    H43 3683   7.641   1.656   0.788  0.6329 -1.9901 -0.3093
   21MOL    H44 3684   7.662   1.540   0.585  0.6195  0.4221 -1.5982
   21MOL    H45 3685   7.569   1.686   0.572 -0.1108  0.3323  1.0412
   21MOL    H46 3686   7.734   1.671   0.498  0.1805  1.1900 -0.2257
   21MOL    C47 3687   7.617   2.046   0.847  0.4118  0.1103  0.1585
   21MOL    C48 3688   7.567   2.078   0.990  0.1051  0.3440  0.1402
   21MOL    C49 3689   7.513   2.085   0.732  0.3193 -0.0696 -0.0183
   21MOL    O50 3690   7.525   2.188   0.667  0.2069 -0.0045 -0.1796
   21MOL    O51 3691   7.414   1.994   0.718 -0.2305  0.7853  0.4946
   21MOL    H52 3692   7.706   2.106   0.832  1.2877 -0.6662  2.0085
   21MOL    H53 3693   7.478   2.022   1.021  0.9139 -0.9716  0.1210
   21MOL    H54 3694   7.647   2.054   1.061  0.4847  0.3891 -0.2733
   21MOL    H55 3695   7.549   2.185   1.006 -1.9725  0.2258 -1.2955
   21MOL    C56 3696   7.323   2.010   0.615 -0.6949  0.3774 -0.3811
   21MOL    C57 3697   7.200   1.925   0.664  0.6546 -0.0545  0.5005
   21MOL    C58 3698   7.371   1.960   0.481 -0.0098 -0.4686  0.1968
   21MOL    O59 3699   7.482   1.906   0.465  0.2986 -0.7245 -0.2790
   21MOL    O60 3700   7.273   1.963   0.378 -0.1810  0.0347  0.5769
   21MOL    H61 3701   7.287   2.112   0.609 -1.0548  0.3277  0.8126
   21MOL    H62 3702   7.113   1.945   0.602 -1.4231 -0.6909  3.1004
   21MOL    H63 3703   7.215   1.817   0.663  1.5148  0.0770 -1.1391
   21MOL    H64 3704   7.189   1.959   0.767  0.6083  2.4579 -0.3025
   21MOL    C65 3705   7.297   1.914   0.241  0.0905  0.0738 -0.1471
   21MOL    C66 3706   7.222   1.994   0.129 -0.1365 -0.2996 -0.3072
   21MOL    C67 3707   7.249   1.771   0.229 -0.2854  0.0875  0.4407
   21MOL    O68 3708   7.154   1.732   0.160  0.3510  0.0025  0.5360
   21MOL    O69 3709   7.322   1.687   0.304 -0.0540 -0.3914 -0.1349
   21MOL    H70 3710   7.403   1.905   0.219 -0.1125  0.0111 -1.1076
   21MOL    H71 3711   7.126   2.035   0.160  0.5412 -0.7217  2.4401
   21MOL    H72 3712   7.289   2.076   0.102  1.1636 -0.9478  0.8774
   21MOL    H73 3713   7.217   1.948   0.030  0.9885 -0.3756 -0.3382
   21MOL    C74 3714   7.293   1.549   0.294  0.1058  0.6290  0.1263
   21MOL    C75 3715   7.352   1.481   0.413 -0.3665 -0.2489 -0.6555
   21MOL    C76 3716   7.367   1.492   0.168 -0.9249 -0.1509 -0.1070
   21MOL    O77 3717   7.456   1.561   0.114 -0.2455 -0.0535 -0.3974
   21MOL    O78 3718   7.332   1.365   0.135 -0.2470 -0.2227 -0.7854
   21MOL    H79 3719   7.186   1.532   0.289  0.1154  0.8738 -0.9131
   21MOL    H80 3720   7.309   1.507   0.510 -1.3003 -0.3486 -1.0400
   21MOL    H81 3721   7.322   1.376   0.410 -2.1518  0.1713  1.0722
   21MOL    H82 3722   7.457   1.501   0.434 -0.4277 -1.3947  0.8368
   21MOL    C83 3723   7.391   1.303   0.024  0.8583  0.4396 -0.0725
   21MOL    C84 3724   7.321   1.355   8.039 -0.1875  0.2505  0.2006
   21MOL    C85 3725   7.376   1.147   0.051  0.0694  0.1748 -0.2645
   21MOL    O86 3726   7.472   1.083   0.082  0.4886  0.5867 -0.1675
   21MOL    O87 3727   7.245   1.113   0.047 -0.6899  0.1586  0.0159
   21MOL    H88 3728   7.494   1.334   0.006  0.7363  1.4880  0.9515
   21MOL    H89 3729   7.375   1.444   8.005  0.1145 -0.1563 -0.3943
   21MOL    H90 3730   7.337   1.278   7.964 -0.4774  1.2003 -0.8598
   21MOL    H91 3731   7.216   1.371   8.067  0.3124  1.2690  1.5823
   21MOL    C92 3732   7.202   0.984   0.071 -0.8418  0.3240  0.0778
   21MOL    C93 3733   7.075   0.972   8.141  0.3173 -0.2322 -0.0933
   21MOL    C94 3734   7.182   0.959   0.224 -0.1213 -0.0947  0.2879
   21MOL    O95 3735   7.159   1.051   0.304 -0.5690  0.4897 -0.1852
   21MOL    O96 3736   7.188   0.828   0.258 -0.6400 -0.3635  0.5327
   21MOL    H97 3737   7.274   0.913   0.032  0.7237  1.5314  0.7443
   21MOL    H98 3738   7.105   1.001   8.040  3.8816  1.2955  1.3245
   21MOL    H99 3739   7.029   0.874   8.143  1.4823 -0.7983 -0.3037
   21MOL   H100 3740   7.011   1.055   0.023  0.0188 -0.3401 -0.4315
   21MOL   C101 3741   7.164   0.790   0.397  0.2418 -0.1837  0.0273
   21MOL   C102 3742   7.228   0.644   0.414 -0.1848 -0.6474  0.0050
   21MOL   C103 3743   7.013   0.794   0.434 -0.5903  0.2570 -1.0243
   21MOL   O104 3744   6.919   0.787   0.358 -0.2115  0.2569 -0.6864
   21MOL   O105 3745   6.995   0.774   0.565  0.7091  0.1445  0.1996
   21MOL   H106 3746   7.218   0.853   0.467 -2.5319  0.6219  1.5153
   21MOL   H107 3747   7.332   0.660   0.443  0.1904  1.1456 -2.1686
   21MOL   H108 3748   7.179   0.576   0.484 -1.8267  0.0444 -0.4426
   21MOL   H109 3749   7.224   0.588   0.321 -0.2062 -0.3653 -0.1670
   21MOL   C110 3750   6.865   0.750   0.626  0.2589 -0.6308 -0.1468
   21MOL   C111 3751   6.825   0.605   0.610  0.2590  0.4077 -0.0824
   21MOL   C112 3752   6.751   0.848   0.581 -0.4260 -0.4749  0.0542
   21MOL   O113 3753   6.634   0.808   0.559 -0.3497 -0.0445  0.3388
   21MOL   O114 3754   6.791   0.981   0.570  0.1560  0.6745 -0.3110
   21MOL   H115 3755   6.883   0.772   0.731 -1.1967  0.7633 -0.1757
   21MOL   H116 3756   6.855   0.573   0.511  0.4911  0.3129  0.0197
   21MOL   H117 3757   6.873   0.547   0.689 -0.1893  1.5336  1.0548
   21MOL   H118 3758   6.719   0.579   0.617  0.2486  0.4205 -0.2045
   21MOL   C119 3759   6.711   1.082   0.511 -0.2190  0.1740  0.1367
   21MOL   C120 3760   6.814   1.153   0.406 -0.3571  0.4392 -0.1288
   21MOL   C121 3761   6.656   1.176   0.618  0.4526 -0.2560  0.4111
   21MOL   O122 3762   6.700   1.169   0.734 -0.4063 -0.0970 -0.2063
   21MOL   O123 3763   6.566   1.268   0.569 -0.0740 -0.5936 -0.0079
   21MOL   H124 3764   6.628   1.058   0.445  2.0626 -0.4071 -2.6332
   21MOL   H125 3765   6.849   1.078   0.336 -5.0132  0.7082 -2.9423
   21MOL   H126 3766   6.778   1.234   0.343  0.6797  0.7428 -0.3309
   21MOL   H127 3767   6.891   1.204   0.465 -0.0031 -0.0634 -0.1541
   21MOL   C128 3768   6.532   1.386   0.647  0.4749  0.4157 -0.2428
   21MOL   C129 3769   6.396   1.423   0.593  0.0745 -0.1687  0.5999
   21MOL   C130 3770   6.636   1.500   0.636  0.7544 -0.6598 -0.0778
   21MOL   O131 3771   6.654   1.581   0.733  0.2892 -0.0833  0.3644
   21MOL   O132 3772   6.715   1.500   0.521  0.2680  0.5969  0.3826
   21MOL   H133 3773   6.510   1.358   0.750  0.8398 -3.9178 -1.2468
   21MOL   H134 3774   6.326   1.339   0.596 -0.2132  0.0416  0.0415
   21MOL   H135 3775   6.350   1.501   0.653  0.9511  1.2633 -0.5596
   21MOL   H136 3776   6.401   1.448   0.487  1.8397  2.2131  1.2117
   21MOL   C137 3777   6.833   1.575   0.513  1.0577  0.3611  0.6344
   21MOL   C138 3778   6.874   1.565   0.367  0.1778 -0.5495  0.4384
   21MOL   C139 3779   6.949   1.534   0.613  0.7664  0.3436  0.5723
   21MOL   O140 3780   7.052   1.483   0.576  0.1810  0.0968  0.2861
   21MOL   O141 3781   6.912   1.541   0.748  0.6185 -0.7756  0.3167
   21MOL   H142 3782   6.825   1.676   0.552  3.5723  0.4184  1.0658
   21MOL   H143 3783   6.959   1.626   0.338 -0.5685 -0.4789 -1.7057
   21MOL   H144 3784   6.891   1.458   0.358  2.7075 -0.2334  1.1376
   21MOL   H145 3785   6.792   1.586   0.297  0.1134  0.6125  0.8422
   21MOL   C146 3786   7.010   1.524   0.849 -0.3276  0.0861 -0.5810
   21MOL   C147 3787   6.918   1.488   0.969  0.2053 -0.0153  0.2706
   21MOL   C148 3788   7.081   1.662   0.879  0.0782 -0.9122  0.1253
   21MOL   O149 3789   7.028   1.770   0.860  0.7436 -0.4183 -0.2171
   21MOL   O150 3790   7.207   1.646   0.929 -0.3389 -0.0513  0.1100
   21MOL   H151 3791   7.083   1.445   0.830  2.2114  1.4949  2.7738
   21MOL   H152 3792   6.860   1.396   0.959 -0.2414  0.1592  1.2234
   21MOL   H153 3793   6.984   1.472   1.054  0.0646 -3.0930 -0.1248
   21MOL   H154 3794   6.841   1.559   0.999  1.1436  0.4390  1.6072
   21MOL   C155 3795   7.282   1.751   1.000  0.0063  0.1253  0.2903
   21MOL   C156 3796   7.426   1.733   0.945  0.1987 -0.2713 -0.3247
   21MOL   C157 3797   7.261   1.751   1.151  0.0188 -0.5101 -0.3373
   21MOL   O158 3798   7.268   1.856   1.212 -0.2104  0.6031  0.1673
   21MOL   O159 3799   7.247   1.630   1.212 -0.0418  0.1876  0.3628
   21MOL   H160 3800   7.240   1.847   0.972  0.8613  0.2806 -0.4563
   21MOL   H161 3801   7.465   1.634   0.968 -3.4094 -1.5373  0.6941
   21MOL   H162 3802   7.437   1.744   0.838 -3.7032  1.9703 -0.5813
   21MOL   H163 3803   7.490   1.808   0.992  0.0424 -0.0498 -0.4614
   21MOL   C164 3804   7.220   1.618   1.349  0.2403 -0.2417 -0.5255
   21MOL   C165 3805   7.263   1.474   1.373  0.3593 -0.2615 -0.2985
   21MOL   C166 3806   7.060   1.631   1.373 -0.7585  0.1696  0.1596
   21MOL   O167 3807   6.970   1.647   1.288 -0.4932 -0.1556  0.5369
   21MOL   O168 3808   7.035   1.628   1.505  0.4434 -0.4609  0.1558
   21MOL   H169 3809   7.287   1.682   1.407  1.5720 -2.1865  0.0966
   21MOL   H170 3810   7.210   1.410   1.302 -3.2085  0.7140  1.3321
   21MOL   H171 3811   7.366   1.460   1.342 -0.4627 -2.4393 -2.2523
   21MOL   H172 3812   7.252   1.438   1.476  1.7283  0.9489  0.2772
   21MOL   C173 3813   6.903   1.646   1.555  0.0201  0.3784  0.7914
   21MOL   C174 3814   6.908   1.725   1.687 -0.0494 -0.0763  0.0043
   21MOL   C175 3815   6.847   1.509   1.569 -0.2944 -0.1440 -0.4042
   21MOL   O176 3816   6.732   1.475   1.547  0.3722  0.2022 -0.1176
   21MOL   O177 3817   6.942   1.424   1.622 -0.0414  0.6454  0.3096
   21MOL   H178 3818   6.828   1.693   1.492 -1.6791 -0.2306  2.3089
   21MOL   H179 3819   6.808   1.755   1.718  0.3996  0.9291  0.4902
   21MOL   H180 3820   6.959   1.674   1.769  0.3507  2.1330  1.1620
   21MOL   H181 3821   6.958   1.821   1.673 -1.1948  0.4187 -0.8317
   21MOL   H182 3822   7.029   1.457   1.639  0.4358 -0.6544  0.4486
   22MOL     C1 3823   4.939   5.439   3.862 -0.3864 -0.1272  0.0878
   22MOL     C2 3824   4.902   5.532   3.747 -0.3811 -0.4607 -0.4644
   22MOL     C3 3825   5.079   5.381   3.841  0.2586  0.1157 -0.0097
   22MOL     O4 3826   5.095   5.293   3.754  0.5343 -0.4397  0.3065
   22MOL     O5 3827   5.176   5.425   3.926  0.0253 -0.0863 -0.0141
   22MOL     H6 3828   4.944   5.499   3.953  0.0418  0.1540 -0.1169
   22MOL     H7 3829   4.941   5.502   3.650  1.8268 -3.8072  1.3484
   22MOL     H8 3830   4.795   5.555   3.748 -0.0406  1.1986 -1.3347
   22MOL     H9 3831   4.954   5.624   3.773  0.6772 -0.7023 -1.7115
   22MOL    H10 3832   4.869   5.358   3.879  0.1484 -0.3956  1.0205
   22MOL    C11 3833   5.308   5.381   3.908  0.6079 -0.4442  0.3636
   22MOL    C12 3834   5.380   5.374   4.050  0.0644 -0.4278  0.0966
   22MOL    C13 3835   5.374   5.476   3.808  0.2864 -0.7747 -0.0475
   22MOL    O14 3836   5.322   5.575   3.758  0.0022 -0.3634 -0.4365
   22MOL    O15 3837   5.501   5.442   3.777  0.5436  0.1786  0.7508
   22MOL    H16 3838   5.294   5.279   3.872  0.7854 -0.0309 -0.8914
   22MOL    H17 3839   5.475   5.326   4.027  0.4532  1.1038 -1.6166
   22MOL    H18 3840   5.410   5.469   4.093  1.0919 -0.7615  0.1204
   22MOL    H19 3841   5.323   5.304   4.111  0.4859 -0.1730  0.7832
   22MOL    C20 3842   5.582   5.531   3.691  0.2140 -0.2495  0.0657
   22MOL    C21 3843   5.697   5.447   3.647  0.0452  0.3971 -0.6812
   22MOL    C22 3844   5.628   5.648   3.782 -0.7050 -0.0895 -0.6943
   22MOL    O23 3845   5.639   5.641   3.904 -0.0933  0.0875  0.4384
   22MOL    O24 3846   5.666   5.751   3.710 -0.1722  0.0522  0.3423
   22MOL    H25 3847   5.522   5.557   3.605  0.9846  1.2631 -0.0310
   22MOL    H26 3848   5.668   5.350   3.605  0.7121  0.2609 -0.8380
   22MOL    H27 3849   5.766   5.509   3.590  1.9465  2.4661  3.7294
   22MOL    H28 3850   5.754   5.406   3.730  2.4687  0.0298 -2.4415
   22MOL    C29 3851   5.731   5.864   3.774  1.0886  0.0512 -0.3801
   22MOL    C30 3852   5.745   5.970   3.667  0.1102 -0.9974 -0.5669
   22MOL    C31 3853   5.859   5.821   3.846  1.1200  0.4607  0.0010
   22MOL    O32 3854   5.873   5.846   3.969 -0.1835  0.4611  0.0256
   22MOL    O33 3855   5.944   5.756   3.764 -0.0588 -0.2467  0.3121
   22MOL    H34 3856   5.652   5.894   3.842  2.6944 -1.1290  2.0751
   22MOL    H35 3857   5.811   5.925   3.593  0.3174 -1.7083  0.0409
   22MOL    H36 3858   5.648   5.994   3.622 -0.2575 -2.3083 -0.4961
   22MOL    H37 3859   5.792   6.049   3.725 -1.8416 -0.0412 -0.2760
   22MOL    C38 3860   6.070   5.699   3.795 -0.2857 -0.1822  0.0064
   22MOL    C39 3861   6.111   5.612   3.677  0.5587 -0.0955  0.2047
   22MOL    C40 3862   6.064   5.603   3.912  0.1170 -0.8250 -0.5793
   22MOL    O41 3863   6.153   5.601   3.994  0.1374 -0.0250  0.9756
   22MOL    O42 3864   5.956   5.528   3.902  0.1855  0.6927  0.2248
   22MOL    H43 3865   6.142   5.778   3.817 -1.2344  1.2977 -2.0549
   22MOL    H44 3866   6.198   5.550   3.699  0.9712  0.5417  0.3764
   22MOL    H45 3867   6.030   5.548   3.640  0.6575  0.1732 -0.4814
   22MOL    H46 3868   6.131   5.677   3.592 -0.1362  0.6967  0.6399
   22MOL    C47 3869   5.915   5.428   3.999  0.2642 -0.1989  0.7851
   22MOL    C48 3870   5.866   5.504   4.133  0.2044  0.1734  0.1042
   22MOL    C49 3871   6.017   5.321   4.014 -0.2719 -0.6676  0.2046
   22MOL    O50 3872   6.041   5.277   4.129  0.1343  0.2194  0.1009
   22MOL    O51 3873   6.093   5.308   3.904 -0.6128  0.4599  0.0101
   22MOL    H52 3874   5.828   5.379   3.955  0.5284  0.5644 -0.5980
   22MOL    H53 3875   5.765   5.471   4.154  0.3850  1.2509  2.8872
   22MOL    H54 3876   5.937   5.482   4.213 -1.4420 -1.2480  1.2102
   22MOL    H55 3877   5.850   5.609   4.111 -1.5865  0.1965  1.4350
   22MOL    C56 3878   6.198   5.218   3.900 -0.2387  0.1783 -0.3552
   22MOL    C57 3879   6.283   5.266   3.781 -0.1858  0.1680  0.1670
   22MOL    C58 3880   6.157   5.074   3.880 -0.2441 -0.4005 -0.3553
   22MOL    O59 3881   6.036   5.050   3.859  0.0111 -0.2913  0.2055
   22MOL    O60 3882   6.251   4.987   3.885  0.5940  0.1905  0.4781
   22MOL    H61 3883   6.263   5.226   3.987 -0.1855  0.4911 -0.4237
   22MOL    H62 3884   6.384   5.225   3.792 -0.4578 -0.2339  1.1909
   22MOL    H63 3885   6.239   5.231   3.687  0.6728 -2.7755  0.7964
   22MOL    H64 3886   6.300   5.373   3.784  1.1966 -0.0718  1.4508
   22MOL    C65 3887   6.221   4.852   3.941 -0.5821 -0.6143 -0.2576
   22MOL    C66 3888   6.350   4.808   4.020  0.2275  0.3065 -0.1130
   22MOL    C67 3889   6.167   4.764   3.823 -0.2202  0.6393  0.1858
   22MOL    O68 3890   6.191   4.793   3.707 -0.1593 -0.2275 -0.0338
   22MOL    O69 3891   6.102   4.656   3.860  0.9342  0.2073 -0.3515
   22MOL    H70 3892   6.130   4.855   4.002 -0.3842  2.1244 -0.0576
   22MOL    H71 3893   6.353   4.701   4.041  0.0515  0.3178 -0.0328
   22MOL    H72 3894   6.438   4.828   3.959 -1.6880  0.0012 -3.0471
   22MOL    H73 3895   6.367   4.862   4.114  0.9819 -0.5406  0.2491
   22MOL    C74 3896   6.056   4.558   3.773  0.1527  0.3133  0.5056
   22MOL    C75 3897   5.953   4.472   3.837  0.1573  0.4955  0.3032
   22MOL    C76 3898   6.181   4.478   3.715 -0.2768  0.3247 -0.2252
   22MOL    O77 3899   6.285   4.468   3.780 -0.4087 -0.3463  0.1917
   22MOL    O78 3900   6.153   4.403   3.603  0.5314 -0.0150  0.0823
   22MOL    H79 3901   6.009   4.612   3.690 -1.3326 -1.1206  0.3829
   22MOL    H80 3902   5.899   4.413   3.763 -0.4105 -0.7606  1.7002
   22MOL    H81 3903   5.999   4.402   3.907  1.8563  0.8893 -0.4133
   22MOL    H82 3904   5.870   4.522   3.887 -0.3581  0.5602 -0.6004
   22MOL    C83 3905   6.257   4.311   3.552  0.7047 -0.3039  0.5686
   22MOL    C84 3906   6.205   4.246   3.416 -0.0826 -0.1292 -0.6927
   22MOL    C85 3907   6.308   4.200   3.645 -0.0333 -0.5124 -0.1738
   22MOL    O86 3908   6.421   4.151   3.636 -0.2632  0.3980  0.0729
   22MOL    O87 3909   6.208   4.159   3.730  0.8003 -0.1306 -0.1518
   22MOL    H88 3910   6.342   4.371   3.519 -1.0037  1.1823 -1.2097
   22MOL    H89 3911   6.100   4.222   3.435  0.4538 -0.4746  2.0293
   22MOL    H90 3912   6.209   4.314   3.331  1.5239 -0.3800 -0.8383
   22MOL    H91 3913   6.273   4.171   3.376 -0.5363 -0.3552 -1.0477
   22MOL    C92 3914   6.229   4.059   3.830 -0.0975  0.1261  0.4162
   22MOL    C93 3915   6.096   4.019   3.893 -0.2134  0.5725 -0.2535
   22MOL    C94 3916   6.340   4.110   3.934  0.1907 -0.0058  0.2540
   22MOL    O95 3917   6.444   4.045   3.959 -0.6115  0.4401  0.0244
   22MOL    O96 3918   6.288   4.215   4.004 -0.3112  0.4804  0.0632
   22MOL    H97 3919   6.269   3.978   3.768 -0.4030 -1.7637  2.5999
   22MOL    H98 3920   6.035   4.102   3.930 -1.1586  0.1479 -0.8387
   22MOL    H99 3921   6.036   3.969   3.818 -1.7268 -1.1224  2.0310
   22MOL   H100 3922   6.115   3.959   3.982 -1.5417  2.8408  1.6229
   22MOL   C101 3923   6.356   4.294   4.106 -0.8651 -0.3172  0.0026
   22MOL   C102 3924   6.273   4.418   4.131 -0.1634  0.6686  0.7294
   22MOL   C103 3925   6.504   4.326   4.078 -0.1137  0.5354 -0.5452
   22MOL   O104 3926   6.589   4.244   4.118 -0.0488 -0.4308  0.3546
   22MOL   O105 3927   6.524   4.443   4.011  0.4134 -0.1223 -0.4329
   22MOL   H106 3928   6.355   4.236   4.199 -0.7315  1.3974  1.0824
   22MOL   H107 3929   6.272   4.472   4.037 -0.2330 -0.8479 -0.1565
   22MOL   H108 3930   6.174   4.384   4.162  0.1512 -0.1559  0.8480
   22MOL   H109 3931   6.323   4.484   4.202  0.3930  0.3556  0.6271
   22MOL   C110 3932   6.657   4.496   4.005 -0.5246  0.0949 -0.5792
   22MOL   C111 3933   6.675   4.602   4.110  0.8103  0.1718  0.5556
   22MOL   C112 3934   6.691   4.556   3.861  0.3879 -0.5622  0.0221
   22MOL   O113 3935   6.797   4.543   3.799  0.1466  0.3831 -0.4372
   22MOL   O114 3936   6.587   4.635   3.823 -0.1607  0.2038  0.2827
   22MOL   H115 3937   6.734   4.423   4.029 -1.2869 -1.0131 -1.4781
   22MOL   H116 3938   6.774   4.646   4.095  0.9863 -0.5383 -0.3992
   22MOL   H117 3939   6.597   4.677   4.102 -1.2447 -1.9464  0.2402
   22MOL   H118 3940   6.675   4.556   4.209  2.0172  0.0989  0.5343
   22MOL   C119 3941   6.588   4.705   3.701  0.2256 -0.5208  0.3007
   22MOL   C120 3942   6.550   4.599   3.588  0.6045  0.0405 -0.1727
   22MOL   C121 3943   6.718   4.787   3.679 -0.7476 -0.2022 -0.0021
   22MOL   O122 3944   6.779   4.780   3.575 -0.4863 -0.8583 -0.0973
   22MOL   O123 3945   6.750   4.869   3.788  0.0613  0.0304  0.0965
   22MOL   H124 3946   6.509   4.780   3.702 -0.4500 -1.2217  3.2781
   22MOL   H125 3947   6.600   4.502   3.585 -2.0887 -1.3327 -2.9134
   22MOL   H126 3948   6.446   4.568   3.586  0.8236 -0.6831 -0.7539
   22MOL   H127 3949   6.557   4.643   3.488 -1.2385  0.3890 -0.1504
   22MOL   C128 3950   6.864   4.954   3.794  0.4481 -0.4706  0.4913
   22MOL   C129 3951   6.990   4.898   3.862 -0.8209  0.1398  0.8007
   22MOL   C130 3952   6.829   5.087   3.868 -0.3463 -0.0132  0.0741
   22MOL   O131 3953   6.907   5.180   3.875 -0.6214 -0.5575 -0.6409
   22MOL   O132 3954   6.715   5.084   3.928 -0.1378 -0.0801 -0.2199
   22MOL   H133 3955   6.899   4.981   3.695  2.0917 -0.0082  1.1810
   22MOL   H134 3956   7.025   4.815   3.801  0.1570  0.2388  1.2056
   22MOL   H135 3957   7.072   4.969   3.878 -0.2094 -0.7549  1.6833
   22MOL   H136 3958   6.969   4.865   3.964 -2.2928 -0.4835  0.3101
   22MOL   C137 3959   6.694   5.158   4.049  0.1021  0.0936 -0.1743
   22MOL   C138 3960   6.648   5.045   4.148 -0.1011  0.4777 -0.0668
   22MOL   C139 3961   6.585   5.261   4.030  0.1572 -0.2582  0.5692
   22MOL   O140 3962   6.480   5.267   4.100 -0.8085  0.3549 -0.3359
   22MOL   O141 3963   6.602   5.347   3.927  0.1768  0.3812 -0.0457
   22MOL   H142 3964   6.786   5.208   4.082  0.4219 -0.2664 -0.5076
   22MOL   H143 3965   6.565   4.986   4.108 -0.1013 -0.3131  1.0843
   22MOL   H144 3966   6.736   4.983   4.166  1.4965  2.9559  0.9694
   22MOL   H145 3967   6.614   5.078   4.246 -2.4021 -0.1834 -0.6221
   22MOL   C146 3968   6.532   5.467   3.927  0.4541 -0.1639  0.7969
   22MOL   C147 3969   6.541   5.529   3.784  0.2587 -0.5616  0.7520
   22MOL   C148 3970   6.591   5.561   4.038  0.5062  0.8232  0.6300
   22MOL   O149 3971   6.677   5.526   4.116  0.1717  0.6119  0.0699
   22MOL   O150 3972   6.532   5.686   4.033  0.3575  0.6437 -0.2295
   22MOL   H151 3973   6.429   5.448   3.958  0.0703 -0.7322 -0.7867
   22MOL   H152 3974   6.640   5.515   3.740  1.1401  0.7410  2.2890
   22MOL   H153 3975   6.478   5.478   3.711 -0.5734 -0.3537  1.3261
   22MOL   H154 3976   6.506   5.632   3.777 -3.3494 -1.7936 -0.9696
   22MOL   C155 3977   6.576   5.797   4.112  0.2360 -0.2927 -0.2092
   22MOL   C156 3978   6.490   5.920   4.088 -0.2910  0.0310  0.4680
   22MOL   C157 3979   6.723   5.829   4.075 -0.5766 -0.2124  0.3551
   22MOL   O158 3980   6.767   5.831   3.960 -0.6265  0.1962 -0.2689
   22MOL   O159 3981   6.792   5.844   4.189  0.4663 -0.1994  0.3569
   22MOL   H160 3982   6.576   5.776   4.219  2.4643  0.6384 -0.0011
   22MOL   H161 3983   6.391   5.909   4.131  0.1502  1.7904  2.0074
   22MOL   H162 3984   6.528   6.005   4.145  0.6042  0.1713 -0.3146
   22MOL   H163 3985   6.468   5.929   3.982 -0.6346 -0.6458  0.4756
   22MOL   C164 3986   6.925   5.871   4.196 -0.4248 -0.4477  0.0495
   22MOL   C165 3987   6.986   5.783   4.308 -0.7039 -0.5087  0.0694
   22MOL   C166 3988   6.947   6.021   4.216  0.3187 -0.1447  0.0227
   22MOL   O167 3989   7.026   6.069   4.298  0.4720 -0.0572 -0.1139
   22MOL   O168 3990   6.867   6.096   4.137 -0.0520  0.6570 -0.1491
   22MOL   H169 3991   6.983   5.845   4.107 -0.2464 -0.0112  0.0373
   22MOL   H170 3992   6.945   5.817   4.403 -0.2264 -1.5221  0.6477
   22MOL   H171 3993   6.971   5.675   4.300  3.2707 -1.0379 -1.6611
   22MOL   H172 3994   7.093   5.800   4.295 -0.8348  1.2901  1.2872
   22MOL   C173 3995   6.861   6.236   4.132 -0.2358  0.0694 -0.4634
   22MOL   C174 3996   6.727   6.292   4.169 -0.0802  0.1687  0.2421
   22MOL   C175 3997   6.918   6.294   4.000 -0.6767 -0.1366  0.0031
   22MOL   O176 3998   7.031   6.344   3.984  0.0649 -0.7029  0.3677
   22MOL   O177 3999   6.839   6.256   3.896 -0.1510 -0.4080 -0.2558
   22MOL   H178 4000   6.927   6.286   4.203 -0.8960  0.5646 -0.1918
   22MOL   H179 4001   6.733   6.401   4.170  1.2574  0.1061 -0.1987
   22MOL   H180 4002   6.650   6.256   4.101 -0.3735  0.1698  0.5680
   22MOL   H181 4003   6.704   6.255   4.270  0.3751 -0.6858  0.0383
   22MOL   H182 4004   6.882   6.269   3.813 -0.3781  1.7202 -0.0537
   23MOL     C1 4005   7.721   3.154   7.558  0.4589  0.1518 -0.5420
   23MOL     C2 4006   7.601   3.254   7.581 -0.1510  0.4838  0.4181
   23MOL     C3 4007   7.859   3.216   7.576 -0.3266  0.2202 -0.2351
   23MOL     O4 4008   7.952   3.170   7.646 -0.1180  0.1979  0.1341
   23MOL     O5 4009   7.871   3.325   7.501  0.9933  0.1419 -0.0283
   23MOL     H6 4010   7.725   3.066   7.623 -0.6728  0.3948 -0.1347
   23MOL     H7 4011   7.623   3.358   7.558 -0.7495  0.5869  0.3132
   23MOL     H8 4012   7.503   3.228   7.541  0.2241 -1.1275  0.4921
   23MOL     H9 4013   7.582   3.258   7.689  1.5813  1.3387  0.7034
   23MOL    H10 4014   7.731   3.130   7.452  1.0227 -2.1699  0.0001
   23MOL    C11 4015   7.975   3.417   7.517  0.3490 -0.1512  0.0400
   23MOL    C12 4016   7.928   3.550   7.460  0.3197 -0.3558 -0.3636
   23MOL    C13 4017   8.102   3.379   7.435 -0.3615  0.3538  0.2612
   23MOL    O14 4018   8.091   3.353   7.315 -0.6453 -0.3239 -0.2658
   23MOL    O15 4019   0.070   3.375   7.503 -0.2726  0.4949  0.1758
   23MOL    H16 4020   7.996   3.423   7.624  0.2767  1.0887 -0.0056
   23MOL    H17 4021   7.843   3.581   7.521 -0.5952  0.3757 -1.9668
   23MOL    H18 4022   8.003   3.627   7.442 -0.5869  0.2095 -1.7703
   23MOL    H19 4023   7.888   3.541   7.359 -2.1166  0.4504  0.4832
   23MOL    C20 4024   0.196   3.361   7.440 -0.2504  0.3298 -0.4122
   23MOL    C21 4025   0.232   3.493   7.383 -0.3466 -0.1938 -0.4905
   23MOL    C22 4026   0.212   3.237   7.341  0.5053 -0.0148  0.6368
   23MOL    O23 4027   0.267   3.237   7.229  0.2510 -0.2646  0.2520
   23MOL    O24 4028   0.176   3.126   7.409 -0.0099 -0.3454  0.3785
   23MOL    H25 4029   0.253   3.349   7.532 -2.0279  0.9034  0.7755
   23MOL    H26 4030   0.235   3.563   7.467  2.0294 -0.4329 -0.3499
   23MOL    H27 4031   0.334   3.478   7.347 -0.4065  0.8405 -1.1444
   23MOL    H28 4032   0.159   3.509   7.304 -0.5812 -0.6237 -0.3565
   23MOL    C29 4033   0.211   2.999   7.359  0.4349 -0.1238 -1.0426
   23MOL    C30 4034   0.117   2.897   7.418  0.3377  0.3750  0.0753
   23MOL    C31 4035   0.358   2.975   7.389 -0.4338  0.2266  0.2126
   23MOL    O32 4036   0.430   3.052   7.451  0.4442 -0.0040 -0.0883
   23MOL    O33 4037   0.400   2.853   7.342  0.5488  0.0611  0.0686
   23MOL    H34 4038   0.199   2.996   7.250  0.9133 -1.2077 -1.0624
   23MOL    H35 4039   0.047   2.946   7.486 -0.8482 -0.8391 -0.2653
   23MOL    H36 4040   0.049   2.870   7.338  1.1784 -0.9689 -0.1991
   23MOL    H37 4041   0.166   2.813   7.466 -0.5225  1.8977  3.8536
   23MOL    C38 4042   0.536   2.821   7.359 -0.2479  0.3116  0.0048
   23MOL    C39 4043   0.557   2.702   7.256  0.9255  0.3957  0.1252
   23MOL    C40 4044   0.583   2.795   7.506  0.1334  0.2703  0.3572
   23MOL    O41 4045   0.504   2.781   7.597  0.6719 -0.3448 -0.1369
   23MOL    O42 4046   0.718   2.778   7.516  0.1803 -0.9251  0.2689
   23MOL    H43 4047   0.601   2.903   7.330 -1.7189  1.0789 -1.1788
   23MOL    H44 4048   0.484   2.622   7.256  2.2209 -0.8122 -0.6441
   23MOL    H45 4049   0.577   2.734   7.154 -0.2854 -0.3358 -0.3504
   23MOL    H46 4050   0.650   2.660   7.296  1.3943  0.5577 -0.7867
   23MOL    C47 4051   0.784   2.742   7.639  0.4908 -0.2082 -0.1055
   23MOL    C48 4052   0.916   2.817   7.635 -1.0466 -0.0621 -0.2563
   23MOL    C49 4053   0.802   2.589   7.649 -0.3989  0.3440 -0.9884
   23MOL    O50 4054   0.819   2.512   7.554 -0.2134 -0.5553 -0.4730
   23MOL    O51 4055   0.816   2.546   7.776 -0.3965  0.3528  0.1532
   23MOL    H52 4056   0.729   2.778   7.726  1.0303 -0.5302  0.3668
   23MOL    H53 4057   0.975   2.812   7.726  0.9162  1.1503 -1.4395
   23MOL    H54 4058   0.973   2.773   7.553 -2.5346 -1.3888 -0.6139
   23MOL    H55 4059   0.912   2.924   7.613 -0.7204  0.6463  2.9501
   23MOL    C56 4060   0.858   2.420   7.818 -0.0196  0.6526  0.5183
   23MOL    C57 4061   0.725   2.333   7.828 -0.3475 -0.1836  0.2053
   23MOL    C58 4062   0.926   2.438   7.951  0.1700  0.1693  0.0462
   23MOL    O59 4063   0.868   2.422   8.056  0.2391  0.0182 -0.1450
   23MOL    O60 4064   1.055   2.476   7.942 -0.0848  0.1801  0.2683
   23MOL    H61 4065   0.938   2.380   7.757  1.5328  1.9573  1.6434
   23MOL    H62 4066   0.756   2.233   7.861  1.2833  0.5141  0.8236
   23MOL    H63 4067   0.645   2.364   7.895  1.8878  0.5839  2.6045
   23MOL    H64 4068   0.680   2.314   7.730 -1.1188  0.8548  0.3560
   23MOL    C65 4069   1.121   2.540   8.052  0.4257 -0.1471  0.0337
   23MOL    C66 4070   1.108   2.687   8.015  0.1745 -0.6202  0.6313
   23MOL    C67 4071   1.272   2.489   8.053 -0.5059 -0.0060 -0.2390
   23MOL    O68 4072   1.364   2.570   8.062 -0.1268 -0.1483 -0.7311
   23MOL    O69 4073   1.292   2.353   8.053 -0.3907 -0.0374  0.1578
   23MOL    H70 4074   1.071   2.531   0.001 -2.5310  0.1141 -1.4093
   23MOL    H71 4075   1.147   2.705   7.915  2.7487 -1.4071  1.4479
   23MOL    H72 4076   1.006   2.726   8.013 -0.0211 -1.1021  0.9112
   23MOL    H73 4077   1.173   2.736   8.087  0.4192  1.7434 -1.1407
   23MOL    C74 4078   1.425   2.295   8.063  0.1024  0.0474 -0.3044
   23MOL    C75 4079   1.402   2.142   8.047 -0.4536 -0.3428  0.6315
   23MOL    C76 4080   1.496   2.324   0.048  0.5291 -0.9132 -0.3105
   23MOL    O77 4081   1.430   2.350   0.147 -0.1855  0.2924 -0.2870
   23MOL    O78 4082   1.630   2.295   0.046 -0.1549  0.6154 -0.0864
   23MOL    H79 4083   1.490   2.339   7.988 -0.0894 -2.6057 -2.0972
   23MOL    H80 4084   1.496   2.094   8.075  1.1962  1.7378 -1.1425
   23MOL    H81 4085   1.320   2.115   8.113 -0.6708 -0.6831  0.2300
   23MOL    H82 4086   1.376   2.109   7.947  0.2272  0.6026  0.1330
   23MOL    C83 4087   1.711   2.276   0.163  0.4356  0.3653 -0.0461
   23MOL    C84 4088   1.853   2.248   0.115 -0.3835 -0.2677 -0.0212
   23MOL    C85 4089   1.654   2.152   0.235 -0.2188  0.1387 -0.0641
   23MOL    O86 4090   1.560   2.080   0.190 -0.1896  0.2613 -0.7960
   23MOL    O87 4091   1.716   2.124   0.350 -0.4988  0.0736  0.4992
   23MOL    H88 4092   1.705   2.366   0.225 -0.6835 -0.4388  1.0406
   23MOL    H89 4093   1.916   2.210   0.197  1.3489  2.9343  0.2021
   23MOL    H90 4094   1.858   2.189   0.023  0.5832 -1.1354  0.5753
   23MOL    H91 4095   1.891   2.346   0.085 -1.3519  0.7000  1.8209
   23MOL    C92 4096   1.689   2.000   0.424  0.3016 -0.4559 -0.4142
   23MOL    C93 4097   1.777   2.002   0.547  0.0106  0.3441 -0.6513
   23MOL    C94 4098   1.721   1.871   0.339  0.2232  0.2954  1.5868
   23MOL    O95 4099   1.802   1.876   0.250 -0.4588  0.1429  1.0502
   23MOL    O96 4100   1.658   1.771   0.388 -0.3784  0.0054  0.1708
   23MOL    H97 4101   1.584   2.003   0.452  0.5934  1.5151  0.5330
   23MOL    H98 4102   1.795   1.903   0.587  1.4574  0.6728 -0.4530
   23MOL    H99 4103   1.873   2.047   0.522  0.0522  1.2700  1.0796
   23MOL   H100 4104   1.730   2.056   0.630 -0.6689  0.6652 -1.2440
   23MOL   C101 4105   1.661   1.634   0.330  0.1153  0.5559 -0.2826
   23MOL   C102 4106   1.795   1.572   0.364  0.8747 -0.0324  0.1755
   23MOL   C103 4107   1.637   1.632   0.177  0.4120 -0.9883  0.2877
   23MOL   O104 4108   1.719   1.587   0.095 -0.7165 -0.1691 -0.3439
   23MOL   O105 4109   1.508   1.683   0.149  0.6194  0.3087  0.4425
   23MOL   H106 4110   1.579   1.585   0.382  0.6281  1.1868  1.1485
   23MOL   H107 4111   1.810   1.587   0.471  0.9859  0.0946  0.1415
   23MOL   H108 4112   1.809   1.471   0.327  2.8209  0.1299  0.4123
   23MOL   H109 4113   1.877   1.626   0.318  1.0660 -1.3814 -1.1000
   23MOL   C110 4114   1.453   1.657   0.022 -0.4457  0.4019 -0.4388
   23MOL   C111 4115   1.502   1.772   8.082  0.1393  0.4541 -0.5115
   23MOL   C112 4116   1.301   1.658   0.023  0.0876  0.4366 -0.6171
   23MOL   O113 4117   1.242   1.686   0.127 -0.2110 -0.0026  0.5001
   23MOL   O114 4118   1.243   1.626   8.049 -0.5921  0.1255  0.5938
   23MOL   H115 4119   1.494   1.564   8.129 -1.8949 -0.5300  0.1933
   23MOL   H116 4120   1.465   1.771   7.979  3.4261 -1.4969 -1.7302
   23MOL   H117 4121   1.490   1.872   8.124 -1.3487  0.3046 -0.5358
   23MOL   H118 4122   1.608   1.761   8.059  0.2951  1.9531 -0.5419
   23MOL   C119 4123   1.106   1.638   8.035 -0.2164 -0.3015 -0.2866
   23MOL   C120 4124   1.052   1.778   8.038  0.2236  0.5736  0.0219
   23MOL   C121 4125   1.026   1.539   8.121 -0.0942 -0.0984  0.3658
   23MOL   O122 4126   0.920   1.570   0.028  0.5557 -0.2318  0.3747
   23MOL   O123 4127   1.065   1.403   8.103 -0.0312 -0.2947 -0.0025
   23MOL   H124 4128   1.105   1.614   7.929 -0.9486  0.1259 -0.3757
   23MOL   H125 4129   0.943   1.784   8.047  0.2819  0.8060  0.5663
   23MOL   H126 4130   1.066   1.832   8.131 -0.5793  0.4194  0.2399
   23MOL   H127 4131   1.088   1.847   7.962  2.4367 -0.1007  0.4295
   23MOL   C128 4132   1.003   1.286   0.029 -0.4777  0.2114  0.3783
   23MOL   C129 4133   0.864   1.268   8.108 -0.6947  0.2032  0.0241
   23MOL   C130 4134   0.993   1.312   0.179 -0.9196 -0.4025 -0.0598
   23MOL   O131 4135   0.886   1.287   0.243 -0.1906 -0.2189  0.1208
   23MOL   O132 4136   1.117   1.340   0.227  0.2439 -0.5529 -0.0879
   23MOL   H133 4137   1.065   1.201   0.002  0.0167  1.1784 -1.6495
   23MOL   H134 4138   0.880   1.309   8.008  0.1080  0.8333  0.4090
   23MOL   H135 4139   0.827   1.165   8.105 -0.7383  0.1941  0.7677
   23MOL   H136 4140   0.784   1.316   0.017 -1.2803 -2.3373  1.4494
   23MOL   C137 4141   1.129   1.353   0.372  0.5048  0.2746  1.2475
   23MOL   C138 4142   1.238   1.445   0.416  0.1197 -0.3343  0.2366
   23MOL   C139 4143   1.151   1.208   0.434  0.6023 -0.6634  0.0884
   23MOL   O140 4144   1.181   1.111   0.362  0.0355 -0.5645 -0.1162
   23MOL   O141 4145   1.117   1.203   0.565  0.8129 -0.2097  0.4688
   23MOL   H142 4146   1.032   1.389   0.405  0.0822  1.4607 -1.1517
   23MOL   H143 4147   1.245   1.451   0.524 -0.1620  0.0199  0.2374
   23MOL   H144 4148   1.340   1.415   0.391  0.1994 -0.9010  1.2310
   23MOL   H145 4149   1.223   1.544   0.373 -2.0812 -1.4939 -1.7981
   23MOL   C146 4150   1.099   1.081   0.636 -0.5659  0.1025 -0.3179
   23MOL   C147 4151   0.966   1.106   0.708 -1.0173 -1.1378 -0.1773
   23MOL   C148 4152   1.212   1.060   0.733 -0.8066 -0.3167  0.3410
   23MOL   O149 4153   1.276   0.957   0.714 -0.6226  0.0546 -0.0871
   23MOL   O150 4154   1.236   1.157   0.828 -0.0544 -0.4977 -0.2387
   23MOL   H151 4155   1.103   1.001   0.562 -3.4538  0.3642 -0.8177
   23MOL   H152 4156   0.949   1.035   0.790 -3.5008 -0.2490  0.1106
   23MOL   H153 4157   0.966   1.195   0.770 -0.3492 -0.2878 -1.3812
   23MOL   H154 4158   0.874   1.104   0.651 -0.0048 -1.3130 -1.8313
   23MOL   C155 4159   1.338   1.144   0.930  0.8868  0.0797  0.5345
   23MOL   C156 4160   1.312   1.232   1.058 -0.4971  0.4263  0.2164
   23MOL   C157 4161   1.478   1.157   0.866 -0.4262 -0.0289 -0.3941
   23MOL   O158 4162   1.553   1.059   0.852 -0.2772  0.2332  0.0124
   23MOL   O159 4163   1.504   1.284   0.823  0.2049 -0.0831 -0.0202
   23MOL   H160 4164   1.348   1.044   0.972 -1.1002  1.1710  3.7992
   23MOL   H161 4165   1.375   1.192   1.137  0.0523  0.9961  0.0739
   23MOL   H162 4166   1.335   1.337   1.041  1.7604 -0.1855 -0.6922
   23MOL   H163 4167   1.208   1.216   1.087  0.5009 -2.4154  2.4240
   23MOL   C164 4168   1.619   1.330   0.754 -0.3049  0.7184  0.4690
   23MOL   C165 4169   1.619   1.478   0.772 -0.0527  0.1312  0.2168
   23MOL   C166 4170   1.612   1.278   0.603  1.0527  0.2025  0.3519
   23MOL   O167 4171   1.595   1.359   0.513 -0.5453  1.0296  0.3334
   23MOL   O168 4172   1.632   1.144   0.586 -0.9272  0.6562  0.4782
   23MOL   H169 4173   1.708   1.279   0.791  0.1726  1.7703  0.7873
   23MOL   H170 4174   1.525   1.516   0.733 -0.3331 -1.6271 -0.8607
   23MOL   H171 4175   1.611   1.514   0.875  1.9948 -0.6945  0.6788
   23MOL   H172 4176   1.696   1.527   0.713  0.9200  2.1039  3.0117
   23MOL   C173 4177   1.609   1.087   0.460 -0.9480  0.5061 -0.0496
   23MOL   C174 4178   1.572   0.942   0.474 -0.2585  0.0891 -0.3912
   23MOL   C175 4179   1.718   1.108   0.354  0.3705 -0.2475 -0.4548
   23MOL   O176 4180   1.712   1.181   0.259  0.1454  0.3920 -0.3512
   23MOL   O177 4181   1.826   1.035   0.383 -0.0581 -0.2833 -0.4030
   23MOL   H178 4182   1.522   1.132   0.412 -1.3024  0.0722  0.1885
   23MOL   H179 4183   1.476   0.923   0.523 -0.6680  1.9024 -0.4539
   23MOL   H180 4184   1.569   0.898   0.374 -0.2298  1.5131 -1.0315
   23MOL   H181 4185   1.645   0.898   0.542 -1.1837  2.0051  1.9059
   23MOL   H182 4186   1.894   1.047   0.318  0.6858 -1.1236  0.2064
   24MOL     C1 4187   2.172   7.954   2.197  0.0798  0.0370  0.0009
   24MOL     C2 4188   2.178   7.936   2.046  0.0567 -0.4440 -0.3414
   24MOL     C3 4189   2.170   8.099   2.236 -0.5849  0.0527  0.8980
   24MOL     O4 4190   2.112   0.037   2.171 -0.6174  0.0533 -0.5535
   24MOL     O5 4191   2.240   8.128   2.354  0.0743  0.4927  0.9228
   24MOL     H6 4192   2.075   7.915   2.228 -0.5709 -0.1179 -2.1460
   24MOL     H7 4193   2.191   7.833   2.013  0.0223 -0.2668 -0.9205
   24MOL     H8 4194   2.082   7.963   2.002  0.3264  0.4299 -0.3944
   24MOL     H9 4195   2.260   7.989   1.996  0.3123  0.0063  0.5510
   24MOL    H10 4196   2.252   7.905   2.253  0.6716  0.3958 -0.5268
   24MOL    C11 4197   2.247   0.114   2.399 -0.2137  0.1824 -0.4092
   24MOL    C12 4198   2.349   0.114   2.509 -0.7052  0.3857  0.1807
   24MOL    C13 4199   2.113   0.173   2.456  0.6260 -0.7821  0.1451
   24MOL    O14 4200   2.039   0.099   2.518  0.2418 -0.5741  0.1708
   24MOL    O15 4201   2.096   0.302   2.435 -0.0327 -0.4388 -0.7228
   24MOL    H16 4202   2.293   0.166   2.315 -0.8889  0.2223 -0.7569
   24MOL    H17 4203   2.446   0.082   2.472 -0.2776  0.5552  1.1468
   24MOL    H18 4204   2.363   0.215   2.548 -0.4958  0.6691 -0.6105
   24MOL    H19 4205   2.322   0.038   2.582 -1.4027 -0.1925 -0.6752
   24MOL    C20 4206   1.983   0.386   2.478 -0.7760 -0.2663  0.3959
   24MOL    C21 4207   2.006   0.522   2.413 -0.2231 -0.3052  0.1439
   24MOL    C22 4208   1.987   0.402   2.634 -0.4465 -0.3197 -0.2610
   24MOL    O23 4209   2.089   0.442   2.691 -0.0720  0.3761 -0.2974
   24MOL    O24 4210   1.866   0.371   2.698 -0.0132 -0.1962  0.6198
   24MOL    H25 4211   1.889   0.341   2.446 -2.8302  2.8442  1.6963
   24MOL    H26 4212   2.026   0.513   2.307  3.6476 -1.3758  0.8745
   24MOL    H27 4213   1.921   0.590   2.416 -0.2288 -0.3046 -0.0334
   24MOL    H28 4214   2.095   0.571   2.453  0.7686 -1.9489  0.0083
   24MOL    C29 4215   1.853   0.378   2.844 -0.5868 -0.2081 -0.2264
   24MOL    C30 4216   1.709   0.326   2.863  0.0018  0.1768 -0.8290
   24MOL    C31 4217   1.871   0.524   2.897 -0.6168 -0.0564  0.5753
   24MOL    O32 4218   1.964   0.552   2.974 -0.2595  0.3478 -0.3416
   24MOL    O33 4219   1.783   0.609   2.839 -0.2745 -0.1835 -0.4498
   24MOL    H34 4220   1.933   0.315   2.882 -1.5533 -1.0723  0.3739
   24MOL    H35 4221   1.679   0.242   2.800 -0.3502 -1.3172  1.2425
   24MOL    H36 4222   1.709   0.277   2.961 -0.1414  1.4023 -0.2155
   24MOL    H37 4223   1.630   0.401   2.864 -2.4180 -2.2114  2.6378
   24MOL    C38 4224   1.821   0.750   2.838  0.2656  1.1337  0.2101
   24MOL    C39 4225   1.701   0.844   2.801 -0.4811 -0.1083 -0.2845
   24MOL    C40 4226   1.928   0.773   2.738 -0.6125 -0.0016  0.0613
   24MOL    O41 4227   1.918   0.707   2.634  0.2774  0.4319 -0.4070
   24MOL    O42 4228   2.019   0.868   2.770  0.8110 -0.0494 -0.2381
   24MOL    H43 4229   1.865   0.777   2.934  0.3785 -0.7233  0.7038
   24MOL    H44 4230   1.654   0.829   2.704 -1.1659  0.1094  0.0114
   24MOL    H45 4231   1.627   0.825   2.879 -0.5684 -1.3107 -0.6481
   24MOL    H46 4232   1.719   0.952   2.802  0.8899 -0.3263  0.8878
   24MOL    C47 4233   2.123   0.898   2.673  0.7754 -0.8038  0.0391
   24MOL    C48 4234   2.216   0.987   2.752  0.5658 -0.6496 -0.2172
   24MOL    C49 4235   2.069   0.960   2.544 -0.1902 -0.2825  0.0172
   24MOL    O50 4236   2.104   0.926   2.431  0.7522  0.2467 -0.4108
   24MOL    O51 4237   1.984   1.071   2.575  0.0472 -0.3553 -0.0677
   24MOL    H52 4238   2.182   0.810   2.645 -0.3468 -1.7944  0.7552
   24MOL    H53 4239   2.150   1.067   2.786  1.1409 -0.4088  0.3359
   24MOL    H54 4240   2.253   0.927   2.835  0.5185 -0.1983  0.1294
   24MOL    H55 4241   2.297   1.012   2.684 -1.0925  0.5978 -1.7686
   24MOL    C56 4242   1.933   1.147   2.472 -0.3311  0.7767  0.7884
   24MOL    C57 4243   1.983   1.291   2.481  0.6847  0.5830  0.6038
   24MOL    C58 4244   1.781   1.153   2.499  0.0797  0.0620  0.6858
   24MOL    O59 4245   1.729   1.153   2.613  0.2275  0.4243  0.1181
   24MOL    O60 4246   1.721   1.159   2.380 -0.3842  0.9203 -0.9844
   24MOL    H61 4247   1.956   1.112   2.372 -1.7380  2.5142 -0.1599
   24MOL    H62 4248   1.940   1.350   2.561  0.2140 -0.3148  1.0215
   24MOL    H63 4249   2.091   1.302   2.469  0.7676 -0.4600  0.3673
   24MOL    H64 4250   1.949   1.336   2.387 -0.8410  0.5713  1.1448
   24MOL    C65 4251   1.582   1.186   2.376  0.7134 -0.6423 -0.0260
   24MOL    C66 4252   1.515   1.177   2.234 -0.8731  0.3561  0.3626
   24MOL    C67 4253   1.553   1.320   2.442 -0.2166 -0.3196  0.4074
   24MOL    O68 4254   1.470   1.328   2.534  0.0973  0.6061 -0.2491
   24MOL    O69 4255   1.627   1.418   2.393 -0.6177  0.0625 -0.0052
   24MOL    H70 4256   1.547   1.104   2.439 -0.7213  1.0591  1.4356
   24MOL    H71 4257   1.410   1.160   2.256 -0.6281  0.4459  1.6212
   24MOL    H72 4258   1.524   1.267   2.173 -1.9678  1.3041  1.5595
   24MOL    H73 4259   1.554   1.093   2.176 -3.4486 -1.3345  0.9749
   24MOL    C74 4260   1.594   1.555   2.394 -0.5526 -0.2467  0.4927
   24MOL    C75 4261   1.665   1.632   2.284  0.3280  0.0113  0.2098
   24MOL    C76 4262   1.637   1.599   2.535  0.4785  0.1190  0.6424
   24MOL    O77 4263   1.738   1.557   2.587 -0.3249  0.4729  1.0352
   24MOL    O78 4264   1.558   1.690   2.583 -0.0794 -0.0549 -0.0497
   24MOL    H79 4265   1.487   1.565   2.378 -0.7506 -1.9121  0.6486
   24MOL    H80 4266   1.635   1.736   2.302 -0.1091  0.0212 -0.5786
   24MOL    H81 4267   1.772   1.610   2.284 -0.1823 -2.7885 -2.2325
   24MOL    H82 4268   1.628   1.609   2.185  0.4178 -1.1820  0.4509
   24MOL    C83 4269   1.574   1.758   2.709 -0.1489  0.4211 -0.2986
   24MOL    C84 4270   1.457   1.699   2.799  0.0937 -0.4916 -0.4811
   24MOL    C85 4271   1.556   1.905   2.686 -0.6980  0.0416  0.4674
   24MOL    O86 4272   1.476   1.975   2.750  0.4229 -0.1492 -0.1941
   24MOL    O87 4273   1.646   1.949   2.590  0.3016 -0.0981  0.5320
   24MOL    H88 4274   1.666   1.730   2.759 -1.1581 -0.4210  1.1174
   24MOL    H89 4275   1.463   1.590   2.805  1.9187 -0.3665  0.2856
   24MOL    H90 4276   1.462   1.734   2.902  1.3543 -0.4881 -0.5302
   24MOL    H91 4277   1.361   1.729   2.756 -0.4104 -0.4586  0.6605
   24MOL    C92 4278   1.650   2.092   2.573 -0.2544 -0.4529  0.1049
   24MOL    C93 4279   1.721   2.107   2.441 -0.3649  0.1814 -0.6719
   24MOL    C94 4280   1.719   2.166   2.694  0.7277 -1.1809  0.8797
   24MOL    O95 4281   1.692   2.286   2.720  0.0995  0.3627  0.0231
   24MOL    O96 4282   1.828   2.104   2.738  0.4403 -0.6990 -0.0415
   24MOL    H97 4283   1.550   2.133   2.562  0.5638  0.9371 -2.4494
   24MOL    H98 4284   1.724   2.212   2.412  0.6190 -0.3101 -2.4208
   24MOL    H99 4285   1.823   2.073   2.458 -1.2577 -1.5100  1.5898
   24MOL   H100 4286   1.669   2.056   2.360 -1.6882 -0.6426  0.6767
   24MOL   C101 4287   1.919   2.155   2.829 -0.4714 -0.0184  0.6902
   24MOL   C102 4288   2.049   2.075   2.834 -0.0885  0.1832 -0.3652
   24MOL   C103 4289   1.866   2.155   2.973  0.4695  0.0342 -0.3839
   24MOL   O104 4290   1.910   2.231   3.064 -0.4146  0.1669  0.3180
   24MOL   O105 4291   1.770   2.057   2.984 -0.0555  0.1552  0.4998
   24MOL   H106 4292   1.945   2.259   2.808  1.2816 -0.6498 -0.4071
   24MOL   H107 4293   2.117   2.112   2.912 -0.4650 -0.7498  0.4238
   24MOL   H108 4294   2.034   1.967   2.843  2.6950 -0.2794 -0.8488
   24MOL   H109 4295   2.107   2.074   2.742  0.0825  0.4419 -0.2609
   24MOL   C110 4296   1.701   2.049   3.106 -0.1357 -0.3361  0.9790
   24MOL   C111 4297   1.653   1.901   3.110  0.5388 -0.3956 -0.5888
   24MOL   C112 4298   1.597   2.160   3.132 -0.1178  0.0434  0.0507
   24MOL   O113 4299   1.554   2.232   3.045  0.8366 -0.1096 -0.0962
   24MOL   O114 4300   1.546   2.161   3.257  0.3185 -0.5884 -0.1739
   24MOL   H115 4301   1.777   2.071   3.181  0.8549 -3.6737  1.0470
   24MOL   H116 4302   1.615   1.873   3.012  0.3481  0.9138 -0.9070
   24MOL   H117 4303   1.735   1.844   3.154 -0.5835 -1.1809  0.5042
   24MOL   H118 4304   1.570   1.887   3.179  1.0873 -1.1660 -0.0740
   24MOL   C119 4305   1.438   2.246   3.289 -0.8090 -0.4371  0.1349
   24MOL   C120 4306   1.507   2.347   3.381 -0.4114 -0.9596  0.3460
   24MOL   C121 4307   1.321   2.176   3.354 -0.4521 -0.0252 -0.3707
   24MOL   O122 4308   1.275   2.214   3.466 -0.7731  0.4501  0.4901
   24MOL   O123 4309   1.289   2.072   3.288  0.0104  0.3325  0.0594
   24MOL   H124 4310   1.390   2.287   3.200  1.5366  0.3053 -0.8276
   24MOL   H125 4311   1.432   2.426   3.380  2.1381  1.5180 -0.5677
   24MOL   H126 4312   1.522   2.328   3.487 -1.2591 -1.8655  0.3167
   24MOL   H127 4313   1.602   2.365   3.330 -0.3813 -2.0257  0.0100
   24MOL   C128 4314   1.232   1.955   3.335 -0.1791  0.0622 -0.6311
   24MOL   C129 4315   1.086   1.960   3.364 -0.8363  0.1521 -0.6433
   24MOL   C130 4316   1.309   1.903   3.462 -0.1784 -0.0451  0.0505
   24MOL   O131 4317   1.255   1.853   3.560 -0.3017 -0.1495  0.3086
   24MOL   O132 4318   1.438   1.905   3.445 -0.0809 -0.6792  0.0299
   24MOL   H133 4319   1.257   1.885   3.255  1.1558  1.0886 -1.1199
   24MOL   H134 4320   1.057   2.054   3.410 -0.7942  0.0240 -0.3566
   24MOL   H135 4321   1.032   1.954   3.269  1.4345  1.4789 -2.0714
   24MOL   H136 4322   1.046   1.886   3.434  1.1786 -0.5616 -0.2177
   24MOL   C137 4323   1.533   1.901   3.551 -0.0151 -0.3284 -0.7076
   24MOL   C138 4324   1.654   1.965   3.502 -0.0241  0.1889  0.8768
   24MOL   C139 4325   1.557   1.762   3.603  0.3632  0.9186 -0.5502
   24MOL   O140 4326   1.502   1.661   3.555 -0.1080  0.0114  0.1603
   24MOL   O141 4327   1.643   1.765   3.707 -0.3717  0.2204 -0.3852
   24MOL   H142 4328   1.498   1.964   3.633 -0.5292  1.0236 -1.9443
   24MOL   H143 4329   1.681   1.920   3.407 -0.6363 -1.1203  1.3064
   24MOL   H144 4330   1.621   2.067   3.481 -0.0917  0.2679  1.3494
   24MOL   H145 4331   1.743   1.957   3.564 -0.0505  1.9758  1.1717
   24MOL   C146 4332   1.696   1.650   3.771 -0.2593 -0.1185  0.1362
   24MOL   C147 4333   1.737   1.693   3.914 -0.3088  0.6696  0.4698
   24MOL   C148 4334   1.820   1.605   3.688  0.6178  0.2075 -0.2528
   24MOL   O149 4335   1.843   1.485   3.659 -0.2379  0.3199  0.3862
   24MOL   O150 4336   1.900   1.712   3.668 -0.4720  0.3951  0.3379
   24MOL   H151 4337   1.616   1.576   3.761  1.1037 -1.2018 -3.0990
   24MOL   H152 4338   1.845   1.703   3.924 -0.2473  3.1365 -1.8963
   24MOL   H153 4339   1.694   1.788   3.946  2.9209  1.9251  1.3544
   24MOL   H154 4340   1.707   1.624   3.992  0.0161  2.3262  2.0934
   24MOL   C155 4341   2.012   1.704   3.591  0.8600  0.1612 -0.0754
   24MOL   C156 4342   2.113   1.814   3.622 -0.0522  0.1014  0.3964
   24MOL   C157 4343   1.970   1.712   3.441 -0.0710 -0.7035 -0.0971
   24MOL   O158 4344   1.856   1.737   3.406  0.1196  0.6329  0.0860
   24MOL   O159 4345   2.081   1.685   3.357  0.4423  0.3015  0.4781
   24MOL   H160 4346   2.076   1.617   3.607 -0.4038 -1.0181 -1.3610
   24MOL   H161 4347   2.213   1.804   3.581 -0.3672  2.1029 -0.9191
   24MOL   H162 4348   2.079   1.913   3.592  0.2624  0.3038  0.7039
   24MOL   H163 4349   2.121   1.800   3.730 -0.7728 -1.5117  0.2574
   24MOL   C164 4350   2.092   1.725   3.222  0.1986 -0.7379  0.6753
   24MOL   C165 4351   2.211   1.648   3.185  0.0836  0.8352  0.2120
   24MOL   C166 4352   2.106   1.877   3.203  0.2815  0.1055 -0.3571
   24MOL   O167 4353   2.012   1.940   3.144 -0.1651  0.1886  0.2300
   24MOL   O168 4354   2.219   1.935   3.253 -0.3136 -0.3859  0.1160
   24MOL   H169 4355   2.009   1.683   3.165  1.6803 -0.3065 -1.8910
   24MOL   H170 4356   2.245   1.651   3.082 -1.8655 -0.8884 -0.5230
   24MOL   H171 4357   2.292   1.670   3.255  0.4011 -0.5493  0.2991
   24MOL   H172 4358   2.206   1.540   3.201  0.3603  0.9645  1.2569
   24MOL   C173 4359   2.236   2.075   3.248  0.0580 -0.1770 -0.0353
   24MOL   C174 4360   2.386   2.099   3.280 -0.4800  0.5467  0.0831
   24MOL   C175 4361   2.152   2.158   3.345  0.4052  0.0229  0.3742
   24MOL   O176 4362   2.201   2.240   3.420  0.6065 -0.2068  0.7989
   24MOL   O177 4363   2.020   2.146   3.327  0.2107 -0.4500 -0.1994
   24MOL   H178 4364   2.217   2.122   3.152 -1.8886  3.5054  2.0718
   24MOL   H179 4365   2.417   2.027   3.356 -0.1914 -2.2407 -2.5572
   24MOL   H180 4366   2.434   2.076   3.185  0.1769 -0.6236  0.6830
   24MOL   H181 4367   2.416   2.194   3.325 -0.6121 -0.6539  2.8321
   24MOL   H182 4368   2.000   2.082   3.260 -0.5294  1.1866 -1.6086
   25MOL     C1 4369   4.335   3.372   4.728 -0.4266  0.2491 -0.1368
   25MOL     C2 4370   4.223   3.322   4.818 -0.7620 -0.7193  0.1816
   25MOL     C3 4371   4.295   3.416   4.586  0.1310  0.6411 -0.0739
   25MOL     O4 4372   4.180   3.412   4.555  0.0527 -0.2079 -0.4194
   25MOL     O5 4373   4.405   3.464   4.514  0.3444  0.2628  0.0860
   25MOL     H6 4374   4.376   3.459   4.780 -1.6621  0.3267  0.7225
   25MOL     H7 4375   4.139   3.392   4.817  1.3448  1.8990  0.2286
   25MOL     H8 4376   4.191   3.226   4.778 -1.6843  0.4704 -2.0047
   25MOL     H9 4377   4.251   3.310   4.923  0.4490  4.2639  0.5935
   25MOL    H10 4378   4.414   3.299   4.712 -1.0986 -0.1198 -1.8845
   25MOL    C11 4379   4.380   3.490   4.373 -0.6024 -1.2100  0.2915
   25MOL    C12 4380   4.525   3.518   4.324 -0.6039 -0.1611 -0.2501
   25MOL    C13 4381   4.312   3.624   4.360 -0.5763 -0.6961 -0.4518
   25MOL    O14 4382   4.338   3.714   4.441  0.3102  0.3596 -0.2903
   25MOL    O15 4383   4.226   3.628   4.253  0.0471  0.2241 -0.0794
   25MOL    H16 4384   4.329   3.414   4.314 -1.6617  1.1369 -1.9099
   25MOL    H17 4385   4.581   3.425   4.328 -0.1703  0.0329 -1.6443
   25MOL    H18 4386   4.534   3.549   4.220  2.7763  1.1575  0.3805
   25MOL    H19 4387   4.585   3.595   4.372  3.8184 -2.6864 -1.4591
   25MOL    C20 4388   4.158   3.751   4.221  0.3258 -0.1135 -0.3125
   25MOL    C21 4389   4.015   3.717   4.172  0.4185  0.2846  0.2808
   25MOL    C22 4390   4.243   3.838   4.119 -0.8681 -0.2395 -0.1100
   25MOL    O23 4391   4.358   3.799   4.084  0.3206  0.5219 -0.8669
   25MOL    O24 4392   4.179   3.942   4.082 -0.6341  0.2473  0.4361
   25MOL    H25 4393   4.135   3.805   4.312 -0.7082 -1.1987  0.0669
   25MOL    H26 4394   3.971   3.653   4.248  1.1480  1.1016  1.4072
   25MOL    H27 4395   3.956   3.808   4.161  0.2091  0.2713  1.2722
   25MOL    H28 4396   4.028   3.669   4.075 -1.5236 -1.0717  0.6606
   25MOL    C29 4397   4.223   4.031   3.984 -0.3517  0.3265 -0.2089
   25MOL    C30 4398   4.277   4.161   4.040  0.2448 -0.4965  0.1779
   25MOL    C31 4399   4.124   4.046   3.871  0.8513  0.1153  0.2889
   25MOL    O32 4400   4.147   3.987   3.766  0.0634  0.1562 -0.4476
   25MOL    O33 4401   4.023   4.128   3.904 -0.7316 -0.3356 -0.5429
   25MOL    H34 4402   4.315   3.989   3.943  0.1637  2.7286 -1.6067
   25MOL    H35 4403   4.316   4.202   3.946  0.7552 -3.5525 -0.9875
   25MOL    H36 4404   4.202   4.223   4.089  1.3448  2.0899 -1.3087
   25MOL    H37 4405   4.361   4.138   4.106  1.2268 -0.3207 -0.9921
   25MOL    C38 4406   3.905   4.134   3.820 -0.1982 -0.2995 -0.7528
   25MOL    C39 4407   3.833   4.259   3.870  0.1398 -0.3085  0.1554
   25MOL    C40 4408   3.806   4.010   3.842 -0.0018  0.0560 -0.4527
   25MOL    O41 4409   3.796   3.960   3.957 -0.0212  0.1555 -0.5134
   25MOL    O42 4410   3.751   3.971   3.729 -0.1408  0.0823  0.1714
   25MOL    H43 4411   3.934   4.141   3.715  1.4766  1.6374 -0.2092
   25MOL    H44 4412   3.904   4.340   3.853  0.9204 -1.3432 -1.6762
   25MOL    H45 4413   3.735   4.267   3.822 -0.2321 -1.6515  0.6737
   25MOL    H46 4414   3.802   4.258   3.974  0.1801  2.6524  0.2516
   25MOL    C47 4415   3.649   3.874   3.725  0.1493  0.5504  0.3643
   25MOL    C48 4416   3.643   3.809   3.585 -0.0245  0.1629 -0.6162
   25MOL    C49 4417   3.508   3.923   3.760 -0.7149 -0.2049  0.2794
   25MOL    O50 4418   3.436   3.872   3.849  0.1512  0.0850  0.8583
   25MOL    O51 4419   3.458   4.029   3.683  0.2722  0.0996  0.2376
   25MOL    H52 4420   3.673   3.803   3.804 -0.5363  2.9158  2.7921
   25MOL    H53 4421   3.660   3.888   3.512  3.0965  0.5369  0.4232
   25MOL    H54 4422   3.726   3.742   3.562 -0.9084 -0.5308 -1.8283
   25MOL    H55 4423   3.549   3.757   3.570 -2.0702  2.3107  3.7148
   25MOL    C56 4424   3.329   4.083   3.701  0.4592  0.5571 -0.1405
   25MOL    C57 4425   3.288   4.169   3.578  0.0466 -0.3213  0.2528
   25MOL    C58 4426   3.335   4.169   3.834  0.4779  0.7538 -0.0559
   25MOL    O59 4427   3.421   4.252   3.858  0.5237  0.0298 -0.2101
   25MOL    O60 4428   3.225   4.149   3.914  0.2330 -0.1188 -0.4392
   25MOL    H61 4429   3.248   4.010   3.703  1.4831 -0.5451  2.5450
   25MOL    H62 4430   3.359   4.251   3.570  0.3089 -0.6178 -0.4847
   25MOL    H63 4431   3.286   4.107   3.488  1.2397  1.5625 -1.1120
   25MOL    H64 4432   3.186   4.200   3.599  0.3108 -0.5934  1.9951
   25MOL    C65 4433   3.199   4.227   4.038  0.1316  0.6234  0.5769
   25MOL    C66 4434   3.146   4.144   4.148 -0.0918  0.2551 -0.8023
   25MOL    C67 4435   3.109   4.338   3.996 -0.2555 -0.1014 -0.0500
   25MOL    O68 4436   3.005   4.359   4.058 -0.6356 -0.2534 -0.0222
   25MOL    O69 4437   3.147   4.396   3.878 -0.4339  0.3019 -0.0601
   25MOL    H70 4438   3.289   4.274   4.079  2.1463 -2.6672  0.1458
   25MOL    H71 4439   3.115   4.208   4.231 -1.4645  0.1230 -1.2104
   25MOL    H72 4440   3.052   4.099   4.116 -0.7674 -0.8688  2.5420
   25MOL    H73 4441   3.221   4.073   4.183 -0.5057  0.4864  0.5842
   25MOL    C74 4442   3.073   4.489   3.798 -0.0477 -0.7459 -0.0100
   25MOL    C75 4443   3.119   4.630   3.844 -0.4353 -0.8620 -0.3067
   25MOL    C76 4444   2.924   4.461   3.789 -0.0914  0.3112  0.4490
   25MOL    O77 4445   2.844   4.545   3.831 -0.0018 -0.2839 -0.2807
   25MOL    O78 4446   2.896   4.342   3.738 -0.3105  0.0862  0.1026
   25MOL    H79 4447   3.099   4.475   3.693 -0.9836  0.5928 -0.4397
   25MOL    H80 4448   3.056   4.703   3.793 -1.6325 -0.6499  1.4411
   25MOL    H81 4449   3.090   4.659   3.945  0.1524  1.3108 -0.7228
   25MOL    H82 4450   3.223   4.662   3.833 -0.5948  0.2415  1.1173
   25MOL    C83 4451   2.780   4.267   3.770 -0.0221 -0.2552  0.5552
   25MOL    C84 4452   2.809   4.120   3.742  0.0475 -0.8145 -0.3556
   25MOL    C85 4453   2.655   4.323   3.708 -0.1744 -0.6513 -0.5994
   25MOL    O86 4454   2.659   4.406   3.617  0.4960 -0.1408 -1.1249
   25MOL    O87 4455   2.547   4.276   3.768  0.1582  0.1281  0.0863
   25MOL    H88 4456   2.775   4.271   3.879  3.4679 -2.1366  0.8259
   25MOL    H89 4457   2.845   4.115   3.639  0.7431  0.7490 -0.1901
   25MOL    H90 4458   2.883   4.086   3.814 -2.9999  0.4875  3.5305
   25MOL    H91 4459   2.727   4.050   3.758  1.8101 -2.3811  2.1204
   25MOL    C92 4460   2.413   4.318   3.743  0.0494 -0.1893  0.3281
   25MOL    C93 4461   2.357   4.375   3.874  0.1424 -0.2419  0.3745
   25MOL    C94 4462   2.338   4.206   3.672 -0.7439  0.0026  0.0866
   25MOL    O95 4463   2.404   4.111   3.629  0.0275 -0.1794 -0.2146
   25MOL    O96 4464   2.205   4.219   3.663  0.0126 -0.1884 -0.1170
   25MOL    H97 4465   2.416   4.409   3.683 -1.2897 -0.7112 -0.5580
   25MOL    H98 4466   2.347   4.304   3.955  1.3799 -0.9231 -0.0604
   25MOL    H99 4467   2.437   4.442   3.907  0.0184 -0.9475  2.1281
   25MOL   H100 4468   2.270   4.440   3.870  1.2650  1.2148 -1.2388
   25MOL   C101 4469   2.129   4.126   3.583 -0.0075  0.0296 -0.0068
   25MOL   C102 4470   2.130   4.180   3.439 -0.0555 -0.0554 -0.0987
   25MOL   C103 4471   1.990   4.114   3.649 -0.1502 -0.8499 -1.0263
   25MOL   O104 4472   1.894   4.172   3.598 -0.2371 -0.4626  0.4140
   25MOL   O105 4473   1.986   4.045   3.758 -0.5408 -0.1922 -0.3683
   25MOL   H106 4474   2.174   4.027   3.585 -1.4234 -0.6512 -0.7887
   25MOL   H107 4475   2.090   4.281   3.451 -0.0832 -0.1722  0.8078
   25MOL   H108 4476   2.238   4.177   3.426  0.4157  2.3391  2.5351
   25MOL   H109 4477   2.090   4.125   3.354 -0.4951  1.8147 -1.1302
   25MOL   C110 4478   1.865   4.032   3.838 -1.1356  0.6044  0.4175
   25MOL   C111 4479   1.758   3.952   3.774  0.0918 -0.0511 -0.3078
   25MOL   C112 4480   1.823   4.167   3.900  0.4301 -0.2267 -0.1984
   25MOL   O113 4481   1.710   4.212   3.898  0.1355  0.4566  0.5079
   25MOL   O114 4482   1.920   4.225   3.962  0.2085 -0.2952  0.3687
   25MOL   H115 4483   1.904   3.972   3.920  2.3987 -1.3332 -2.5428
   25MOL   H116 4484   1.671   3.924   3.835  0.2495 -3.6638 -1.6119
   25MOL   H117 4485   1.708   4.009   3.696  0.1758  2.0552  1.1240
   25MOL   H118 4486   1.788   3.861   3.723 -0.3115 -0.5231  0.2806
   25MOL   C119 4487   1.891   4.345   4.035  0.1108  0.1809 -0.1874
   25MOL   C120 4488   1.902   4.473   3.948  0.0130 -0.2629 -0.1477
   25MOL   C121 4489   1.988   4.345   4.152  0.2290 -1.1179 -0.0646
   25MOL   O122 4490   2.048   4.240   4.170  0.8495  0.1596  0.1155
   25MOL   O123 4491   1.999   4.464   4.208  0.1233  0.0464  0.0131
   25MOL   H124 4492   1.792   4.333   4.080  0.0343 -0.6178 -0.5507
   25MOL   H125 4493   1.861   4.551   4.012 -1.4553 -0.3027 -1.0165
   25MOL   H126 4494   2.005   4.503   3.930 -0.2067 -0.1551 -1.2218
   25MOL   H127 4495   1.837   4.482   3.861  0.4511 -1.6176 -0.6311
   25MOL   C128 4496   2.099   4.494   4.302  0.5560  0.1631 -0.3735
   25MOL   C129 4497   2.039   4.598   4.404  0.2299 -0.2378 -0.9685
   25MOL   C130 4498   2.221   4.544   4.229  0.4990  0.1468 -0.6134
   25MOL   O131 4499   2.300   4.470   4.171 -0.6395 -0.2192 -0.0903
   25MOL   O132 4500   2.215   4.681   4.208 -0.2652  0.2385 -0.6741
   25MOL   H133 4501   2.134   4.407   4.357  0.2534 -0.4312 -1.1207
   25MOL   H134 4502   1.981   4.552   4.484  0.6534  0.0972 -0.4625
   25MOL   H135 4503   2.125   4.641   4.455  0.3754 -0.5512 -0.9471
   25MOL   H136 4504   1.978   4.677   4.360  0.2610  1.5242  2.0507
   25MOL   C137 4505   2.310   4.764   4.145 -0.0479 -0.2119 -0.5396
   25MOL   C138 4506   2.284   4.904   4.188 -0.1171 -0.4574 -0.0289
   25MOL   C139 4507   2.299   4.746   3.992  0.2281  0.5256 -0.4334
   25MOL   O140 4508   2.191   4.736   3.939  0.2444  0.1313 -0.0556
   25MOL   O141 4509   2.416   4.766   3.928  0.0742  1.0808  0.1293
   25MOL   H142 4510   2.407   4.744   4.189 -0.3263  1.1077  0.7241
   25MOL   H143 4511   2.353   4.971   4.136  0.4468  0.1024  1.4107
   25MOL   H144 4512   2.186   4.933   4.150  0.2483  0.5858 -0.1895
   25MOL   H145 4513   2.275   4.931   4.293  4.0190  0.5044  0.1803
   25MOL   C146 4514   2.427   4.758   3.787 -0.0756 -0.0058 -0.3339
   25MOL   C147 4515   2.565   4.701   3.734  0.5596  0.0486  0.2055
   25MOL   C148 4516   2.407   4.902   3.739  0.4232  0.5049  0.6259
   25MOL   O149 4517   2.490   4.975   3.685 -0.7018 -0.6473 -0.2659
   25MOL   O150 4518   2.288   4.952   3.769  0.4971  0.1716  0.7423
   25MOL   H151 4519   2.351   4.691   3.748 -0.2440  0.1266 -0.2354
   25MOL   H152 4520   2.556   4.653   3.637 -1.6909  0.0162  0.4025
   25MOL   H153 4521   2.643   4.777   3.734 -1.2120  1.9847 -2.6607
   25MOL   H154 4522   2.591   4.625   3.807 -1.3691  0.1605  1.0533
   25MOL   C155 4523   2.251   5.088   3.730 -1.0204 -0.3701  0.9221
   25MOL   C156 4524   2.116   5.119   3.804 -0.2942 -0.3398  0.6637
   25MOL   C157 4525   2.231   5.098   3.576 -0.6024 -0.4486 -1.0909
   25MOL   O158 4526   2.140   5.042   3.524 -0.0427 -0.8371 -0.7830
   25MOL   O159 4527   2.327   5.164   3.503  0.1468  0.3934  0.1199
   25MOL   H160 4528   2.320   5.166   3.763  0.9808 -1.3311 -0.8294
   25MOL   H161 4529   2.120   5.088   3.908  0.2612  1.1412  1.1025
   25MOL   H162 4530   2.102   5.228   3.803 -0.4036 -0.3554  0.5089
   25MOL   H163 4531   2.024   5.074   3.767 -0.9311  0.5985  1.0816
   25MOL   C164 4532   2.305   5.200   3.367 -0.6430 -0.3556  0.0092
   25MOL   C165 4533   2.438   5.255   3.308  0.4659 -0.1418  0.0375
   25MOL   C166 4534   2.177   5.286   3.345  0.1488 -0.7479  0.8026
   25MOL   O167 4535   2.115   5.337   3.444 -0.1271 -0.3897 -0.4482
   25MOL   O168 4536   2.140   5.292   3.214  0.4029 -0.1892 -0.2708
   25MOL   H169 4537   2.286   5.104   3.320 -3.6981 -0.2629  0.9575
   25MOL   H170 4538   2.488   5.319   3.382 -2.8742  0.8712  1.4985
   25MOL   H171 4539   2.507   5.170   3.300  0.7559  0.0098  0.7948
   25MOL   H172 4540   2.421   5.301   3.211 -1.0202 -1.7906 -0.4892
   25MOL   C173 4541   2.031   5.377   3.168 -0.2734  0.8278 -0.0401
   25MOL   C174 4542   1.893   5.320   3.205 -0.4589 -0.3356  0.0918
   25MOL   C175 4543   2.059   5.406   3.016 -0.4711  0.3460 -0.3243
   25MOL   O176 4544   1.988   5.373   2.919  0.4521  0.4036  0.2318
   25MOL   O177 4545   2.180   5.458   3.002 -0.0460 -0.7228 -0.0973
   25MOL   H178 4546   2.030   5.473   3.220 -2.7826  1.8121 -1.8075
   25MOL   H179 4547   1.810   5.338   3.137 -0.2683 -1.1966 -0.3796
   25MOL   H180 4548   1.884   5.211   3.206  0.3532 -0.4320  2.8645
   25MOL   H181 4549   1.862   5.353   3.304  1.4950  0.6082  0.4138
   25MOL   H182 4550   2.217   5.480   3.086 -1.2556  2.1860 -0.2646
   26MOL     C1 4551   1.101   4.500   5.655 -0.0451  0.0684  0.2433
   26MOL     C2 4552   1.234   4.499   5.573 -0.3224  0.3366  0.2561
   26MOL     C3 4553   1.100   4.534   5.800 -0.2414  0.1536 -0.5605
   26MOL     O4 4554   1.107   4.648   5.843 -0.4194 -0.6458  0.6024
   26MOL     O5 4555   1.099   4.421   5.882  0.1190 -0.0879 -0.2957
   26MOL     H6 4556   1.028   4.575   5.622  0.6011  0.8544  0.5707
   26MOL     H7 4557   1.235   4.463   5.470 -1.3907  0.3831  0.2206
   26MOL     H8 4558   1.275   4.600   5.577  0.8701 -0.0676 -1.2643
   26MOL     H9 4559   1.302   4.440   5.634 -1.2006 -0.0963  0.8258
   26MOL    H10 4560   1.044   4.408   5.644 -1.0261  0.9458 -2.7464
   26MOL    C11 4561   1.064   4.426   6.013 -0.4614  0.9055  0.2008
   26MOL    C12 4562   1.080   4.284   6.060  0.1742 -0.1044  0.0647
   26MOL    C13 4563   0.929   4.479   6.033 -0.3275 -0.3543 -0.2131
   26MOL    O14 4564   0.898   4.536   6.139 -0.2447  0.2995  0.4673
   26MOL    O15 4565   0.846   4.448   5.933 -0.0259  0.1580 -0.8690
   26MOL    H16 4566   1.134   4.483   6.075 -1.7024  1.9726  0.6534
   26MOL    H17 4567   1.167   4.246   6.006  0.5020 -0.1284  0.6126
   26MOL    H18 4568   1.106   4.291   6.165  1.0681  0.1957 -0.1713
   26MOL    H19 4569   0.998   4.215   6.041  2.8404 -2.7337 -2.4414
   26MOL    C20 4570   0.706   4.465   5.949 -0.0505  0.0744 -0.0192
   26MOL    C21 4571   0.639   4.338   5.901  0.0202  0.4372  0.1276
   26MOL    C22 4572   0.666   4.589   5.882  0.2227 -0.1696  0.1246
   26MOL    O23 4573   0.641   4.598   5.761  0.0498 -0.6125  0.1296
   26MOL    O24 4574   0.672   4.695   5.967  0.0538 -0.0373 -0.0185
   26MOL    H25 4575   0.672   4.483   6.051 -0.2100  0.2059 -0.0962
   26MOL    H26 4576   0.531   4.352   5.903 -0.0701 -0.3672  1.1568
   26MOL    H27 4577   0.667   4.314   5.798  2.9569  2.5623  0.3577
   26MOL    H28 4578   0.663   4.251   5.962  1.2369  1.1684  0.7062
   26MOL    C29 4579   0.671   4.830   5.934 -0.1923 -0.3480  0.7378
   26MOL    C30 4580   0.753   4.913   6.038  0.1342  0.0508 -0.3039
   26MOL    C31 4581   0.533   4.885   5.910 -0.7540  1.2977 -0.5040
   26MOL    O32 4582   0.486   4.919   5.797 -0.4206  0.5699 -0.5974
   26MOL    O33 4583   0.463   4.903   6.029 -0.5490  0.0442 -0.1983
   26MOL    H34 4584   0.733   4.851   5.846  0.0460  1.1990  1.2539
   26MOL    H35 4585   0.713   5.014   6.042  1.8621  0.7103  1.3929
   26MOL    H36 4586   0.737   4.856   6.130 -0.7262  2.2950  0.9818
   26MOL    H37 4587   0.856   4.925   6.004  0.1246  1.0244  0.0169
   26MOL    C38 4588   0.327   4.952   6.014  0.4420  0.0589 -0.4992
   26MOL    C39 4589   0.318   5.045   6.133  0.3468 -0.5131  0.1276
   26MOL    C40 4590   0.245   4.824   6.039  0.4254 -0.0202 -0.2105
   26MOL    O41 4591   0.177   4.775   5.951  0.0132  0.2096 -0.0063
   26MOL    O42 4592   0.263   4.776   6.166  0.3997 -0.2017 -0.9996
   26MOL    H43 4593   0.302   5.009   5.924 -2.7436  0.6106  0.6904
   26MOL    H44 4594   0.398   5.040   6.207  0.8541 -2.4640 -0.5199
   26MOL    H45 4595   0.322   5.150   6.103 -2.3476 -0.1488  0.8401
   26MOL    H46 4596   0.227   5.044   6.193  0.6587  2.7225  0.7480
   26MOL    C47 4597   0.208   4.651   6.198  0.8168  0.9392 -0.2605
   26MOL    C48 4598   0.182   4.646   6.354 -0.1846  0.5120 -0.6749
   26MOL    C49 4599   0.311   4.539   6.158  0.3045  0.0479  0.0020
   26MOL    O50 4600   0.420   4.562   6.099 -0.3411  0.1009 -0.8070
   26MOL    O51 4601   0.269   4.415   6.195  0.3532 -0.4589 -0.1006
   26MOL    H52 4602   0.121   4.625   6.139  0.2091 -1.3532  1.5532
   26MOL    H53 4603   0.127   4.735   6.384 -1.0956 -0.6080  1.0469
   26MOL    H54 4604   0.114   4.564   6.378  1.3377 -0.2483  1.1136
   26MOL    H55 4605   0.278   4.659   6.403 -1.1668  0.8216  1.1875
   26MOL    C56 4606   0.361   4.302   6.203  0.4417  0.5393 -0.5805
   26MOL    C57 4607   0.258   4.188   6.222 -0.2694  0.1519  0.1665
   26MOL    C58 4608   0.461   4.316   6.318 -0.3686  0.4625  0.3137
   26MOL    O59 4609   0.584   4.326   6.299  0.4522 -0.5776 -0.7249
   26MOL    O60 4610   0.397   4.312   6.436 -0.3014  0.3153 -0.3867
   26MOL    H61 4611   0.403   4.291   6.103  0.3830  2.0436 -0.7951
   26MOL    H62 4612   0.298   4.091   6.251  0.8772  0.6723  0.3471
   26MOL    H63 4613   0.175   4.209   6.289 -0.8381 -0.3643 -0.3710
   26MOL    H64 4614   0.211   4.162   6.127  0.0579 -0.9669  0.2997
   26MOL    C65 4615   0.475   4.316   6.559 -0.1618  0.5472 -0.0820
   26MOL    C66 4616   0.403   4.227   6.668 -0.0435  0.7070 -0.5480
   26MOL    C67 4617   0.489   4.464   6.608  0.2015 -0.0725  0.1365
   26MOL    O68 4618   0.432   4.550   6.544 -0.0098 -0.9766  0.3743
   26MOL    O69 4619   0.552   4.482   6.724 -0.1514 -0.1339 -0.7009
   26MOL    H70 4620   0.578   4.280   6.551 -0.0641  0.9545 -0.6011
   26MOL    H71 4621   0.447   4.242   6.767 -1.5358 -0.6710  0.3506
   26MOL    H72 4622   0.299   4.256   6.680 -0.4341 -1.3135  1.2837
   26MOL    H73 4623   0.403   4.122   6.638 -0.5803  0.7447 -0.6854
   26MOL    C74 4624   0.575   4.607   6.791  0.0582 -1.0985 -0.4137
   26MOL    C75 4625   0.722   4.627   6.808 -0.1122 -0.2580  0.3515
   26MOL    C76 4626   0.493   4.611   6.925 -0.9718 -0.6333 -0.0693
   26MOL    O77 4627   0.403   4.527   6.953  0.3407  0.7608 -0.0638
   26MOL    O78 4628   0.528   4.717   6.998 -0.2790 -0.3986  0.0440
   26MOL    H79 4629   0.535   4.697   6.744 -0.1718 -1.4200 -0.8397
   26MOL    H80 4630   0.770   4.702   6.745 -2.2779  0.2652 -0.7295
   26MOL    H81 4631   0.764   4.633   6.908  2.2564 -0.2753 -0.6032
   26MOL    H82 4632   0.777   4.537   6.780 -0.7243 -0.7846  0.8313
   26MOL    C83 4633   0.490   4.730   7.133  0.5575  0.5976 -0.0746
   26MOL    C84 4634   0.486   4.877   7.180  0.0328 -0.0179 -0.4211
   26MOL    C85 4635   0.579   4.642   7.225  0.3392 -0.5646  0.0342
   26MOL    O86 4636   0.687   4.596   7.190  0.6457 -0.1878  0.0408
   26MOL    O87 4637   0.535   4.636   7.351  0.0994 -0.5683 -0.2259
   26MOL    H88 4638   0.386   4.703   7.155  0.2003  0.6807 -1.6301
   26MOL    H89 4639   0.468   4.908   7.284  0.1585  0.0623 -0.4222
   26MOL    H90 4640   0.577   4.932   7.155 -0.9942  2.3738  0.8794
   26MOL    H91 4641   0.410   4.933   7.126 -1.4759 -1.7038 -0.1092
   26MOL    C92 4642   0.602   4.568   7.458 -0.0671 -0.2450  0.7684
   26MOL    C93 4643   0.509   4.529   7.572 -0.2108  0.3581  0.1737
   26MOL    C94 4644   0.718   4.659   7.508  0.0993  0.4377 -0.4136
   26MOL    O95 4645   0.832   4.617   7.508 -0.1074 -0.3272 -0.3503
   26MOL    O96 4646   0.686   4.789   7.533  0.0074 -0.3272  0.2514
   26MOL    H97 4647   0.638   4.469   7.429 -1.5049 -1.3816  2.6611
   26MOL    H98 4648   0.443   4.612   7.597  0.4029  0.3970  1.7398
   26MOL    H99 4649   0.434   4.460   7.533  0.0374  1.3106 -2.0377
   26MOL   H100 4650   0.563   4.490   7.659  1.6263  0.8685 -0.7129
   26MOL   C101 4651   0.774   4.888   7.578  0.4394  0.4456 -0.0123
   26MOL   C102 4652   0.692   5.020   7.604 -0.4085  0.3716 -0.9485
   26MOL   C103 4653   0.884   4.918   7.484  0.8628  0.0543  0.2857
   26MOL   O104 4654   1.004   4.899   7.507 -0.0809 -0.7238  0.3327
   26MOL   O105 4655   0.834   4.972   7.372 -0.1737 -0.6421  0.5550
   26MOL   H106 4656   0.828   4.863   7.669  1.2336  1.9989 -0.0343
   26MOL   H107 4657   0.599   5.027   7.547 -1.8293 -2.2323  0.9430
   26MOL   H108 4658   0.653   5.013   7.706 -2.0792  2.1736 -1.4308
   26MOL   H109 4659   0.732   5.120   7.586  4.2174 -0.8176  1.9588
   26MOL   C110 4660   0.920   5.023   7.274 -0.6138 -0.0612  0.2292
   26MOL   C111 4661   0.855   5.146   7.211 -0.2168 -0.7150 -0.1663
   26MOL   C112 4662   0.947   4.910   7.166 -0.6105 -0.1814  0.0155
   26MOL   O113 4663   0.872   4.819   7.144 -0.3145 -0.4419  0.4216
   26MOL   O114 4664   1.072   4.920   7.122  0.0074  0.0265 -0.3972
   26MOL   H115 4665   1.019   5.047   7.314 -1.0974  1.7315  0.3822
   26MOL   H116 4666   0.751   5.127   7.184 -0.1684 -0.1574 -0.7498
   26MOL   H117 4667   0.857   5.238   7.268  2.7921 -0.3731 -0.6918
   26MOL   H118 4668   0.909   5.190   7.127 -0.7896 -0.0903 -0.2094
   26MOL   C119 4669   1.119   4.832   7.022  0.2080  0.0774  0.4577
   26MOL   C120 4670   1.270   4.823   7.040  0.3918 -0.0962 -0.1169
   26MOL   C121 4671   1.083   4.881   6.882  0.4271  0.2444 -0.1835
   26MOL   O122 4672   0.998   4.826   6.810  0.1761 -0.1539  0.2082
   26MOL   O123 4673   1.149   4.997   6.854  0.1394 -0.2241 -0.2954
   26MOL   H124 4674   1.080   4.731   7.035  0.4110  0.0003  0.4659
   26MOL   H125 4675   1.307   4.742   7.102 -0.3439 -0.3300  0.0156
   26MOL   H126 4676   1.325   4.810   6.947 -0.3979  0.6869 -0.7056
   26MOL   H127 4677   1.313   4.915   7.081  0.1540 -0.9549  2.1244
   26MOL   C128 4678   1.145   5.060   6.730  0.1596  0.0581  0.3403
   26MOL   C129 4679   1.291   5.059   6.687  0.5426  0.0684  0.4403
   26MOL   C130 4680   1.082   5.204   6.745  0.0564 -0.0903 -0.5289
   26MOL   O131 4681   0.980   5.224   6.813 -0.0297 -0.6094 -0.0533
   26MOL   O132 4682   1.148   5.305   6.686  0.2337 -0.1131  0.2499
   26MOL   H133 4683   1.081   5.012   6.656 -0.1408  0.7858  0.1160
   26MOL   H134 4684   1.344   4.973   6.728 -1.2261 -1.3582 -0.2079
   26MOL   H135 4685   1.313   5.061   6.580  1.6902  2.5702  0.6749
   26MOL   H136 4686   1.346   5.145   6.725  1.9241  0.1498 -1.6218
   26MOL   C137 4687   1.090   5.433   6.695  0.6283  0.1991  0.3737
   26MOL   C138 4688   1.138   5.505   6.575  0.1642  0.3870  0.9049
   26MOL   C139 4689   1.130   5.500   6.828  0.3122  0.1876  1.3046
   26MOL   O140 4690   1.052   5.526   6.915 -0.5058  0.0004 -0.3339
   26MOL   O141 4691   1.258   5.559   6.828  0.5430  0.1613  0.2111
   26MOL   H142 4692   0.981   5.430   6.697  0.5612  0.2304 -2.2938
   26MOL   H143 4693   1.094   5.605   6.569  0.7092  0.6207  0.6975
   26MOL   H144 4694   1.247   5.509   6.574  0.1759  0.1046 -0.7716
   26MOL   H145 4695   1.108   5.464   6.478 -1.9065  3.1512  0.3071
   26MOL   C146 4696   1.328   5.608   6.946 -0.3003 -0.4797 -0.2396
   26MOL   C147 4697   1.434   5.695   6.891  1.3742 -0.0123 -0.5145
   26MOL   C148 4698   1.391   5.486   7.021 -0.5606 -0.5367  0.2477
   26MOL   O149 4699   1.509   5.452   7.024  0.3247 -0.2871  0.9227
   26MOL   O150 4700   1.304   5.418   7.099  0.1402 -0.5443  0.8059
   26MOL   H151 4701   1.266   5.670   7.011 -1.2125  0.1812 -1.7195
   26MOL   H152 4702   1.486   5.727   6.981 -0.5829  1.2102  0.1910
   26MOL   H153 4703   1.497   5.641   6.820 -0.5165 -1.3162 -1.2184
   26MOL   H154 4704   1.399   5.790   6.851 -1.0897 -1.3039 -1.5091
   26MOL   C155 4705   1.340   5.306   7.187 -1.5449 -0.2248  0.2815
   26MOL   C156 4706   1.217   5.207   7.165  0.5203  0.4327  0.4836
   26MOL   C157 4707   1.355   5.359   7.329  0.1008  0.8836  0.2948
   26MOL   O158 4708   1.369   5.481   7.357  0.4665  0.2988  0.0646
   26MOL   O159 4709   1.334   5.254   7.415  0.3219  0.3472 -0.3124
   26MOL   H160 4710   1.435   5.261   7.157 -0.4352  3.5882 -2.3110
   26MOL   H161 4711   1.218   5.170   7.062  1.1862  1.5829  0.0579
   26MOL   H162 4712   1.233   5.119   7.226  0.5314  1.6280  2.2373
   26MOL   H163 4713   1.133   5.273   7.184 -0.1191 -0.7955  2.0480
   26MOL   C164 4714   1.326   5.278   7.557 -0.2200 -0.4140 -0.2623
   26MOL   C165 4715   1.358   5.156   7.637 -0.2453 -0.1660  0.2042
   26MOL   C166 4716   1.184   5.331   7.584  0.4812 -1.3033  0.5010
   26MOL   O167 4717   1.107   5.350   7.496  0.3396  0.1219 -0.3800
   26MOL   O168 4718   1.159   5.358   7.712  0.1448 -0.0104  0.0740
   26MOL   H169 4719   1.385   5.362   7.595 -0.2718 -0.9278  1.0146
   26MOL   H170 4720   1.330   5.170   7.742  0.3259  0.6769  0.2519
   26MOL   H171 4721   1.302   5.070   7.602  0.4022  0.2040 -1.8148
   26MOL   H172 4722   1.463   5.128   7.630 -0.4090 -0.1422 -3.3264
   26MOL   C173 4723   1.024   5.402   7.753 -0.7712  0.2789 -0.2310
   26MOL   C174 4724   1.058   5.543   7.808 -0.0247  0.1618 -0.2561
   26MOL   C175 4725   0.960   5.313   7.860  0.1714  0.1304 -0.0296
   26MOL   O176 4726   0.902   5.357   7.959  0.3179  0.3043 -0.0794
   26MOL   O177 4727   0.968   5.185   7.821  0.5000 -0.3891 -0.9864
   26MOL   H178 4728   0.964   5.422   7.665  0.1100  1.7066 -0.5248
   26MOL   H179 4729   1.128   5.543   7.892 -1.4015 -0.6692  0.8991
   26MOL   H180 4730   1.117   5.591   7.729  1.2068  1.6270  1.5243
   26MOL   H181 4731   0.969   5.602   7.828  2.4825  4.0843  0.1220
   26MOL   H182 4732   0.900   5.134   7.862 -1.9461  3.4044 -0.0890
   27MOL     C1 4733   0.956   7.608   0.171  0.9323 -0.0511  0.3979
   27MOL     C2 4734   1.093   7.584   0.123 -0.1418  0.4583 -0.2423
   27MOL     C3 4735   0.898   7.496   0.262 -0.6434  0.1874 -0.3987
   27MOL     O4 4736   0.963   7.450   0.357  0.5448 -0.4381 -0.0110
   27MOL     O5 4737   0.787   7.449   0.215 -0.1622  0.2942  0.7344
   27MOL     H6 4738   0.969   7.692   0.239 -1.9394  2.5636 -2.1548
   27MOL     H7 4739   1.126   7.658   0.051  1.7944 -1.7822 -1.7546
   27MOL     H8 4740   1.165   7.605   0.202  0.5731  0.6763 -0.9445
   27MOL     H9 4741   1.116   7.480   0.101  2.3440  1.0161 -0.4411
   27MOL    H10 4742   0.886   7.638   0.093  0.8497  0.1789  0.5623
   27MOL    C11 4743   0.710   7.342   0.276  0.4336 -0.3561 -0.0136
   27MOL    C12 4744   0.627   7.264   0.181  0.4827 -0.3459  0.2164
   27MOL    C13 4745   0.628   7.392   0.396 -0.2786  0.6738  0.1665
   27MOL    O14 4746   0.504   7.423   0.386  0.3049  0.3682  0.0674
   27MOL    O15 4747   0.705   7.400   0.504 -0.1014  0.0668  0.1325
   27MOL    H16 4748   0.784   7.276   0.320 -0.0875 -0.4087  0.7931
   27MOL    H17 4749   0.541   7.315   0.138  0.4679 -0.9367 -0.4701
   27MOL    H18 4750   0.691   7.231   0.100  0.0933 -1.0073  0.1731
   27MOL    H19 4751   0.591   7.173   0.230  0.9026  0.1102  1.4010
   27MOL    C20 4752   0.646   7.434   0.635  0.7187 -0.1195 -0.2740
   27MOL    C21 4753   0.759   7.453   0.742  0.0035 -0.4228  0.1589
   27MOL    C22 4754   0.537   7.334   0.690 -0.2581 -0.4049  0.1244
   27MOL    O23 4755   0.419   7.347   0.672 -0.0299 -0.3653 -0.6692
   27MOL    O24 4756   0.597   7.218   0.730  0.1078 -0.0549  0.3487
   27MOL    H25 4757   0.601   7.530   0.611  0.8500 -0.4395 -1.8659
   27MOL    H26 4758   0.851   7.396   0.731  1.1357  1.6847 -1.6304
   27MOL    H27 4759   0.795   7.557   0.741 -2.3094  0.3842 -2.0940
   27MOL    H28 4760   0.726   7.438   0.845  1.5589 -3.5904  0.2523
   27MOL    C29 4761   0.526   7.103   0.765 -0.1642 -0.1520  0.3997
   27MOL    C30 4762   0.599   7.043   0.887  0.6514  0.0447 -0.7512
   27MOL    C31 4763   0.511   7.003   0.643 -0.4261 -0.2727  0.0259
   27MOL    O32 4764   0.555   7.027   0.532 -0.4001 -0.6714 -0.2865
   27MOL    O33 4765   0.444   6.896   0.676  0.4052 -0.1487  0.0818
   27MOL    H34 4766   0.428   7.127   0.805 -0.6657 -0.3075 -0.7024
   27MOL    H35 4767   0.553   6.962   0.944 -0.1541 -0.2388 -1.7763
   27MOL    H36 4768   0.698   7.016   0.852  0.0106 -1.0516 -1.7581
   27MOL    H37 4769   0.615   7.115   0.967 -0.6849  0.3051 -0.7073
   27MOL    C38 4770   0.387   6.811   0.573  0.5881 -0.0637 -0.1843
   27MOL    C39 4771   0.262   6.730   0.622 -0.2024 -1.0676 -0.7971
   27MOL    C40 4772   0.488   6.707   0.513 -0.0807 -0.5708 -0.0163
   27MOL    O41 4773   0.601   6.699   0.557 -0.2187 -0.1050 -0.1055
   27MOL    O42 4774   0.433   6.634   0.413  0.1635  0.5772 -0.2612
   27MOL    H43 4775   0.355   6.876   0.491  1.3235  0.6548  0.0894
   27MOL    H44 4776   0.230   6.677   0.533 -0.5609  0.9574 -1.8946
   27MOL    H45 4777   0.293   6.660   0.700  0.5015 -1.1357 -1.1313
   27MOL    H46 4778   0.187   6.801   0.656 -1.2173 -1.6110 -1.8991
   27MOL    C47 4779   0.515   6.548   0.336 -0.1810 -0.7270 -0.4882
   27MOL    C48 4780   0.430   6.514   0.209 -0.5389  0.1133  0.2699
   27MOL    C49 4781   0.552   6.412   0.412  0.2251 -0.3322 -0.0172
   27MOL    O50 4782   0.518   6.380   0.523  0.1447 -0.2678  0.3018
   27MOL    O51 4783   0.616   6.328   0.332 -0.2412  0.0487  0.3067
   27MOL    H52 4784   0.608   6.599   0.313 -0.4045  0.2234  0.6419
   27MOL    H53 4785   0.475   6.433   0.150 -1.9600  0.4155 -1.2697
   27MOL    H54 4786   0.330   6.487   0.240 -1.5595  1.6691 -1.5592
   27MOL    H55 4787   0.427   6.606   0.150  1.7452  0.0983  0.0814
   27MOL    C56 4788   0.655   6.198   0.370  0.5671  0.0209  0.3360
   27MOL    C57 4789   0.759   6.209   0.483  0.0006  0.4559  0.1700
   27MOL    C58 4790   0.708   6.129   0.248  0.0095 -0.2381 -0.3165
   27MOL    O59 4791   0.677   6.014   0.220 -0.0250 -0.4883  0.5507
   27MOL    O60 4792   0.803   6.198   0.191  0.0516  0.1459  0.6066
   27MOL    H61 4793   0.564   6.151   0.408  0.3767 -1.4720 -1.8824
   27MOL    H62 4794   0.803   6.307   0.503  1.6756 -0.3809  0.6709
   27MOL    H63 4795   0.714   6.184   0.579 -1.0225  0.9363 -0.1849
   27MOL    H64 4796   0.831   6.131   0.460 -0.1846  1.0070 -2.3338
   27MOL    C65 4797   0.839   6.174   0.054 -0.3659  0.4204 -1.1566
   27MOL    C66 4798   0.956   6.267   0.039  0.1551 -0.0169  0.4501
   27MOL    C67 4799   0.719   6.211   8.105 -0.7598  0.2094 -0.4084
   27MOL    O68 4800   0.598   6.219   0.001  0.6544 -0.4499 -0.0416
   27MOL    O69 4801   0.764   6.212   7.978  0.2711  0.4060 -0.0836
   27MOL    H70 4802   0.867   6.071   0.033  0.8550 -0.1006  2.5692
   27MOL    H71 4803   1.040   6.235   0.100 -1.0357 -0.2041  2.0493
   27MOL    H72 4804   0.986   6.275   8.082 -1.2817 -0.4819 -0.0072
   27MOL    H73 4805   0.937   6.371   0.068  1.1223  0.8722 -2.0121
   27MOL    C74 4806   0.672   6.236   7.870 -0.4678  0.4626  0.8790
   27MOL    C75 4807   0.744   6.213   7.740  0.3240 -0.7750  0.5078
   27MOL    C76 4808   0.625   6.388   7.874  1.1003  0.2852  0.4657
   27MOL    O77 4809   0.507   6.412   7.844 -0.4381 -0.1528 -0.3488
   27MOL    O78 4810   0.717   6.474   7.906 -0.0209 -0.0710 -0.3871
   27MOL    H79 4811   0.580   6.178   7.879 -0.5805  0.7543  1.6508
   27MOL    H80 4812   0.842   6.260   7.742 -1.6351  3.9867 -3.9526
   27MOL    H81 4813   0.751   6.104   7.740 -0.9267 -0.9056 -1.9274
   27MOL    H82 4814   0.701   6.236   7.642 -1.8808 -2.6899  0.9673
   27MOL    C83 4815   0.680   6.603   7.954 -0.2025  0.6403 -0.8315
   27MOL    C84 4816   0.624   6.596   8.101 -0.1455 -0.3509 -0.1297
   27MOL    C85 4817   0.593   6.684   7.860  0.0761 -0.4477 -0.1192
   27MOL    O86 4818   0.478   6.713   7.882 -0.3738  0.1788  0.6546
   27MOL    O87 4819   0.662   6.727   7.748 -0.6720  0.3643 -0.1643
   27MOL    H88 4820   0.773   6.660   7.963  1.5379 -2.3843  1.1289
   27MOL    H89 4821   0.517   6.573   8.100 -0.1083 -0.5096 -0.8116
   27MOL    H90 4822   0.667   6.515   0.012 -4.3476 -2.8080 -0.2429
   27MOL    H91 4823   0.625   6.689   0.009 -1.9719 -0.0561 -0.5391
   27MOL    C92 4824   0.593   6.789   7.645 -0.0986 -0.1315  0.1892
   27MOL    C93 4825   0.659   6.754   7.513  0.4039  0.3320 -0.4646
   27MOL    C94 4826   0.583   6.940   7.672  0.0060  0.2626 -0.1821
   27MOL    O95 4827   0.632   7.023   7.592  0.2935  0.4570  0.1639
   27MOL    O96 4828   0.524   6.961   7.787 -0.6399 -0.4508 -0.6654
   27MOL    H97 4829   0.493   6.747   7.640  0.3828 -1.2818  0.0976
   27MOL    H98 4830   0.599   6.800   7.434  0.5977 -0.5872 -1.1622
   27MOL    H99 4831   0.762   6.788   7.509  1.0657 -1.3266  1.5056
   27MOL   H100 4832   0.648   6.646   7.505  2.7734 -0.0918  1.5476
   27MOL   C101 4833   0.474   7.089   7.813  0.3627  0.4350  0.1210
   27MOL   C102 4834   0.527   7.129   7.953  0.3150  0.0950  0.7940
   27MOL   C103 4835   0.322   7.087   7.790 -0.1866 -0.2255 -0.3013
   27MOL   O104 4836   0.239   7.131   7.873 -0.0555 -0.2475 -0.3511
   27MOL   O105 4837   0.292   7.057   7.661  0.2872 -0.0331 -0.1532
   27MOL   H106 4838   0.524   7.160   7.746  0.2808 -1.0459 -1.5236
   27MOL   H107 4839   0.474   7.075   8.031 -0.3732 -0.1238  0.1742
   27MOL   H108 4840   0.634   7.109   7.958 -0.0356 -1.5975  2.1287
   27MOL   H109 4841   0.509   7.233   7.980  0.6911  0.2352  0.5031
   27MOL   C110 4842   0.164   7.083   7.606 -0.5936 -0.2271 -0.3134
   27MOL   C111 4843   0.108   6.950   7.565  0.8823  0.3013 -0.1018
   27MOL   C112 4844   0.175   7.193   7.494 -0.4930  0.0712 -0.1622
   27MOL   O113 4845   0.167   7.164   7.375  0.4700  0.8237 -0.0572
   27MOL   O114 4846   0.196   7.322   7.547 -0.2492 -0.0481  0.6099
   27MOL   H115 4847   0.088   7.122   7.674 -1.0662 -1.7398  0.0399
   27MOL   H116 4848   0.184   6.903   7.503  1.0802  0.1118  0.2832
   27MOL   H117 4849   0.071   6.889   7.647  1.2303 -1.2953 -1.1113
   27MOL   H118 4850   0.016   6.966   7.509  1.3475 -0.2944 -1.0504
   27MOL   C119 4851   0.211   7.437   7.468  0.0572 -0.4928 -0.2760
   27MOL   C120 4852   0.311   7.521   7.550  0.0765 -0.0003  0.2717
   27MOL   C121 4853   0.076   7.500   7.446 -0.6120  0.1082  0.0239
   27MOL   O122 4854   8.119   7.439   7.474  0.2206  1.0212  0.6600
   27MOL   O123 4855   0.086   7.620   7.399  0.3681 -0.7420 -0.3922
   27MOL   H124 4856   0.257   7.411   7.373  0.6030 -0.5137 -0.0079
   27MOL   H125 4857   0.313   7.625   7.520  1.3442 -0.3708 -0.9912
   27MOL   H126 4858   0.275   7.526   7.653  1.6590  1.7683  0.7613
   27MOL   H127 4859   0.412   7.482   7.565  0.5993  0.6208 -1.5353
   27MOL   C128 4860   8.119   7.703   7.389 -0.5039 -0.5546 -0.4976
   27MOL   C129 4861   8.122   7.748   7.242 -0.2239 -0.4994 -0.0667
   27MOL   C130 4862   8.123   7.820   7.492 -0.4256  0.1956  0.3508
   27MOL   O131 4863   8.050   7.830   7.592 -0.1787  0.3268 -0.6264
   27MOL   O132 4864   0.069   7.905   7.467 -0.3018  0.2113 -0.2897
   27MOL   H133 4865   8.026   7.649   7.406  0.2623 -1.2177  1.6684
   27MOL   H134 4866   8.140   7.662   7.178 -0.9260 -1.6062  1.1885
   27MOL   H135 4867   8.024   7.776   7.205  0.8799  1.8139 -1.3372
   27MOL   H136 4868   0.042   7.830   7.220 -0.1778 -0.2620  0.9594
   27MOL   C137 4869   0.084   8.030   7.534 -0.0003  0.5789  0.1589
   27MOL   C138 4870   8.117   8.125   7.478 -0.1018  0.0932  0.6986
   27MOL   C139 4871   0.221   8.075   7.496 -0.5274  0.0482  0.0348
   27MOL   O140 4872   0.314   8.069   7.582  0.6347  0.3064 -0.8773
   27MOL   O141 4873   0.241   8.116   7.363 -0.4663 -0.5123 -0.5488
   27MOL   H142 4874   0.077   8.021   7.643 -0.0174 -1.4814  0.0124
   27MOL   H143 4875   0.000   0.073   7.520 -1.3901  0.8796 -0.1220
   27MOL   H144 4876   8.110   8.119   7.370 -0.2796  0.2110  0.7038
   27MOL   H145 4877   8.019   8.098   7.516 -0.5391 -2.6229 -2.1878
   27MOL   C146 4878   0.384   8.120   7.320 -0.2724 -0.4386  0.5328
   27MOL   C147 4879   0.416   0.117   7.272  0.4711 -0.1628 -0.0432
   27MOL   C148 4880   0.400   8.015   7.206 -0.1995  1.5328 -0.6319
   27MOL   O149 4881   0.480   8.029   7.112  0.4097  0.4788  0.2391
   27MOL   O150 4882   0.327   7.903   7.237  0.6209 -0.0041 -0.5317
   27MOL   H151 4883   0.462   8.079   7.384  1.7103 -1.0420 -2.1765
   27MOL   H152 4884   0.501   0.114   7.204  0.1177  0.3002 -0.5185
   27MOL   H153 4885   0.340   0.159   7.206  0.4145 -0.7056 -0.3276
   27MOL   H154 4886   0.436   0.186   7.354 -0.4755  0.1985 -0.1029
   27MOL   C155 4887   0.338   7.782   7.163  0.0019  0.2313 -1.3726
   27MOL   C156 4888   0.472   7.712   7.204 -0.5985 -0.3659 -0.2110
   27MOL   C157 4889   0.306   7.799   7.015  0.3674 -0.2298 -0.1017
   27MOL   O158 4890   0.390   7.785   6.928  0.2789  0.0269 -0.1479
   27MOL   O159 4891   0.172   7.825   6.986 -0.8493  0.3092 -0.2301
   27MOL   H160 4892   0.257   7.729   7.213  0.1470 -1.0836 -2.5022
   27MOL   H161 4893   0.557   7.779   7.189 -0.5504 -0.3139  0.3140
   27MOL   H162 4894   0.465   7.694   7.311 -2.2366 -0.7220 -0.3565
   27MOL   H163 4895   0.493   7.620   7.150 -1.5045 -2.1642  2.4130
   27MOL   C164 4896   0.129   7.854   6.856  0.2837  0.7063  0.3984
   27MOL   C165 4897   8.135   7.923   6.859  0.1526 -0.0703 -0.4924
   27MOL   C166 4898   0.139   7.734   6.764  0.1920 -0.0860  0.1627
   27MOL   O167 4899   0.097   7.622   6.796  0.3328 -0.5218  0.1507
   27MOL   O168 4900   0.176   7.765   6.649 -0.1261  0.0677 -0.6253
   27MOL   H169 4901   0.188   7.935   6.813 -3.2475  2.6382 -1.0651
   27MOL   H170 4902   8.109   7.966   6.763 -0.2243  0.1858 -0.2799
   27MOL   H171 4903   8.047   7.868   6.893  0.6419 -0.4441  0.1830
   27MOL   H172 4904   8.144   8.004   6.931  2.5977 -0.5611 -0.2242
   27MOL   C173 4905   0.183   7.671   6.544  0.2798 -0.0879  0.5850
   27MOL   C174 4906   0.328   7.698   6.494  0.6649 -0.0297  0.1418
   27MOL   C175 4907   0.084   7.707   6.433 -0.0984 -0.6126 -0.0814
   27MOL   O176 4908   0.103   7.704   6.307  0.1942 -0.4788 -0.7477
   27MOL   O177 4909   8.112   7.739   6.483 -0.0583 -0.4307 -0.1731
   27MOL   H178 4910   0.175   7.566   6.571 -0.5603 -0.3591 -0.6642
   27MOL   H179 4911   0.388   7.663   6.578  1.4507  1.8001  0.3463
   27MOL   H180 4912   0.358   7.661   6.396  1.2078  1.2938 -0.2007
   27MOL   H181 4913   0.349   7.804   6.489  1.5092 -0.1505  0.9992
   27MOL   H182 4914   8.056   7.754   6.408  3.7858  0.9547 -2.9505
   28MOL     C1 4915   5.755   7.302   4.923 -0.6082 -0.5094 -0.3453
   28MOL     C2 4916   5.795   7.290   4.770  1.1717 -0.0270  0.0918
   28MOL     C3 4917   5.650   7.200   4.965 -0.5258  0.2888 -0.0458
   28MOL     O4 4918   5.589   7.125   4.888  0.6497 -0.6055 -0.2262
   28MOL     O5 4919   5.634   7.195   5.101 -0.4494 -0.0398 -0.3534
   28MOL     H6 4920   5.844   7.299   4.985 -0.3913 -2.4687 -0.7003
   28MOL     H7 4921   5.868   7.216   4.738  3.6198  1.2796  2.4483
   28MOL     H8 4922   5.712   7.267   4.703  0.1532 -0.8717  1.5956
   28MOL     H9 4923   5.846   7.378   4.730 -0.9374  1.0959 -0.2438
   28MOL    H10 4924   5.716   7.402   4.940  2.2739  0.7904 -1.0736
   28MOL    C11 4925   5.563   7.091   5.172  0.5415  0.3116 -0.4171
   28MOL    C12 4926   5.420   7.121   5.159  0.2975  0.1453  0.2298
   28MOL    C13 4927   5.612   7.102   5.315  0.3276  0.8156 -0.0322
   28MOL    O14 4928   5.672   7.011   5.373 -0.5484 -0.0727 -0.2186
   28MOL    O15 4929   5.572   7.219   5.369  0.1810  0.3258 -0.0822
   28MOL    H16 4930   5.588   6.993   5.132  3.5108  1.3603 -1.2839
   28MOL    H17 4931   5.366   7.033   5.195  1.4519 -0.3466  0.8227
   28MOL    H18 4932   5.395   7.216   5.206  0.1863  1.2746 -2.0612
   28MOL    H19 4933   5.389   7.122   5.055 -3.1610 -1.3782  1.1888
   28MOL    C20 4934   5.632   7.275   5.489 -0.4711 -0.5756 -0.1883
   28MOL    C21 4935   5.554   7.227   5.613  0.1461 -0.1727  0.7966
   28MOL    C22 4936   5.630   7.432   5.476  0.3736 -1.0306 -0.1881
   28MOL    O23 4937   5.579   7.482   5.380  0.0728 -0.0768 -0.6093
   28MOL    O24 4938   5.684   7.495   5.575 -0.3271 -0.2807  0.5356
   28MOL    H25 4939   5.737   7.250   5.503 -0.2920  1.4104  2.5860
   28MOL    H26 4940   5.545   7.119   5.615  0.7738 -0.2467  0.1346
   28MOL    H27 4941   5.612   7.252   5.701 -1.5348 -1.6856  2.3717
   28MOL    H28 4942   5.462   7.285   5.625  0.2607  0.6318 -1.7389
   28MOL    C29 4943   5.726   7.631   5.568 -0.6373 -0.9335 -0.6085
   28MOL    C30 4944   5.857   7.651   5.645 -0.2251 -0.4253  0.4985
   28MOL    C31 4945   5.625   7.736   5.609  0.4647  0.1923 -0.3630
   28MOL    O32 4946   5.612   7.766   5.730  0.3539  0.3155 -0.1305
   28MOL    O33 4947   5.558   7.777   5.507 -0.7721 -0.4983 -0.1796
   28MOL    H34 4948   5.766   7.653   5.469  2.0681 -2.0888  0.1606
   28MOL    H35 4949   5.845   7.623   5.749 -2.5846 -0.0196  0.3611
   28MOL    H36 4950   5.936   7.582   5.614 -1.6985 -1.2691 -1.4623
   28MOL    H37 4951   5.886   7.756   5.641  0.8645 -0.6227  2.6466
   28MOL    C38 4952   5.444   7.872   5.525 -0.1468 -0.1662 -0.1443
   28MOL    C39 4953   5.334   7.830   5.418  0.0747  0.4715  0.4724
   28MOL    C40 4954   5.486   8.022   5.496 -0.1289  0.5611 -0.0210
   28MOL    O41 4955   5.605   8.051   5.482 -0.6620  0.5874  0.9907
   28MOL    O42 4956   5.377   8.109   5.508 -0.1104  0.2132  0.1673
   28MOL    H43 4957   5.392   7.847   5.617  1.2037  0.0700  0.7017
   28MOL    H44 4958   5.375   7.856   5.320  1.9672  0.8532  1.3515
   28MOL    H45 4959   5.297   7.727   5.415  0.2435  0.4197  0.1659
   28MOL    H46 4960   5.246   7.894   5.421 -1.4104 -1.4302 -1.0093
   28MOL    C47 4961   5.383   0.098   5.473 -0.0638 -0.5927 -0.6255
   28MOL    C48 4962   5.437   0.175   5.592  0.1420 -0.3592  0.4238
   28MOL    C49 4963   5.241   0.145   5.425  0.5778  0.1294 -0.1410
   28MOL    O50 4964   5.205   0.147   5.308  0.3129  0.4049  0.1280
   28MOL    O51 4965   5.158   0.155   5.530  0.0253  0.3219 -0.1518
   28MOL    H52 4966   5.453   0.092   5.390  1.2178  2.0551  0.2315
   28MOL    H53 4967   5.470   0.276   5.567  1.4686 -1.4305 -2.3074
   28MOL    H54 4968   5.360   0.189   5.669 -0.5577 -0.8752 -0.1746
   28MOL    H55 4969   5.527   0.128   5.631  0.0566 -0.7842  0.1033
   28MOL    C56 4970   5.013   0.184   5.528 -0.3948 -0.0812  0.3304
   28MOL    C57 4971   4.973   0.280   5.643 -0.3323 -0.6116  0.2897
   28MOL    C58 4972   4.924   0.052   5.521 -0.4488 -0.6860  0.5577
   28MOL    O59 4973   4.821   0.041   5.584 -0.0250 -0.8456 -0.1378
   28MOL    O60 4974   4.963   8.116   5.425 -0.0734  0.4140  0.0365
   28MOL    H61 4975   4.994   0.244   5.439 -0.9841  0.9394  1.1342
   28MOL    H62 4976   4.865   0.293   5.646 -0.8104 -3.8505 -0.4263
   28MOL    H63 4977   4.993   0.235   5.740  1.4065  0.9088  0.6660
   28MOL    H64 4978   5.027   0.374   5.643 -2.3762  0.6061 -0.9787
   28MOL    C65 4979   4.912   7.982   5.400  0.1826 -0.0370 -0.0598
   28MOL    C66 4980   4.783   7.995   5.322  0.2342 -0.0367 -0.8571
   28MOL    C67 4981   4.894   7.894   5.523 -0.7777 -0.4715  0.2609
   28MOL    O68 4982   4.786   7.873   5.573  0.4366 -0.0487 -0.2133
   28MOL    O69 4983   5.007   7.856   5.574 -0.4058  0.4618 -0.1418
   28MOL    H70 4984   4.986   7.944   5.329 -0.4476  1.5577 -1.6160
   28MOL    H71 4985   4.797   8.034   5.221  0.9338  0.6387 -0.5043
   28MOL    H72 4986   4.721   7.905   5.317  0.4317 -0.1944 -0.4237
   28MOL    H73 4987   4.708   8.051   5.378  1.1732  0.5061 -0.1300
   28MOL    C74 4988   5.006   7.757   5.679 -0.3301  0.2830 -0.0467
   28MOL    C75 4989   5.129   7.764   5.771 -0.1862 -0.0630  0.4034
   28MOL    C76 4990   4.994   7.617   5.618 -0.1545 -0.2148  0.3254
   28MOL    O77 4991   4.886   7.550   5.614 -0.0383 -0.5166 -0.2931
   28MOL    O78 4992   5.108   7.583   5.557 -0.1932 -0.0427 -0.5925
   28MOL    H79 4993   4.910   7.760   5.731  1.2187 -1.2906  3.0485
   28MOL    H80 4994   5.216   7.724   5.720 -0.0162 -1.3284  1.6593
   28MOL    H81 4995   5.150   7.864   5.810 -0.9558  0.7013 -1.0940
   28MOL    H82 4996   5.131   7.683   5.844  0.3107  0.3031  0.8013
   28MOL    C83 4997   5.116   7.476   5.468 -0.4327  0.2417  0.1236
   28MOL    C84 4998   5.260   7.440   5.465 -0.3483 -0.4169  0.4541
   28MOL    C85 4999   5.058   7.510   5.321  0.6848  0.0493 -0.4145
   28MOL    O86 5000   5.013   7.616   5.289  0.1085  0.0073  0.5806
   28MOL    O87 5001   5.055   7.399   5.237 -0.2947 -0.0631  0.4244
   28MOL    H88 5002   5.060   7.389   5.501  0.4862 -1.7223 -3.1624
   28MOL    H89 5003   5.327   7.526   5.471 -0.1305 -0.5463 -0.1661
   28MOL    H90 5004   5.291   7.376   5.548 -1.3461 -1.1219  0.2900
   28MOL    H91 5005   5.282   7.394   5.369 -3.4462  0.7469 -0.8913
   28MOL    C92 5006   4.975   7.399   5.123  0.1342 -0.4509 -0.8112
   28MOL    C93 5007   4.897   7.267   5.106  0.6850 -0.6096 -0.3337
   28MOL    C94 5008   5.055   7.430   4.995 -0.4620  0.4309  0.0749
   28MOL    O95 5009   5.166   7.475   5.003 -0.2393  0.0608 -0.1158
   28MOL    O96 5010   4.992   7.405   4.875  0.1300  0.0556  0.5055
   28MOL    H97 5011   4.901   7.478   5.134  0.3299 -0.4784  0.8668
   28MOL    H98 5012   4.965   7.182   5.108  1.6934  0.1427 -1.8747
   28MOL    H99 5013   4.822   7.246   5.183  0.4446  1.4226  0.0206
   28MOL   H100 5014   4.835   7.273   5.017  0.7234  1.3316 -0.2617
   28MOL   C101 5015   5.048   7.460   4.754 -0.5624  0.3700  0.3770
   28MOL   C102 5016   4.931   7.457   4.659  0.2775  0.0060 -0.1425
   28MOL   C103 5017   5.176   7.379   4.714 -0.3749  0.3972 -0.7678
   28MOL   O104 5018   5.182   7.260   4.740 -0.4185 -0.2217 -0.0422
   28MOL   O105 5019   5.286   7.451   4.675  0.0173 -0.1833 -0.1757
   28MOL   H106 5020   5.075   7.565   4.754 -1.0156  0.4941  1.8408
   28MOL   H107 5021   4.884   7.556   4.661  0.1575 -0.0462 -0.4360
   28MOL   H108 5022   4.957   7.435   4.556 -0.8212 -0.5086 -0.3232
   28MOL   H109 5023   4.858   7.382   4.690 -0.5329  0.3677 -1.1435
   28MOL   C110 5024   5.417   7.394   4.654 -1.1085  0.2717  0.0756
   28MOL   C111 5025   5.526   7.497   4.689 -0.2177  0.1744 -1.2663
   28MOL   C112 5026   5.422   7.354   4.509 -0.2258  0.3828  0.4321
   28MOL   O113 5027   5.457   7.428   4.416 -0.7227 -0.4859  0.0142
   28MOL   O114 5028   5.362   7.232   4.491 -0.6328  0.0494 -0.3407
   28MOL   H115 5029   5.442   7.308   4.717 -0.7440  1.1940  1.2103
   28MOL   H116 5030   5.621   7.488   4.637  1.1849  0.2465  1.2392
   28MOL   H117 5031   5.498   7.595   4.650 -0.6625  0.0327 -1.3058
   28MOL   H118 5032   5.535   7.515   4.796 -0.5472 -0.2180 -1.1706
   28MOL   C119 5033   5.314   7.175   4.371  0.2249  0.9780  0.8908
   28MOL   C120 5034   5.198   7.078   4.395  0.6748 -0.7811 -0.4532
   28MOL   C121 5035   5.428   7.110   4.294 -0.1172  0.6214 -0.1754
   28MOL   O122 5036   5.423   7.097   4.175 -0.9337  0.0687  0.0984
   28MOL   O123 5037   5.502   7.029   4.371  0.2478 -0.3676 -0.8171
   28MOL   H124 5038   5.283   7.259   4.308  1.8685  0.3808 -0.7247
   28MOL   H125 5039   5.125   7.114   4.467  0.3192  1.2343 -1.7763
   28MOL   H126 5040   5.140   7.070   4.303 -2.3276 -0.0787  1.3373
   28MOL   H127 5041   5.212   6.977   4.434  0.8343 -0.9470 -0.9317
   28MOL   C128 5042   5.627   6.979   4.318 -0.1160  0.8095  0.7585
   28MOL   C129 5043   5.691   6.881   4.418  0.9036 -0.3849 -0.5026
   28MOL   C130 5044   5.729   7.085   4.263  0.0531  0.1399  0.2705
   28MOL   O131 5045   5.715   7.207   4.286  0.1591  0.2315  0.1103
   28MOL   O132 5046   5.818   7.026   4.181  0.4487  0.2426  0.2108
   28MOL   H133 5047   5.596   6.923   4.230 -1.5232 -0.3298  1.9569
   28MOL   H134 5048   5.750   6.802   4.370 -1.3086 -1.8804 -0.8415
   28MOL   H135 5049   5.758   6.915   4.497  1.8625  0.6842 -1.7615
   28MOL   H136 5050   5.607   6.827   4.463  0.1246 -0.6695 -2.2340
   28MOL   C137 5051   5.904   7.091   4.094  0.3129  0.3228 -0.6294
   28MOL   C138 5052   5.883   7.032   3.954  0.3213  0.3214 -0.6365
   28MOL   C139 5053   6.051   7.086   4.156  0.4534 -0.3054 -0.1452
   28MOL   O140 5054   6.122   7.184   4.166 -0.1952  0.0730  0.7309
   28MOL   O141 5055   6.085   6.965   4.188  0.5272  0.0084 -0.6050
   28MOL   H142 5056   5.870   7.194   4.091 -0.7083  0.0628  1.2080
   28MOL   H143 5057   5.936   7.091   3.879 -0.8790  2.3416  0.0512
   28MOL   H144 5058   5.908   6.927   3.936 -1.3299 -0.3425  0.8621
   28MOL   H145 5059   5.776   7.040   3.932  0.3170  2.1600 -0.0174
   28MOL   C146 5060   6.208   6.920   4.238 -0.1814  0.3656 -0.5982
   28MOL   C147 5061   6.206   6.766   4.252 -0.4608 -0.4715 -0.1689
   28MOL   C148 5062   6.249   6.984   4.372 -0.1787  0.2287  0.8539
   28MOL   O149 5063   6.367   7.012   4.391 -0.1398 -0.7682  0.3222
   28MOL   O150 5064   6.145   6.997   4.455  0.1840 -0.1354  0.2734
   28MOL   H151 5065   6.294   6.952   4.178 -0.6508 -0.6571 -1.8473
   28MOL   H152 5066   6.121   6.731   4.311 -0.1491 -1.2535 -0.1779
   28MOL   H153 5067   6.189   6.739   4.148  1.2518  0.1787 -0.6380
   28MOL   H154 5068   6.291   6.715   4.297 -1.0291 -0.1024  1.3378
   28MOL   C155 5069   6.167   7.056   4.583  0.4107 -0.0524 -0.4820
   28MOL   C156 5070   6.049   7.023   4.668 -0.2348 -1.6185 -0.2737
   28MOL   C157 5071   6.193   7.212   4.574 -0.0789  0.2473  0.4796
   28MOL   O158 5072   6.271   7.263   4.654 -0.5524  0.1053  0.1050
   28MOL   O159 5073   6.117   7.281   4.473 -0.6217 -0.1477  1.0973
   28MOL   H160 5074   6.249   7.002   4.630 -0.0486 -0.5252 -0.2200
   28MOL   H161 5075   6.052   7.067   4.768  0.3019 -0.4016 -0.8119
   28MOL   H162 5076   5.957   7.049   4.615  1.1193  0.9450 -1.4370
   28MOL   H163 5077   6.040   6.915   4.682 -1.0976 -1.5166  0.0002
   28MOL   C164 5078   6.122   7.421   4.446 -0.3472 -0.0097 -0.7745
   28MOL   C165 5079   5.983   7.479   4.424  0.6947  0.2891  0.0479
   28MOL   C166 5080   6.229   7.454   4.337 -0.5810  0.3980 -0.5665
   28MOL   O167 5081   6.192   7.511   4.231 -1.1907 -0.0533  0.3332
   28MOL   O168 5082   6.350   7.409   4.366  0.5057 -0.2142 -0.1368
   28MOL   H169 5083   6.166   7.471   4.533  0.8023 -0.3945 -1.1330
   28MOL   H170 5084   5.934   7.447   4.332  2.0618 -0.8353 -0.2956
   28MOL   H171 5085   5.914   7.461   4.506  0.3436 -0.1170 -0.3299
   28MOL   H172 5086   5.997   7.585   4.401 -1.4906  0.7282  0.6340
   28MOL   C173 5087   6.470   7.436   4.287  0.4327 -0.1985  0.5193
   28MOL   C174 5088   6.532   7.304   4.235  0.2775  0.1314  0.1215
   28MOL   C175 5089   6.568   7.508   4.373  0.5567 -0.1237  0.5815
   28MOL   O176 5090   6.687   7.479   4.390 -0.4098  0.4749 -0.3610
   28MOL   O177 5091   6.500   7.610   4.435 -0.2391 -0.1173 -0.0466
   28MOL   H178 5092   6.443   7.496   4.200  0.7295  0.1622  0.6717
   28MOL   H179 5093   6.634   7.316   4.197 -0.3695  2.1707 -1.0441
   28MOL   H180 5094   6.528   7.229   4.313 -2.1772  1.2069  1.0646
   28MOL   H181 5095   6.481   7.260   4.150 -0.1035 -2.0177  1.4446
   28MOL   H182 5096   6.559   7.668   4.481 -2.9016  1.7555  1.1255
   29MOL     C1 5097   2.998   0.107   3.496 -0.1998 -0.4402 -0.5320
   29MOL     C2 5098   3.131   0.050   3.455  0.1307  0.2291 -0.8224
   29MOL     C3 5099   2.965   0.097   3.649 -0.3087  0.3518  0.4320
   29MOL     O4 5100   2.872   0.033   3.687  0.0778  0.4558  0.1044
   29MOL     O5 5101   3.050   0.168   3.724  0.6834 -0.2794 -0.1282
   29MOL     H6 5102   2.997   0.214   3.475 -1.9213 -0.2552  0.3973
   29MOL     H7 5103   3.144   8.094   3.488  1.2541  1.0019  1.2602
   29MOL     H8 5104   3.144   0.047   3.347  2.0638 -0.6860 -0.5916
   29MOL     H9 5105   3.211   0.105   3.504 -0.8912  1.4765 -0.5238
   29MOL    H10 5106   2.919   0.057   3.440  0.0131  0.2019 -1.4255
   29MOL    C11 5107   3.039   0.154   3.861  0.1769 -0.2673 -0.2391
   29MOL    C12 5108   3.107   0.278   3.922  0.9648 -0.2615 -0.3311
   29MOL    C13 5109   3.093   0.018   3.906 -0.6012 -0.2441 -0.2688
   29MOL    O14 5110   3.055   8.105   4.004 -0.0653  0.2181  0.0259
   29MOL    O15 5111   3.194   8.132   3.833  0.3752 -0.4100 -0.5130
   29MOL    H16 5112   2.936   0.165   3.895  0.2847  3.5054 -1.0085
   29MOL    H17 5113   3.215   0.268   3.933  1.0368  1.7510  1.0896
   29MOL    H18 5114   3.071   0.364   3.865  4.0827  0.5598 -1.1154
   29MOL    H19 5115   3.063   0.280   4.022 -0.6927 -1.4028 -1.0093
   29MOL    C20 5116   3.264   8.010   3.853  0.1867 -0.8440  0.4294
   29MOL    C21 5117   3.414   8.033   3.805 -0.5448 -0.2700 -0.4795
   29MOL    C22 5118   3.198   7.891   3.781 -0.1305  0.1291 -0.3863
   29MOL    O23 5119   3.123   7.912   3.692 -0.0832 -0.5369  0.0794
   29MOL    O24 5120   3.223   7.773   3.841 -0.7019 -0.7445 -0.1214
   29MOL    H25 5121   3.280   7.992   3.960 -0.3345  2.0511  1.0474
   29MOL    H26 5122   3.462   7.935   3.805 -0.9278 -0.4688 -2.2015
   29MOL    H27 5123   3.395   8.054   3.700 -0.6619 -1.1214 -0.6308
   29MOL    H28 5124   3.466   8.110   3.862 -3.3699  0.0583  1.7489
   29MOL    C29 5125   3.157   7.658   3.794 -0.5757 -0.2989  0.6266
   29MOL    C30 5126   3.158   7.552   3.908  0.5216 -0.1434  0.1020
   29MOL    C31 5127   3.227   7.609   3.673  0.2471 -0.2003  0.0174
   29MOL    O32 5128   3.170   7.563   3.575 -0.3871 -0.2340  0.2983
   29MOL    O33 5129   3.367   7.618   3.694  0.2116  0.4106  0.4373
   29MOL    H34 5130   3.058   7.666   3.751 -0.8572  0.0309  1.3297
   29MOL    H35 5131   3.106   7.592   3.995  0.9379  1.2351 -0.2706
   29MOL    H36 5132   3.116   7.462   3.864  2.5317  0.7222 -3.8606
   29MOL    H37 5133   3.262   7.535   3.936  1.5264  3.6315 -1.0747
   29MOL    C38 5134   3.470   7.595   3.595  0.8738  0.7216 -0.2431
   29MOL    C39 5135   3.600   7.657   3.659 -0.1196  0.1923 -0.3619
   29MOL    C40 5136   3.438   7.668   3.461  0.5402  0.1162 -0.5604
   29MOL    O41 5137   3.440   7.620   3.349 -0.0102  0.3473 -0.1611
   29MOL    O42 5138   3.408   7.801   3.485  0.3081  0.6811 -0.1323
   29MOL    H43 5139   3.482   7.487   3.580  0.4631  0.7222 -0.6000
   29MOL    H44 5140   3.648   7.601   3.740 -1.8525 -1.0916 -0.2146
   29MOL    H45 5141   3.672   7.671   3.578 -1.0314  0.8301 -1.0606
   29MOL    H46 5142   3.578   7.761   3.684 -1.4912 -0.1617 -0.0673
   29MOL    C47 5143   3.395   7.900   3.386  0.3407 -0.0226  0.7277
   29MOL    C48 5144   3.265   7.874   3.305  0.7797 -0.1853 -0.0633
   29MOL    C49 5145   3.524   7.923   3.302 -0.1010 -0.5803 -0.1659
   29MOL    O50 5146   3.513   7.931   3.177  0.1300  0.1693  0.5795
   29MOL    O51 5147   3.631   7.939   3.371  0.2833  0.6910  0.1537
   29MOL    H52 5148   3.368   8.001   3.419 -0.9208  1.1272 -3.4331
   29MOL    H53 5149   3.234   7.959   3.245 -0.8284  0.1001  1.1361
   29MOL    H54 5150   3.284   7.797   3.230 -2.6620  0.2975 -1.5401
   29MOL    H55 5151   3.182   7.825   3.357 -0.8362  2.0717 -0.4360
   29MOL    C56 5152   3.760   7.937   3.318  0.5274 -0.2934  0.2176
   29MOL    C57 5153   3.791   7.805   3.243  0.1684 -0.7020 -0.4715
   29MOL    C58 5154   3.854   7.951   3.438 -0.1609  0.6277 -0.2943
   29MOL    O59 5155   3.931   8.042   3.452 -0.0586  0.0056  0.6057
   29MOL    O60 5156   3.850   7.844   3.521  0.5251 -0.1278 -0.0373
   29MOL    H61 5157   3.775   8.015   3.245 -1.2831  0.6992  0.8553
   29MOL    H62 5158   3.898   7.788   3.246  0.2616 -0.3706 -1.6077
   29MOL    H63 5159   3.735   7.725   3.291  1.0332 -0.2491  1.3701
   29MOL    H64 5160   3.764   7.802   3.138 -1.0992 -0.6317 -0.1644
   29MOL    C65 5161   3.938   7.831   3.640  0.2639 -0.3242 -0.1400
   29MOL    C66 5162   3.987   7.677   3.646  0.1329  0.2005 -0.2186
   29MOL    C67 5163   3.865   7.877   3.771  0.0967  0.0343 -0.1317
   29MOL    O68 5164   3.872   7.813   3.875  0.0040 -0.7890 -0.3163
   29MOL    O69 5165   3.821   8.000   3.757 -0.5408  0.3082 -0.4628
   29MOL    H70 5166   4.031   7.884   3.618  1.0663 -1.5275  0.3113
   29MOL    H71 5167   3.909   7.611   3.684  0.6581 -0.4522 -0.2838
   29MOL    H72 5168   4.020   7.651   3.546 -0.5203 -1.3826 -0.0288
   29MOL    H73 5169   4.067   7.652   3.716 -0.0479 -0.6133 -0.2979
   29MOL    C74 5170   3.762   8.081   3.858 -1.0276  0.3422  0.0193
   29MOL    C75 5171   3.736   0.068   3.795  0.6048 -0.0777  0.2533
   29MOL    C76 5172   3.856   8.117   3.986  0.3226  0.5175 -0.1291
   29MOL    O77 5173   3.800   0.004   4.091 -0.1231 -0.1491 -0.1203
   29MOL    O78 5174   3.982   8.104   3.952 -0.2140 -0.2811 -0.2783
   29MOL    H79 5175   3.672   8.030   3.894 -0.7159  0.7086  1.3580
   29MOL    H80 5176   3.645   0.069   3.734 -1.1255 -1.5057  2.7500
   29MOL    H81 5177   3.729   0.145   3.871  1.6335 -1.5209  1.8401
   29MOL    H82 5178   3.822   0.095   3.733 -0.1697  3.1932  0.4807
   29MOL    C83 5179   4.090   0.010   4.031  0.7901  0.1148 -0.9199
   29MOL    C84 5180   4.099   8.126   4.183 -0.2112  0.2619 -1.2087
   29MOL    C85 5181   4.106   0.164   4.011  0.1593 -0.3412  0.1320
   29MOL    O86 5182   4.165   0.231   4.096  0.1645  0.0869 -0.1393
   29MOL    O87 5183   4.068   0.201   3.885  0.3976 -0.1437 -0.2894
   29MOL    H88 5184   4.173   8.098   3.994  0.0564 -2.1334  0.9187
   29MOL    H89 5185   4.000   8.140   4.226 -0.5549 -0.0244 -1.9038
   29MOL    H90 5186   4.145   8.030   4.204  0.8797  1.1096  0.3662
   29MOL    H91 5187   4.158   0.047   4.244 -1.2411 -0.0697  0.1904
   29MOL    C92 5188   4.090   0.335   3.835 -1.0331  0.0378 -1.0040
   29MOL    C93 5189   4.001   0.364   3.718  0.1880 -0.3282  0.2501
   29MOL    C94 5190   4.239   0.360   3.801 -0.1134 -0.0432  0.4748
   29MOL    O95 5191   4.316   0.269   3.783 -0.2788 -0.1113  0.2388
   29MOL    O96 5192   4.266   0.488   3.788  0.2872 -0.3084 -0.0393
   29MOL    H97 5193   4.056   0.403   3.914  0.8590 -1.4071  1.0997
   29MOL    H98 5194   4.007   0.472   3.704 -2.9131  0.0834  1.6378
   29MOL    H99 5195   4.035   0.311   3.629 -0.1539  0.1720 -0.1807
   29MOL   H100 5196   3.898   0.340   3.746  0.0721 -1.0606 -0.7490
   29MOL   C101 5197   4.376   0.538   3.710  0.1591 -0.2941 -0.0922
   29MOL   C102 5198   4.389   0.684   3.735  0.3379  0.2363  0.5937
   29MOL   C103 5199   4.375   0.494   3.562  0.6168 -0.7335 -0.5308
   29MOL   O104 5200   4.476   0.469   3.496  0.3906  0.0461  0.2255
   29MOL   O105 5201   4.254   0.498   3.508  1.3116  0.5775 -0.1744
   29MOL   H106 5202   4.466   0.497   3.756 -0.5802  0.2995  1.9712
   29MOL   H107 5203   4.484   0.718   3.694 -1.4829  3.7061 -1.0396
   29MOL   H108 5204   4.299   0.724   3.688  0.2471 -1.5862 -0.8509
   29MOL   H109 5205   4.397   0.704   3.842  1.4621 -0.8247  0.7172
   29MOL   C110 5206   4.226   0.503   3.368 -0.4617  0.6596  0.3300
   29MOL   C111 5207   4.254   0.364   3.296  0.1316  0.0052  0.2171
   29MOL   C112 5208   4.282   0.625   3.294  0.4353 -0.2309 -0.3214
   29MOL   O113 5209   4.334   0.611   3.185 -0.9196 -0.1009  0.3938
   29MOL   O114 5210   4.284   0.737   3.378 -0.0118 -0.2108 -0.1296
   29MOL   H115 5211   4.120   0.526   3.364 -0.8720 -1.2476 -0.3032
   29MOL   H116 5212   4.175   0.355   3.221  1.6551 -1.1234 -1.2757
   29MOL   H117 5213   4.354   0.361   3.253  0.6524 -0.8841  1.4602
   29MOL   H118 5214   4.234   0.283   3.366 -0.5433  1.5670  1.8819
   29MOL   C119 5215   4.343   0.856   3.327  0.8006  0.1992  0.4901
   29MOL   C120 5216   4.285   0.912   3.198 -0.1723 -0.1252  0.6794
   29MOL   C121 5217   4.499   0.851   3.323  0.3289  0.4172 -0.4194
   29MOL   O122 5218   4.560   0.870   3.220  0.0220 -0.5353  0.9589
   29MOL   O123 5219   4.546   0.810   3.437 -0.4939  0.5229  0.3083
   29MOL   H124 5220   4.330   0.935   3.401  0.9391  1.2281 -0.5761
   29MOL   H125 5221   4.287   0.851   3.108 -1.8842  3.6895 -2.0729
   29MOL   H126 5222   4.178   0.931   3.208 -0.7272 -0.8805 -3.1563
   29MOL   H127 5223   4.326   1.008   3.168  0.2621 -0.0140  1.6048
   29MOL   C128 5224   4.694   0.800   3.464  0.0041  0.3400  0.0791
   29MOL   C129 5225   4.721   0.713   3.580  0.5149  0.2095  0.5270
   29MOL   C130 5226   4.750   0.942   3.490 -0.2216 -0.1028  0.6207
   29MOL   O131 5227   4.683   1.031   3.539 -0.3515 -0.0133  0.3714
   29MOL   O132 5228   4.867   0.948   3.439 -0.4671  0.0379 -0.2805
   29MOL   H133 5229   4.747   0.762   3.377 -3.1136 -2.2242 -0.7793
   29MOL   H134 5230   4.692   0.772   3.667  1.1388  2.3244 -0.6412
   29MOL   H135 5231   4.665   0.621   3.569  0.9690 -0.1408  1.1249
   29MOL   H136 5232   4.827   0.689   3.577  0.3852 -0.2284 -0.6127
   29MOL   C137 5233   4.953   1.064   3.431  0.3418 -0.5627 -0.2619
   29MOL   C138 5234   5.080   1.032   3.337 -0.1998 -0.0417  0.3599
   29MOL   C139 5235   4.997   1.112   3.564  0.2052 -0.3236  0.2898
   29MOL   O140 5236   4.991   1.231   3.603 -0.0523  0.3310 -0.1585
   29MOL   O141 5237   5.054   1.013   3.631  0.6506  0.5739 -0.4005
   29MOL   H142 5238   4.898   1.152   3.397  0.7479  0.0525  0.6319
   29MOL   H143 5239   5.040   0.989   3.246  0.5602  0.1101 -0.0463
   29MOL   H144 5240   5.149   1.111   3.311  0.8417 -1.3147 -0.8308
   29MOL   H145 5241   5.139   0.950   3.379 -0.7279 -0.7002 -0.1793
   29MOL   C146 5242   5.105   1.025   3.768 -0.0802 -0.0000  0.9734
   29MOL   C147 5243   5.258   1.035   3.769 -0.4504  0.1542  0.0404
   29MOL   C148 5244   5.050   0.904   3.843 -0.1208  0.1636 -0.4850
   29MOL   O149 5245   4.936   0.913   3.891 -0.2134 -0.4891  0.7533
   29MOL   O150 5246   5.131   0.798   3.841 -0.5157 -0.1663  0.0171
   29MOL   H151 5247   5.045   1.105   3.812 -0.2261 -1.2810  3.1348
   29MOL   H152 5248   5.282   1.138   3.745  0.1911  0.3229  1.4133
   29MOL   H153 5249   5.288   1.017   3.872  0.5215 -1.2138 -0.4624
   29MOL   H154 5250   5.300   0.965   3.695 -0.9864 -0.7980  0.6243
   29MOL   C155 5251   5.110   0.663   3.887 -0.2313  0.1555 -0.3188
   29MOL   C156 5252   4.998   0.596   3.804 -0.0550  0.2670 -0.3315
   29MOL   C157 5253   5.080   0.669   4.036 -0.0707 -0.6770 -0.3310
   29MOL   O158 5254   4.989   0.604   4.087 -0.6971 -0.3442 -0.1542
   29MOL   O159 5255   5.168   0.744   4.106 -0.4678 -0.1796 -0.0510
   29MOL   H160 5256   5.196   0.604   3.856 -1.2907 -1.3025 -0.4944
   29MOL   H161 5257   5.032   0.586   3.700 -1.4266  1.7175 -0.9381
   29MOL   H162 5258   4.983   0.495   3.843  0.6102  0.5808  0.7547
   29MOL   H163 5259   4.905   0.651   3.817 -0.7083 -0.4200 -1.9295
   29MOL   C164 5260   5.164   0.758   4.252 -0.0824 -0.2716 -0.8568
   29MOL   C165 5261   5.215   0.905   4.274  0.0484 -0.3596  0.3716
   29MOL   C166 5262   5.267   0.654   4.309  0.6042  0.1470  0.4457
   29MOL   O167 5263   5.273   0.539   4.257 -0.3594  0.0338 -0.0986
   29MOL   O168 5264   5.330   0.697   4.424 -0.0975 -0.9043  0.0807
   29MOL   H169 5265   5.060   0.748   4.284  0.4198 -1.3063  0.4941
   29MOL   H170 5266   5.319   0.916   4.241 -0.2627  0.0253 -0.5012
   29MOL   H171 5267   5.173   0.976   4.202  1.5634 -0.7646 -0.9666
   29MOL   H172 5268   5.205   0.935   4.378  0.3230  1.4674 -0.0977
   29MOL   C173 5269   5.436   0.626   4.490  0.9442  0.2815  0.4023
   29MOL   C174 5270   5.469   0.691   4.627  0.3305 -0.2235  0.2710
   29MOL   C175 5271   5.556   0.621   4.396  0.2544 -0.5865 -0.0909
   29MOL   O176 5272   5.555   0.687   4.293 -0.0779 -0.2896 -0.3142
   29MOL   O177 5273   5.659   0.556   4.449 -0.2498  0.7558  0.2283
   29MOL   H178 5274   5.404   0.523   4.507  0.9017  0.0308 -1.1243
   29MOL   H179 5275   5.388   0.657   4.692 -1.3138  2.2863 -0.3948
   29MOL   H180 5276   5.564   0.654   4.664  1.1143  2.0869  0.6738
   29MOL   H181 5277   5.470   0.800   4.634 -1.2181 -0.1771  0.0249
   29MOL   H182 5278   5.725   0.560   4.381 -1.2186  0.2019 -0.7552
   30MOL     C1 5279   1.174   2.562   7.380  0.4102 -0.6483 -0.1893
   30MOL     C2 5280   1.066   2.464   7.345 -0.3796  0.2446 -0.4192
   30MOL     C3 5281   1.220   2.563   7.518  0.4785  0.4416  0.2273
   30MOL     O4 5282   1.140   2.567   7.609 -0.0133 -0.4157 -0.1482
   30MOL     O5 5283   1.352   2.565   7.528 -0.1962 -0.3764  0.0451
   30MOL     H6 5284   1.256   2.536   7.313  0.4620  0.1078 -0.4258
   30MOL     H7 5285   1.065   2.371   7.402 -2.0961  0.6034  0.1626
   30MOL     H8 5286   0.963   2.500   7.354 -0.9444 -0.9157 -1.8969
   30MOL     H9 5287   1.070   2.456   7.236  0.7372  2.0143 -0.5272
   30MOL    H10 5288   1.131   2.657   7.348 -0.4160 -0.8668  0.2544
   30MOL    C11 5289   1.409   2.561   7.664 -0.1127  0.0623 -0.4021
   30MOL    C12 5290   1.424   2.709   7.704 -0.3126 -0.2778  0.3338
   30MOL    C13 5291   1.540   2.469   7.651 -0.1329 -0.2243  0.0270
   30MOL    O14 5292   1.540   2.358   7.701  0.5480  0.5298  0.0845
   30MOL    O15 5293   1.631   2.523   7.560 -0.0813 -0.3356 -0.2631
   30MOL    H16 5294   1.337   2.517   7.733  2.4318 -0.8824  1.7402
   30MOL    H17 5295   1.485   2.727   7.792 -1.0571 -0.3795  0.8740
   30MOL    H18 5296   1.463   2.770   7.622  1.6219 -0.9029  0.7519
   30MOL    H19 5297   1.327   2.756   7.717 -0.4479 -0.7686  1.1690
   30MOL    C20 5298   1.738   2.445   7.509 -0.6878  0.8163 -0.6334
   30MOL    C21 5299   1.689   2.318   7.430 -0.4524 -0.2171 -0.5746
   30MOL    C22 5300   1.848   2.416   7.609 -0.6404  0.1666  0.4119
   30MOL    O23 5301   1.839   2.423   7.733  0.2834 -0.1826  0.5127
   30MOL    O24 5302   1.966   2.392   7.539 -0.1495 -0.5592  0.4663
   30MOL    H25 5303   1.786   2.506   7.433 -0.5671  0.3468 -0.9344
   30MOL    H26 5304   1.584   2.326   7.401 -0.0972 -1.7954 -2.3419
   30MOL    H27 5305   1.759   2.306   7.348 -2.1975 -3.2089 -1.6842
   30MOL    H28 5306   1.700   2.230   7.493  1.9077 -0.6261 -1.5111
   30MOL    C29 5307   2.081   2.377   7.608  0.2710  0.5750 -0.0768
   30MOL    C30 5308   2.202   2.418   7.523  0.4169 -0.6392  0.1036
   30MOL    C31 5309   2.084   2.228   7.658 -0.0348  0.7699 -0.2206
   30MOL    O32 5310   2.091   2.208   7.778  0.0848 -0.1981 -0.3886
   30MOL    O33 5311   2.081   2.139   7.554 -0.1345 -0.1408 -0.2631
   30MOL    H34 5312   2.089   2.438   7.698  0.3941 -2.1308  1.8246
   30MOL    H35 5313   2.187   2.368   7.428 -0.3329  1.3568 -0.8481
   30MOL    H36 5314   2.185   2.524   7.507 -3.1604 -1.4807 -2.1056
   30MOL    H37 5315   2.299   2.392   7.566  0.6905 -0.5948 -0.4797
   30MOL    C38 5316   2.082   1.996   7.584  0.6499  0.1215 -0.6695
   30MOL    C39 5317   1.935   1.952   7.618 -0.0909  0.1171  0.5161
   30MOL    C40 5318   2.202   1.944   7.678 -0.0425  0.7184  0.5481
   30MOL    O41 5319   2.191   1.851   7.754 -0.6783 -0.1766  0.1081
   30MOL    O42 5320   2.319   2.014   7.650 -0.2074  0.2223  0.5577
   30MOL    H43 5321   2.113   1.948   7.491 -1.2572 -1.2043 -0.6401
   30MOL    H44 5322   1.878   1.980   7.530  0.0868 -1.0101  0.0293
   30MOL    H45 5323   1.937   1.847   7.649  1.9996  0.3314  1.1736
   30MOL    H46 5324   1.885   2.003   7.700  0.2184 -1.1900  1.5462
   30MOL    C47 5325   2.441   1.984   7.717 -0.7339  0.1261  1.0523
   30MOL    C48 5326   2.434   2.049   7.855 -0.1971  0.1321  0.4814
   30MOL    C49 5327   2.549   2.029   7.620 -0.8943 -0.6634 -0.2331
   30MOL    O50 5328   2.567   2.143   7.576  0.0591 -0.1423 -0.0076
   30MOL    O51 5329   2.634   1.930   7.578 -0.3466  0.4687  0.1906
   30MOL    H52 5330   2.455   1.876   7.715  0.6232  0.3038 -1.7582
   30MOL    H53 5331   2.532   2.038   7.903  0.1411 -0.6188 -0.3678
   30MOL    H54 5332   2.428   2.156   7.834 -1.9557 -0.2628 -1.1065
   30MOL    H55 5333   2.354   2.020   7.923 -0.7932  1.9383  0.5847
   30MOL    C56 5334   2.749   1.964   7.504 -0.8169  0.0976 -0.3510
   30MOL    C57 5335   2.813   1.830   7.464  0.0483  0.2465  0.0697
   30MOL    C58 5336   2.842   2.058   7.590  0.5385  0.1530  0.2687
   30MOL    O59 5337   2.851   2.038   7.711 -0.0217  0.1900 -0.2764
   30MOL    O60 5338   2.910   2.150   7.523 -0.0158  0.0263 -0.2790
   30MOL    H61 5339   2.717   2.019   7.415 -1.6213 -0.8368 -0.6520
   30MOL    H62 5340   2.891   1.856   7.393  1.8465 -0.2791  1.7890
   30MOL    H63 5341   2.857   1.780   7.551  1.7132 -0.2775 -1.0634
   30MOL    H64 5342   2.744   1.756   7.424  0.6686 -0.4614  0.2918
   30MOL    C65 5343   3.017   2.227   7.576  0.1165  0.1897  0.1776
   30MOL    C66 5344   3.026   2.349   7.481 -0.5784 -0.2412  0.5980
   30MOL    C67 5345   3.150   2.146   7.577 -0.2389 -0.7581 -1.0090
   30MOL    O68 5346   3.156   2.023   7.557 -0.3028  0.2598  0.5645
   30MOL    O69 5347   3.253   2.230   7.604  0.5045  0.2909 -0.5968
   30MOL    H70 5348   3.006   2.254   7.681  0.5503  1.3987 -0.0795
   30MOL    H71 5349   3.042   2.307   7.382  2.3151 -0.8696  1.2645
   30MOL    H72 5350   2.937   2.411   7.483  0.2329  0.9139  1.5934
   30MOL    H73 5351   3.106   2.418   7.508  0.6588 -1.3688 -0.1140
   30MOL    C74 5352   3.386   2.178   7.587  0.2190 -0.5336 -0.5330
   30MOL    C75 5353   3.472   2.247   7.698 -0.0066  0.1021  0.2874
   30MOL    C76 5354   3.440   2.182   7.444 -0.5623 -0.5925  0.5408
   30MOL    O77 5355   3.554   2.208   7.422 -1.0371 -0.3332  0.5126
   30MOL    O78 5356   3.356   2.160   7.351  0.5218  0.4110 -0.6860
   30MOL    H79 5357   3.380   2.077   7.628  0.6279  0.3721  1.8256
   30MOL    H80 5358   3.569   2.196   7.696  0.0677  0.2666 -0.6046
   30MOL    H81 5359   3.485   2.352   7.671 -2.6697 -0.0143 -1.6409
   30MOL    H82 5360   3.436   2.226   7.798 -1.2751  0.0016 -0.1889
   30MOL    C83 5361   3.398   2.141   7.217  0.6539 -0.2333  0.1283
   30MOL    C84 5362   3.399   2.288   7.148  0.3907  0.3642 -0.2214
   30MOL    C85 5363   3.309   2.037   7.149 -0.6698  0.2686  0.2643
   30MOL    O86 5364   3.274   1.935   7.214  0.2701 -0.0445  0.3783
   30MOL    O87 5365   3.288   2.049   7.009 -0.0402 -0.3089 -0.1479
   30MOL    H88 5366   3.501   2.104   7.213  0.8337  0.2748 -0.0046
   30MOL    H89 5367   3.431   2.293   7.044 -3.4098  0.9721 -1.4300
   30MOL    H90 5368   3.294   2.306   7.127  0.0673  1.2582  2.0996
   30MOL    H91 5369   3.456   2.358   7.208  0.7459 -1.6651  1.8747
   30MOL    C92 5370   3.220   1.955   6.923 -0.0689  0.3888 -0.5111
   30MOL    C93 5371   3.069   1.949   6.953  0.1323  0.0130 -0.3741
   30MOL    C94 5372   3.287   1.815   6.921 -0.5172  0.2554  0.0759
   30MOL    O95 5373   3.397   1.783   6.969 -0.6721  0.1591 -0.4180
   30MOL    O96 5374   3.204   1.723   6.878 -0.5651 -0.0979 -0.2526
   30MOL    H97 5375   3.243   1.998   6.826 -2.5237 -0.0982 -1.3402
   30MOL    H98 5376   3.024   1.892   6.872 -0.8578 -0.7910  0.7290
   30MOL    H99 5377   3.046   1.906   7.051  0.9925  3.6524  1.5226
   30MOL   H100 5378   3.010   2.040   6.955  0.6662  0.3840 -1.4063
   30MOL   C101 5379   3.244   1.582   6.879 -0.6075 -0.0355  0.6409
   30MOL   C102 5380   3.205   1.533   6.744  0.2329  0.0912 -0.4448
   30MOL   C103 5381   3.186   1.510   7.003 -0.2427  0.0524  0.6704
   30MOL   O104 5382   3.130   1.400   6.991  0.0308  0.0182  0.4505
   30MOL   O105 5383   3.203   1.582   7.118  0.3078  0.3419 -0.0807
   30MOL   H106 5384   3.352   1.572   6.885 -0.7515 -2.9853 -0.4561
   30MOL   H107 5385   3.239   1.609   6.673  0.1121 -0.8400 -1.5008
   30MOL   H108 5386   3.239   1.434   6.715  1.0928 -0.3752  1.9740
   30MOL   H109 5387   3.098   1.533   6.725  0.2968 -1.2378 -0.7856
   30MOL   C110 5388   3.173   1.518   7.247 -0.1473 -0.1021  0.1493
   30MOL   C111 5389   3.171   1.632   7.356  0.5397 -0.1025 -0.1355
   30MOL   C112 5390   3.277   1.410   7.274  0.3490  0.2060 -0.7992
   30MOL   O113 5391   3.395   1.429   7.243 -1.0369 -0.2594 -0.4023
   30MOL   O114 5392   3.239   1.304   7.347  0.0636 -0.5254 -1.0419
   30MOL   H115 5393   3.076   1.470   7.253  0.6120 -1.7215 -0.3917
   30MOL   H116 5394   3.076   1.685   7.343  1.4238  0.7306 -3.8984
   30MOL   H117 5395   3.185   1.593   7.456  0.1272  0.3453  0.0963
   30MOL   H118 5396   3.244   1.709   7.332 -1.0637  1.5887  0.2935
   30MOL   C119 5397   3.337   1.204   7.375  0.1811  0.1539  0.1176
   30MOL   C120 5398   3.437   1.255   7.480 -0.4584  0.7125  0.3060
   30MOL   C121 5399   3.414   1.151   7.254  0.0226  0.9285 -0.4703
   30MOL   O122 5400   3.538   1.146   7.254  0.5018  0.6092 -0.0175
   30MOL   O123 5401   3.337   1.106   7.159  0.1046  0.1215  0.0029
   30MOL   H124 5402   3.291   1.115   7.417  0.2730 -0.2331 -0.6021
   30MOL   H125 5403   3.523   1.312   7.447  0.5074 -0.3550  0.9259
   30MOL   H126 5404   3.388   1.323   7.550 -2.1889 -0.6040  0.4215
   30MOL   H127 5405   3.481   1.174   7.539 -0.1653 -0.6248 -1.6920
   30MOL   C128 5406   3.403   1.049   7.044 -0.2325 -0.4300  0.4282
   30MOL   C129 5407   3.294   1.080   6.936  0.6094 -0.7473  0.6098
   30MOL   C130 5408   3.417   0.894   7.059  0.4435 -0.5080  0.0216
   30MOL   O131 5409   3.404   0.844   7.173 -0.1606 -0.1136  0.0347
   30MOL   O132 5410   3.446   0.817   6.949  0.1054 -0.2918  0.5099
   30MOL   H133 5411   3.498   1.095   7.020 -0.1083  0.2791  2.1867
   30MOL   H134 5412   3.304   1.015   6.849 -1.6041 -0.2306 -0.0688
   30MOL   H135 5413   3.195   1.054   6.975  0.4259  0.4515  0.9824
   30MOL   H136 5414   3.308   1.178   6.891  0.2394 -1.7694 -1.8125
   30MOL   C137 5415   3.474   0.680   6.961 -0.3286  0.4600 -0.5225
   30MOL   C138 5416   3.363   0.583   7.012 -0.1636  0.0670  0.1170
   30MOL   C139 5417   3.610   0.648   7.018 -0.5384 -1.2860  0.4167
   30MOL   O140 5418   3.641   0.651   7.139 -0.4388 -0.0888  0.5350
   30MOL   O141 5419   3.692   0.615   6.917 -0.5491  0.3345 -0.3287
   30MOL   H142 5420   3.475   0.642   6.858 -0.0889 -0.4695 -0.1797
   30MOL   H143 5421   3.319   0.518   6.936  1.7128  0.9761 -1.8016
   30MOL   H144 5422   3.407   0.511   7.081  0.1345  0.8048  0.6931
   30MOL   H145 5423   3.281   0.629   7.067  0.7371  2.9680 -0.8918
   30MOL   C146 5424   3.829   0.580   6.940  0.2379 -0.4940 -0.0227
   30MOL   C147 5425   3.885   0.593   6.801 -0.2602  0.5025  0.6948
   30MOL   C148 5426   3.848   0.444   7.004  0.0458  0.1778  0.5194
   30MOL   O149 5427   3.814   0.338   6.952 -0.3812 -0.7053 -0.1433
   30MOL   O150 5428   3.905   0.468   7.129  0.0021  0.2889 -0.0028
   30MOL   H151 5429   3.874   0.657   7.003  0.2205  0.1648 -0.8078
   30MOL   H152 5430   3.865   0.694   6.764 -0.0667 -0.3729 -1.8729
   30MOL   H153 5431   3.994   0.586   6.800 -0.2541  0.6628  0.1634
   30MOL   H154 5432   3.858   0.510   6.737 -0.5966 -0.3768  1.9551
   30MOL   C155 5433   3.956   0.370   7.205 -0.7764 -0.2772 -0.1065
   30MOL   C156 5434   3.999   0.436   7.337 -0.6914  0.0804  0.3808
   30MOL   C157 5435   4.068   0.279   7.138  0.2399 -0.1562 -0.0860
   30MOL   O158 5436   4.081   0.164   7.166  0.4628  0.7385 -0.6116
   30MOL   O159 5437   4.144   0.349   7.054 -0.3378 -0.3964  0.0588
   30MOL   H160 5438   3.874   0.299   7.221 -0.4557 -0.4734  0.6999
   30MOL   H161 5439   4.054   0.529   7.322 -3.0409  1.6288  1.1851
   30MOL   H162 5440   3.912   0.455   7.399 -0.6887 -1.8311  0.9807
   30MOL   H163 5441   4.081   0.379   7.380  0.5767  1.5134 -0.0799
   30MOL   C164 5442   4.256   0.290   6.989  0.2561  0.1731  0.9421
   30MOL   C165 5443   4.211   0.203   6.862  0.2949  0.2435 -0.5146
   30MOL   C166 5444   4.361   0.222   7.086 -0.1005 -0.6373 -0.5500
   30MOL   O167 5445   4.384   0.099   7.079 -0.5937  0.0807  0.3195
   30MOL   O168 5446   4.406   0.307   7.182  0.2381 -0.0058  0.0780
   30MOL   H169 5447   4.312   0.374   6.949  0.5680 -1.2189 -1.6785
   30MOL   H170 5448   4.159   0.114   6.897  1.8617 -0.1618  0.8898
   30MOL   H171 5449   4.152   0.269   6.799 -1.1543  1.3026  1.8593
   30MOL   H172 5450   4.295   0.164   6.804  0.0848 -1.2597  0.1801
   30MOL   C173 5451   4.476   0.258   7.305 -0.2787 -0.5952  0.8326
   30MOL   C174 5452   4.452   0.351   7.426  0.5498 -0.9584  0.3825
   30MOL   C175 5453   4.628   0.251   7.266  0.2000  0.3984 -0.5287
   30MOL   O176 5454   4.714   0.335   7.311 -0.7729  0.4788  0.0864
   30MOL   O177 5455   4.653   0.147   7.181 -0.3926  0.1200 -0.4270
   30MOL   H178 5456   4.434   0.161   7.332 -0.6931 -1.1717 -1.7361
   30MOL   H179 5457   4.344   0.362   7.433  0.7356  0.0568  2.0628
   30MOL   H180 5458   4.484   0.306   7.520 -3.9523 -0.5853  2.2168
   30MOL   H181 5459   4.500   0.449   7.415  1.1947 -1.1424  1.4903
   30MOL   H182 5460   4.734   0.165   7.136 -1.3532  2.3427 -1.3641
   31MOL     C1 5461   7.868   0.444   0.839  0.7613  0.0293  0.2091
   31MOL     C2 5462   7.919   0.514   0.970 -0.5690 -0.8948 -0.2526
   31MOL     C3 5463   7.920   0.512   0.714  0.2267 -0.9836 -0.1553
   31MOL     O4 5464   7.978   0.617   0.720  0.0210  0.5434 -0.5484
   31MOL     O5 5465   7.895   0.446   0.596 -0.1484 -0.6325 -0.0097
   31MOL     H6 5466   7.875   0.336   0.826  0.1600 -0.2825  2.2569
   31MOL     H7 5467   7.868   0.610   0.983 -2.2645 -1.9494  1.3796
   31MOL     H8 5468   7.916   0.464   1.067 -3.3212 -0.9569 -0.3094
   31MOL     H9 5469   8.020   0.554   0.968 -0.6928 -0.4476  1.3553
   31MOL    H10 5470   7.760   0.458   0.841  0.5969 -0.7779 -1.8691
   31MOL    C11 5471   7.934   0.498   0.467 -0.1678 -0.1201 -0.2208
   31MOL    C12 5472   7.856   0.442   0.354 -0.3943  0.9308  0.0221
   31MOL    C13 5473   8.081   0.475   0.434 -0.9013 -0.5233 -0.3312
   31MOL    O14 5474   8.117   0.377   0.363  0.4516  0.2104 -0.1943
   31MOL    O15 5475   0.014   0.560   0.489  0.5208 -0.9566  0.0536
   31MOL    H16 5476   7.918   0.606   0.468 -1.0299 -0.2469  0.8739
   31MOL    H17 5477   7.751   0.472   0.360 -0.6563  0.6356 -2.6827
   31MOL    H18 5478   7.896   0.487   0.263  2.0636  0.9851  1.0849
   31MOL    H19 5479   7.866   0.334   0.341 -2.0170  0.8244 -0.4231
   31MOL    C20 5480   0.152   0.544   0.482  0.1627 -0.2255  0.4247
   31MOL    C21 5481   0.208   0.626   0.602  0.2020  0.2606  0.0160
   31MOL    C22 5482   0.211   0.603   0.354  0.6168  0.6976 -0.2999
   31MOL    O23 5483   0.155   0.684   0.281 -0.3355  0.0632 -0.2832
   31MOL    O24 5484   0.332   0.562   0.320 -0.7420 -1.3029  0.0036
   31MOL    H25 5485   0.184   0.440   0.486 -0.7078 -0.5343 -0.3655
   31MOL    H26 5486   0.184   0.731   0.582 -0.6554  0.0976  0.1704
   31MOL    H27 5487   0.151   0.587   0.686 -0.3748  0.1259 -0.4312
   31MOL    H28 5488   0.314   0.613   0.624  0.0394 -1.3151 -0.0615
   31MOL    C29 5489   0.415   0.632   0.224  0.3313  1.3441  0.0689
   31MOL    C30 5490   0.538   0.539   0.192  0.2165  0.3438 -0.6751
   31MOL    C31 5491   0.473   0.760   0.293 -1.1042 -0.0088  0.6193
   31MOL    O32 5492   0.453   0.780   0.411 -0.0065 -0.4697 -0.9798
   31MOL    O33 5493   0.554   0.839   0.213 -0.7798 -0.2879  0.6647
   31MOL    H34 5494   0.358   0.651   0.133 -1.4519  0.3155  0.9366
   31MOL    H35 5495   0.610   0.542   0.273 -2.4136  0.7644  1.7439
   31MOL    H36 5496   0.519   0.432   0.194  0.4637  0.2960 -0.9227
   31MOL    H37 5497   0.581   0.563   0.095  1.8909 -0.4332 -0.1344
   31MOL    C38 5498   0.618   0.956   0.269 -0.5596  0.2876  0.1500
   31MOL    C39 5499   0.610   1.069   0.172  0.3214 -0.0378 -0.0677
   31MOL    C40 5500   0.761   0.927   0.296 -0.0980  0.0029 -0.4811
   31MOL    O41 5501   0.803   0.938   0.412  0.1053 -0.3217 -0.4899
   31MOL    O42 5502   0.827   0.882   0.190  0.4071  0.1244  0.2568
   31MOL    H43 5503   0.576   0.974   0.368 -0.6134  1.0738 -0.0162
   31MOL    H44 5504   0.655   1.168   0.181 -3.9567  2.3227 -2.7248
   31MOL    H45 5505   0.653   1.045   0.074 -4.2262 -1.2089 -1.8995
   31MOL    H46 5506   0.505   1.085   0.148 -0.2388 -2.6812  0.4514
   31MOL    C47 5507   0.966   0.867   0.202 -0.0376  0.1730 -0.3093
   31MOL    C48 5508   1.033   0.863   0.066 -0.1424 -0.6483  0.1782
   31MOL    C49 5509   1.002   0.742   0.290 -0.5898 -0.5602 -0.0496
   31MOL    O50 5510   0.930   0.639   0.298  0.1344 -0.3673  0.3922
   31MOL    O51 5511   1.122   0.757   0.356  0.2371 -0.8649  0.0059
   31MOL    H52 5512   1.004   0.955   0.254  1.8754 -1.0681  0.4375
   31MOL    H53 5513   1.016   0.958   0.015  1.6604 -0.3808  0.0424
   31MOL    H54 5514   1.138   0.860   0.095 -1.0193  0.2316  3.6637
   31MOL    H55 5515   1.013   0.776   0.003  2.7063 -2.3975  1.6109
   31MOL    C56 5516   1.193   0.641   0.395 -0.5855 -0.2597 -1.0642
   31MOL    C57 5517   1.246   0.679   0.533  0.4515 -0.3548  0.7285
   31MOL    C58 5518   1.296   0.602   0.300 -0.3087  0.0955 -0.0826
   31MOL    O59 5519   1.322   0.481   0.281  0.3832  0.6735  0.1055
   31MOL    O60 5520   1.371   0.707   0.255 -0.6613  0.4944  0.0488
   31MOL    H61 5521   1.132   0.551   0.400 -0.4502 -0.1796  4.7353
   31MOL    H62 5522   1.158   0.704   0.593 -1.0739 -0.6612 -1.3127
   31MOL    H63 5523   1.302   0.590   0.561  0.5878  0.4365  3.1180
   31MOL    H64 5524   1.305   0.770   0.529 -0.0440 -0.0770 -0.8489
   31MOL    C65 5525   1.490   0.690   0.175  0.2520  0.2976  0.0358
   31MOL    C66 5526   1.602   0.634   0.271 -0.1204  0.0751  0.1153
   31MOL    C67 5527   1.528   0.824   0.120 -0.0016  0.2781 -0.4900
   31MOL    O68 5528   1.649   0.851   0.094  0.3783  0.4375 -0.1110
   31MOL    O69 5529   1.421   0.901   0.086 -0.1598  0.2113  0.2693
   31MOL    H70 5530   1.471   0.630   0.086 -1.8473 -0.9761  1.2923
   31MOL    H71 5531   1.572   0.529   0.275 -0.7365  0.2909  1.2542
   31MOL    H72 5532   1.708   0.632   0.244  0.4154 -0.3321  2.1278
   31MOL    H73 5533   1.597   0.666   0.375  0.0962  0.6442 -0.0455
   31MOL    C74 5534   1.452   1.029   0.024 -0.2355  0.0142  0.0698
   31MOL    C75 5535   1.395   1.132   0.117 -0.5057 -0.5324  0.4747
   31MOL    C76 5536   1.399   1.028   8.023 -0.6410 -0.0583  0.5517
   31MOL    O77 5537   1.344   0.926   7.976  0.1671 -0.8060  0.0253
   31MOL    O78 5538   1.438   1.136   7.953 -0.3013 -0.0889  0.3781
   31MOL    H79 5539   1.559   1.048   0.013 -0.4818  1.7833  0.5938
   31MOL    H80 5540   1.409   1.122   0.224 -1.3222 -0.4538  0.5938
   31MOL    H81 5541   1.445   1.226   0.093 -1.0603 -1.1560 -3.4224
   31MOL    H82 5542   1.289   1.146   0.094 -0.8188 -0.2376  2.0796
   31MOL    C83 5543   1.402   1.157   7.819 -0.1826  0.5062 -0.7997
   31MOL    C84 5544   1.514   1.234   7.755  0.8583 -0.4395  0.6107
   31MOL    C85 5545   1.266   1.237   7.808  0.0995  0.2578  0.6926
   31MOL    O86 5546   1.195   1.251   7.905  0.3875 -0.1135 -0.1088
   31MOL    O87 5547   1.237   1.275   7.680 -0.1595  0.0957 -0.2436
   31MOL    H88 5548   1.385   1.062   7.768 -2.2449 -0.1806  1.0810
   31MOL    H89 5549   1.605   1.183   7.783  0.8685 -0.6432  0.2110
   31MOL    H90 5550   1.507   1.228   7.646 -0.1888 -0.4472  0.6690
   31MOL    H91 5551   1.519   1.341   7.776  0.3433 -0.1575 -0.5859
   31MOL    C92 5552   1.110   1.311   7.629  0.0520  0.3371  0.3773
   31MOL    C93 5553   1.087   1.464   7.643 -0.0371  0.3125 -0.2463
   31MOL    C94 5554   0.992   1.223   7.683  0.5931 -0.6952 -0.5375
   31MOL    O95 5555   0.886   1.270   7.732  0.5797  0.5387  0.3644
   31MOL    O96 5556   1.015   1.094   7.682  0.4077 -0.1279  0.2476
   31MOL    H97 5557   1.113   1.291   7.522  1.5350  1.8833  0.1082
   31MOL    H98 5558   0.987   1.484   7.605 -0.9686 -0.0786  1.9524
   31MOL    H99 5559   1.101   1.487   7.748 -0.1048 -0.1931 -0.1247
   31MOL   H100 5560   1.169   1.521   7.599 -0.4774  1.1476 -0.0028
   31MOL   C101 5561   0.936   0.986   7.742  0.5598 -1.0035  0.3704
   31MOL   C102 5562   1.028   0.867   7.764 -0.0009 -0.6937  0.0535
   31MOL   C103 5563   0.809   0.964   7.663 -0.9561  0.2145  0.6420
   31MOL   O104 5564   0.710   0.919   7.720  0.2955  0.2137  0.0774
   31MOL   O105 5565   0.817   0.994   7.528  0.1544  0.4645  0.1196
   31MOL   H106 5566   0.893   1.015   7.837  2.0122 -3.6132  1.8766
   31MOL   H107 5567   1.111   0.886   7.833  0.3035  0.3747 -0.5958
   31MOL   H108 5568   0.980   0.780   7.810 -2.4821  1.1430  1.0545
   31MOL   H109 5569   1.071   0.851   7.665 -1.4588  1.7385 -1.0108
   31MOL   C110 5570   0.703   0.997   7.446  0.2959  0.0549 -0.6868
   31MOL   C111 5571   0.750   0.995   7.295 -0.0435 -0.4363 -0.1761
   31MOL   C112 5572   0.625   1.126   7.483  1.0196  0.2203  0.1222
   31MOL   O113 5573   0.659   1.208   7.570 -0.6190  0.1577  0.1910
   31MOL   O114 5574   0.511   1.132   7.420  0.0504 -0.2477 -0.2045
   31MOL   H115 5575   0.644   0.906   7.457  1.8636 -0.9176 -0.1897
   31MOL   H116 5576   0.677   0.977   7.217 -0.8898  1.5893  0.1318
   31MOL   H117 5577   0.799   1.090   7.275  0.6705 -0.4369  1.4179
   31MOL   H118 5578   0.821   0.912   7.287  0.0161 -0.5868  1.5716
   31MOL   C119 5579   0.408   1.216   7.473  0.0864 -0.4428 -0.0040
   31MOL   C120 5580   0.278   1.168   7.404 -0.6785 -0.3197  0.0302
   31MOL   C121 5581   0.419   1.367   7.424 -0.2728  0.6368 -0.5820
   31MOL   O122 5582   0.483   1.401   7.323 -0.2410 -0.0190  0.4365
   31MOL   O123 5583   0.358   1.452   7.507 -0.4373 -0.3744 -0.4281
   31MOL   H124 5584   0.397   1.216   7.581  0.3787  4.1598  0.1366
   31MOL   H125 5585   0.252   1.062   7.408 -0.6902 -0.2388  3.1676
   31MOL   H126 5586   0.190   1.214   7.448 -0.9189  1.0294 -1.8290
   31MOL   H127 5587   0.273   1.200   7.300 -0.0002 -0.0564  0.0781
   31MOL   C128 5588   0.351   1.598   7.492  0.1690  0.0198 -0.2121
   31MOL   C129 5589   0.245   1.643   7.595  0.4004  0.2186  0.3004
   31MOL   C130 5590   0.311   1.633   7.340  0.5957  0.3113 -0.2255
   31MOL   O131 5591   0.378   1.708   7.270  0.4727  0.2368  0.0258
   31MOL   O132 5592   0.178   1.602   7.311 -0.3912  0.4327  0.3798
   31MOL   H133 5593   0.450   1.637   7.516  0.8116 -1.0832 -1.0112
   31MOL   H134 5594   0.196   1.724   7.541  1.7677 -0.3211 -1.7796
   31MOL   H135 5595   0.169   1.572   7.627 -0.3657  0.7198 -0.3821
   31MOL   H136 5596   0.292   1.678   7.688 -0.0651 -0.8793  0.9554
   31MOL   C137 5597   0.136   1.612   7.175 -0.2944  0.1905 -0.6165
   31MOL   C138 5598   8.141   1.662   7.173  0.1637 -0.1628  0.9449
   31MOL   C139 5599   0.162   1.477   7.105 -0.1791  1.2954  0.2703
   31MOL   O140 5600   0.160   1.368   7.163  0.1092  0.0804  0.3386
   31MOL   O141 5601   0.185   1.503   6.971  0.0197 -0.0098 -0.2010
   31MOL   H142 5602   0.180   1.697   7.123  0.2516 -1.2417 -2.5159
   31MOL   H143 5603   8.124   1.739   7.248  1.1356  0.4927  0.4943
   31MOL   H144 5604   8.118   1.700   7.073  4.4455  2.4284  0.8433
   31MOL   H145 5605   8.081   1.574   7.194  1.6596 -1.2400  0.7554
   31MOL   C146 5606   0.211   1.411   6.865  0.0207 -0.3702 -0.8910
   31MOL   C147 5607   0.182   1.474   6.724  0.2147  0.3648 -0.9255
   31MOL   C148 5608   0.134   1.278   6.883 -0.7602 -0.0702  0.2419
   31MOL   O149 5609   0.014   1.268   6.864  0.5081 -0.0855  0.2067
   31MOL   O150 5610   0.217   1.179   6.925 -0.3892 -0.0762  0.1219
   31MOL   H151 5611   0.319   1.391   6.866 -0.1214 -1.1390  0.0838
   31MOL   H152 5612   0.087   1.526   6.710  0.3136  0.8556  0.2391
   31MOL   H153 5613   0.268   1.536   6.701 -0.4585  1.7664  0.2586
   31MOL   H154 5614   0.178   1.392   6.652  2.1709 -0.3095 -0.3012
   31MOL   C155 5615   0.165   1.044   6.935 -0.5281 -0.0153 -0.0758
   31MOL   C156 5616   0.293   0.964   6.989  0.1414 -0.7923  0.2335
   31MOL   C157 5617   0.121   0.987   6.802 -0.1805 -0.0166 -0.2520
   31MOL   O158 5618   0.034   0.899   6.803 -0.0119 -0.5496 -0.8522
   31MOL   O159 5619   0.192   1.032   6.695  0.0090 -0.0590  0.2151
   31MOL   H160 5620   0.085   1.054   7.008 -0.5394  0.1219 -0.1066
   31MOL   H161 5621   0.382   0.985   6.930 -0.8650  1.3394 -0.5929
   31MOL   H162 5622   0.300   0.990   7.095 -2.1256  0.5861  0.0929
   31MOL   H163 5623   0.275   0.857   6.981  0.5051 -0.7218 -1.7843
   31MOL   C164 5624   0.160   0.999   6.562  0.7912  0.0305 -0.1732
   31MOL   C165 5625   0.274   1.041   6.475  0.5337 -0.3811 -1.1197
   31MOL   C166 5626   0.031   1.064   6.524 -0.6967  0.5118 -0.5417
   31MOL   O167 5627   0.021   1.184   6.487 -0.2754  0.1831 -0.1853
   31MOL   O168 5628   8.075   0.979   6.536  0.3575  0.2183  0.4516
   31MOL   H169 5629   0.151   0.890   6.565 -1.4789  0.1680 -1.0594
   31MOL   H170 5630   0.282   1.149   6.488  2.0099 -0.4248 -1.6365
   31MOL   H171 5631   0.366   0.997   6.514  0.2320  0.6154  0.7903
   31MOL   H172 5632   0.258   0.998   6.376  0.3576 -0.0282 -1.2476
   31MOL   C173 5633   7.940   1.026   6.508  1.0574 -0.6393 -0.3217
   31MOL   C174 5634   7.858   1.041   6.635  0.1538  0.9954 -0.0074
   31MOL   C175 5635   7.874   0.917   6.422  0.7951 -0.3769  1.0350
   31MOL   O176 5636   7.927   0.812   6.389  0.5458  0.2514  0.0748
   31MOL   O177 5637   7.744   0.947   6.392  0.2915  0.2244  0.5565
   31MOL   H178 5638   7.928   1.117   6.449 -1.5673 -1.8750 -1.7628
   31MOL   H179 5639   7.915   1.115   6.692 -1.5210  1.7895  0.6762
   31MOL   H180 5640   7.759   1.085   6.624 -0.9075 -1.0112  1.1029
   31MOL   H181 5641   7.838   0.947   6.688  1.1734  0.6563 -0.2311
   31MOL   H182 5642   7.717   0.862   6.362 -0.7652  0.3282  1.1589
   32MOL     C1 5643   3.215   4.438   2.469  0.0450  0.1616 -0.8202
   32MOL     C2 5644   3.193   4.586   2.491  1.1150  0.0899 -0.1337
   32MOL     C3 5645   3.181   4.369   2.600  0.4299  0.0219 -0.5179
   32MOL     O4 5646   3.258   4.375   2.696  0.4028  0.1562 -0.8907
   32MOL     O5 5647   3.068   4.299   2.592 -0.6195  0.3041 -0.2493
   32MOL     H6 5648   3.145   4.390   2.400 -1.0722  2.5215 -1.3632
   32MOL     H7 5649   3.090   4.592   2.526  1.4028  0.3999  0.6592
   32MOL     H8 5650   3.249   4.630   2.573 -0.5765  2.2169 -0.0710
   32MOL     H9 5651   3.210   4.645   2.401  1.3653  0.1404 -0.0524
   32MOL    H10 5652   3.322   4.424   2.450 -0.1634 -0.3276 -1.6809
   32MOL    C11 5653   3.027   4.221   2.703 -0.1400  0.0750  0.0496
   32MOL    C12 5654   2.954   4.097   2.652 -0.6519  0.0161 -0.8985
   32MOL    C13 5655   2.941   4.304   2.793  0.3000  0.6854  0.6728
   32MOL    O14 5656   2.972   4.349   2.906 -0.6954 -0.2348  0.3560
   32MOL    O15 5657   2.824   4.331   2.734  0.2369 -0.3163 -0.7733
   32MOL    H16 5658   3.108   4.181   2.765 -0.1632  0.9369  0.6411
   32MOL    H17 5659   2.867   4.120   2.589 -1.7968 -1.0795  0.2543
   32MOL    H18 5660   3.014   4.031   2.589 -1.5700 -1.4313 -0.2845
   32MOL    H19 5661   2.906   4.044   2.734 -2.6031 -0.6400 -2.4239
   32MOL    C20 5662   2.742   4.441   2.788 -0.3140  0.1824 -0.1928
   32MOL    C21 5663   2.594   4.417   2.750  0.4880 -0.0822 -0.2069
   32MOL    C22 5664   2.793   4.572   2.728  0.4547 -0.3822 -0.3157
   32MOL    O23 5665   2.736   4.619   2.631 -0.7071  0.2479 -0.3575
   32MOL    O24 5666   2.900   4.627   2.789 -0.7725 -0.6534  0.5414
   32MOL    H25 5667   2.735   4.432   2.896  0.8164  1.2954 -0.0143
   32MOL    H26 5668   2.581   4.411   2.642  0.8612  0.4572 -0.2839
   32MOL    H27 5669   2.542   4.339   2.806  0.1875  0.1215 -0.1988
   32MOL    H28 5670   2.528   4.495   2.789 -0.0237 -0.3425 -0.5441
   32MOL    C29 5671   2.955   4.756   2.748  0.1751 -0.3916  0.3946
   32MOL    C30 5672   3.098   4.762   2.803 -0.2245 -0.1287  0.3911
   32MOL    C31 5673   2.862   4.867   2.795 -0.8883  0.1169 -0.1569
   32MOL    O32 5674   2.845   4.969   2.727  0.5631 -0.4646 -0.0581
   32MOL    O33 5675   2.807   4.839   2.911 -0.4480 -0.4949 -0.2368
   32MOL    H34 5676   2.973   4.754   2.641  0.6160 -1.3453  0.4801
   32MOL    H35 5677   3.104   4.772   2.912 -0.7185 -2.1202  0.6314
   32MOL    H36 5678   3.153   4.672   2.775  2.8535  2.3645 -1.8886
   32MOL    H37 5679   3.153   4.844   2.758 -0.4953  0.4881  1.1668
   32MOL    C38 5680   2.716   4.928   2.979  0.3118 -0.0075  0.6541
   32MOL    C39 5681   2.717   4.900   3.127 -0.1885 -0.1588  0.1758
   32MOL    C40 5682   2.571   4.916   2.928  0.8554 -0.2297 -0.3621
   32MOL    O41 5683   2.544   4.841   2.836 -0.2869  0.3522 -0.4364
   32MOL    O42 5684   2.486   4.996   2.992 -0.0458 -0.1303 -0.3704
   32MOL    H43 5685   2.741   5.032   2.959 -1.2932  0.2443 -0.1793
   32MOL    H44 5686   2.657   4.974   3.180  1.7595  0.9070  0.9397
   32MOL    H45 5687   2.680   4.802   3.159 -0.6681  0.1824  0.6887
   32MOL    H46 5688   2.818   4.909   3.166  0.3532  0.7259 -1.3976
   32MOL    C47 5689   2.350   4.994   2.954 -0.0054 -0.4100  0.4757
   32MOL    C48 5690   2.309   5.144   2.942 -0.2502  0.3273  0.0190
   32MOL    C49 5691   2.273   4.914   3.060  0.9032 -0.4393  0.2539
   32MOL    O50 5692   2.316   4.883   3.170  0.6186  0.3927 -0.4289
   32MOL    O51 5693   2.145   4.893   3.019 -0.5281 -0.5786  0.0164
   32MOL    H52 5694   2.333   4.947   2.857  1.1461  2.5017 -1.1911
   32MOL    H53 5695   2.375   5.180   2.863  0.8841 -1.0031  0.3326
   32MOL    H54 5696   2.206   5.172   2.921  0.0239  0.8505 -0.6474
   32MOL    H55 5697   2.340   5.199   3.031 -1.2106  1.1293 -0.1500
   32MOL    C56 5698   2.053   4.823   3.096 -0.0001  0.4727 -0.0298
   32MOL    C57 5699   1.941   4.906   3.168 -0.0674 -0.4493 -0.7245
   32MOL    C58 5700   2.099   4.702   3.174 -1.0282 -0.9064 -0.8530
   32MOL    O59 5701   2.105   4.594   3.120 -0.0037  0.0294 -0.2610
   32MOL    O60 5702   2.121   4.728   3.309  0.2924 -0.9839 -0.1190
   32MOL    H61 5703   1.994   4.774   3.018 -1.5131 -1.1591  2.0849
   32MOL    H62 5704   1.977   4.962   3.254  1.2768 -2.4971  0.0928
   32MOL    H63 5705   1.899   4.970   3.090  0.6648 -0.6560 -1.2994
   32MOL    H64 5706   1.862   4.852   3.219  0.5792  0.6591  1.5058
   32MOL    C65 5707   2.152   4.619   3.398  0.6207 -0.7453  0.5663
   32MOL    C66 5708   2.088   4.648   3.535  0.0851 -0.6606  0.1694
   32MOL    C67 5709   2.307   4.599   3.406  0.0225 -0.1183  1.0201
   32MOL    O68 5710   2.369   4.610   3.511 -0.5804 -0.2139  0.1208
   32MOL    O69 5711   2.364   4.562   3.290  0.0805 -0.0942 -0.4940
   32MOL    H70 5712   2.103   4.527   3.366 -0.8603 -0.3466  1.6345
   32MOL    H71 5713   2.104   4.753   3.562  1.8164 -1.1306  1.0284
   32MOL    H72 5714   1.981   4.626   3.537 -0.1925  0.6271 -0.2754
   32MOL    H73 5715   2.134   4.595   3.619 -1.3938 -2.8001 -0.3315
   32MOL    C74 5716   2.497   4.539   3.262 -0.1912 -0.1403  0.2430
   32MOL    C75 5717   2.508   4.549   3.113 -0.1919  0.8103  0.7735
   32MOL    C76 5718   2.542   4.399   3.316  0.5929  0.0241  0.6246
   32MOL    O77 5719   2.465   4.327   3.386 -0.0202 -0.6225 -0.7158
   32MOL    O78 5720   2.665   4.356   3.278 -0.2241  0.1449 -0.5723
   32MOL    H79 5721   2.549   4.616   3.320  0.5083 -0.9128  0.6647
   32MOL    H80 5722   2.462   4.468   3.056 -0.3093  2.1527 -1.0715
   32MOL    H81 5723   2.474   4.650   3.090 -0.1113  0.3048 -1.6426
   32MOL    H82 5724   2.615   4.551   3.095 -0.6018  1.5401 -1.6582
   32MOL    C83 5725   2.716   4.226   3.301  0.0926 -1.3164  0.1033
   32MOL    C84 5726   2.852   4.236   3.374 -0.1690 -0.1778 -0.5429
   32MOL    C85 5727   2.732   4.154   3.166 -0.7231  0.3360  0.2057
   32MOL    O86 5728   2.693   4.207   3.062 -0.6073  0.6996  0.3273
   32MOL    O87 5729   2.777   4.028   3.183 -0.3800  0.1965 -0.5227
   32MOL    H88 5730   2.649   4.175   3.371 -1.0322 -0.2974 -0.2035
   32MOL    H89 5731   2.877   4.139   3.416 -1.2237  0.1783  0.9328
   32MOL    H90 5732   2.935   4.267   3.311 -0.6201  2.4494  0.1032
   32MOL    H91 5733   2.842   4.304   3.458  1.7107  1.0896 -1.3085
   32MOL    C92 5734   2.789   3.938   3.072 -0.0522  0.1248 -0.5267
   32MOL    C93 5735   2.767   3.800   3.132 -0.2834 -0.1447  0.4793
   32MOL    C94 5736   2.935   3.948   3.018  0.0810  0.0829  0.2392
   32MOL    O95 5737   3.024   4.010   3.072  0.3399 -0.6102 -0.3051
   32MOL    O96 5738   2.947   3.865   2.909 -0.2191  0.4141 -0.0480
   32MOL    H97 5739   2.720   3.954   2.989 -0.2385  1.7323 -0.0897
   32MOL    H98 5740   2.839   3.768   3.208  0.1561  0.2872  0.2519
   32MOL    H99 5741   2.671   3.785   3.181 -0.2738  3.2292  1.6594
   32MOL   H100 5742   2.768   3.733   3.047  2.3425  2.7430 -1.8600
   32MOL   C101 5743   3.070   3.843   2.849 -0.7475  0.4026 -0.3728
   32MOL   C102 5744   3.048   3.761   2.719 -0.1958  0.0465 -0.0761
   32MOL   C103 5745   3.158   3.759   2.947  1.2375  0.4772 -0.6849
   32MOL   O104 5746   3.133   3.750   3.069  0.5642 -0.2171  0.0108
   32MOL   O105 5747   3.263   3.707   2.887  0.0816 -0.0790  0.2970
   32MOL   H106 5748   3.120   3.933   2.813  0.8132 -1.6466 -3.5083
   32MOL   H107 5749   2.982   3.808   2.646  1.2106 -1.1042 -2.1770
   32MOL   H108 5750   3.150   3.763   2.679 -0.6466 -0.8778 -1.3161
   32MOL   H109 5751   3.027   3.654   2.723 -0.0723  0.0310  0.1708
   32MOL   C110 5752   3.362   3.622   2.954  1.1836 -0.7098  0.2149
   32MOL   C111 5753   3.492   3.606   2.877 -0.6779 -0.4960 -0.2923
   32MOL   C112 5754   3.287   3.491   2.968 -0.2290 -0.3745  0.1500
   32MOL   O113 5755   3.288   3.424   3.068 -0.5335  0.5421 -0.0850
   32MOL   O114 5756   3.223   3.453   2.853 -0.2752 -0.6215 -0.5081
   32MOL   H115 5757   3.388   3.668   3.049  0.8514 -0.3281  0.1227
   32MOL   H116 5758   3.471   3.553   2.784 -1.4196 -0.2982 -0.2347
   32MOL   H117 5759   3.527   3.702   2.839  1.6090 -0.4359  1.7887
   32MOL   H118 5760   3.569   3.567   2.945 -0.4309 -0.4439 -0.5392
   32MOL   C119 5761   3.156   3.321   2.841  0.0333 -0.5015  0.4964
   32MOL   C120 5762   3.219   3.241   2.727 -0.4702 -0.6069  0.3536
   32MOL   C121 5763   3.000   3.344   2.818 -0.4148  0.3527  0.1447
   32MOL   O122 5764   2.916   3.303   2.901 -0.1799 -0.3206  0.8809
   32MOL   O123 5765   2.968   3.408   2.698  0.2072  0.4137 -0.0303
   32MOL   H124 5766   3.158   3.266   2.935  1.4186  0.4714  1.0471
   32MOL   H125 5767   3.328   3.242   2.725 -0.4673  0.7593 -4.2411
   32MOL   H126 5768   3.176   3.141   2.720 -1.6295 -0.0833 -0.1705
   32MOL   H127 5769   3.201   3.278   2.626  0.7024 -1.6640 -0.2560
   32MOL   C128 5770   2.835   3.439   2.658  0.2807  0.0013 -0.1059
   32MOL   C129 5771   2.818   3.465   2.507  0.3901 -0.2237 -0.3672
   32MOL   C130 5772   2.762   3.550   2.744  1.2346  0.4456  0.2946
   32MOL   O131 5773   2.802   3.579   2.854 -0.8678  0.0434 -0.3771
   32MOL   O132 5774   2.642   3.583   2.692 -0.7004 -0.5088  0.4954
   32MOL   H133 5775   2.770   3.356   2.687  0.3127 -0.3010 -0.9022
   32MOL   H134 5776   2.861   3.381   2.451  1.4839 -1.0313  1.6350
   32MOL   H135 5777   2.713   3.480   2.483  0.1212 -0.1780  0.8339
   32MOL   H136 5778   2.880   3.554   2.495  1.4845 -0.7518  1.2177
   32MOL   C137 5779   2.560   3.679   2.752  0.2081 -0.0814  0.3027
   32MOL   C138 5780   2.417   3.634   2.734 -0.3853 -0.1404  0.1428
   32MOL   C139 5781   2.594   3.819   2.697 -0.1883 -0.2641 -0.0952
   32MOL   O140 5782   2.704   3.850   2.650  0.1145  0.0483 -0.2469
   32MOL   O141 5783   2.495   3.908   2.732 -0.2233  0.2813  0.1267
   32MOL   H142 5784   2.579   3.686   2.859 -1.5232 -0.6628  0.6648
   32MOL   H143 5785   2.351   3.711   2.774  1.1574  1.2155  0.1215
   32MOL   H144 5786   2.403   3.617   2.627  0.6471 -0.6454  0.0811
   32MOL   H145 5787   2.406   3.542   2.792 -1.1718 -0.0745  0.1030
   32MOL   C146 5788   2.505   4.052   2.717  0.2736 -0.1016 -0.1859
   32MOL   C147 5789   2.391   4.106   2.804 -0.3537 -0.0980 -0.5345
   32MOL   C148 5790   2.510   4.088   2.564  0.3658 -0.2702 -0.4259
   32MOL   O149 5791   2.609   4.139   2.512  0.2228  0.0671  0.2839
   32MOL   O150 5792   2.392   4.063   2.502  0.2096 -0.3271  0.2863
   32MOL   H151 5793   2.602   4.093   2.745  0.4498 -1.5182  1.3740
   32MOL   H152 5794   2.307   4.135   2.741 -0.2120 -0.4501 -0.8896
   32MOL   H153 5795   2.357   4.028   2.872  0.0232 -0.3739 -0.6573
   32MOL   H154 5796   2.415   4.189   2.870 -1.2123 -0.2867  0.0103
   32MOL   C155 5797   2.382   4.091   2.363  0.7034 -0.5670  0.0248
   32MOL   C156 5798   2.245   4.145   2.343 -0.5116 -0.3158 -0.5657
   32MOL   C157 5799   2.410   3.970   2.279  0.2312  0.6060 -0.3009
   32MOL   O158 5800   2.472   3.979   2.176 -0.5148 -0.4259 -0.1592
   32MOL   O159 5801   2.345   3.855   2.321 -0.3190 -0.1291  0.3893
   32MOL   H160 5802   2.449   4.173   2.336  1.6165 -0.5055  2.3696
   32MOL   H161 5803   2.243   4.247   2.383  0.2591  0.4108 -2.2972
   32MOL   H162 5804   2.224   4.171   2.239 -0.9630  1.3215 -0.0895
   32MOL   H163 5805   2.184   4.074   2.398  1.5502 -1.2191  0.6227
   32MOL   C164 5806   2.351   3.728   2.239  0.2829  0.8567  0.0565
   32MOL   C165 5807   2.251   3.627   2.297  0.5835  0.4878  0.1942
   32MOL   C166 5808   2.490   3.666   2.233 -0.1367  1.4917 -0.0991
   32MOL   O167 5809   2.571   3.686   2.324 -0.6151  0.0028 -0.4889
   32MOL   O168 5810   2.507   3.586   2.128 -0.6833  0.2899  0.6128
   32MOL   H169 5811   2.322   3.752   2.137  0.2791  0.1929 -0.0945
   32MOL   H170 5812   2.228   3.549   2.226  2.0068  0.1482  0.0819
   32MOL   H171 5813   2.303   3.574   2.377  0.5834  1.3328  0.7651
   32MOL   H172 5814   2.166   3.678   2.342 -0.5167  0.2543 -1.5819
   32MOL   C173 5815   2.634   3.526   2.103 -0.0701 -0.4018 -0.0876
   32MOL   C174 5816   2.721   3.624   2.032  0.0659 -0.2362  0.2816
   32MOL   C175 5817   2.598   3.398   2.023  0.3429  0.1407  0.4853
   32MOL   O176 5818   2.640   3.373   1.909  0.1525  0.4993 -0.0236
   32MOL   O177 5819   2.520   3.310   2.092 -0.5445 -0.1417 -0.3480
   32MOL   H178 5820   2.674   3.492   2.199  0.0054  2.3739  0.8865
   32MOL   H179 5821   2.669   3.651   1.940  0.6797 -0.4336 -0.1263
   32MOL   H180 5822   2.747   3.708   2.096  2.5935 -1.8178  1.3935
   32MOL   H181 5823   2.817   3.585   2.001  0.0853 -0.7873  1.0357
   32MOL   H182 5824   2.515   3.238   2.031  3.9121  1.2889 -2.6176
   33MOL     C1 5825   1.177   6.695   5.413 -0.4150  0.6020  0.1524
   33MOL     C2 5826   1.090   6.744   5.302 -0.2439 -0.5037 -0.8105
   33MOL     C3 5827   1.324   6.683   5.377 -0.6637  0.2182 -0.9679
   33MOL     O4 5828   1.413   6.663   5.455 -0.0041 -0.2151 -0.2222
   33MOL     O5 5829   1.348   6.697   5.246 -0.3140 -0.0578  0.0042
   33MOL     H6 5830   1.193   6.769   5.492 -0.9835 -0.8554  1.6342
   33MOL     H7 5831   1.089   6.668   5.224 -0.4641  0.8215 -2.1306
   33MOL     H8 5832   0.990   6.765   5.338  0.4456  1.7777 -0.1286
   33MOL     H9 5833   1.128   6.831   5.249  0.3593  0.1289  0.6136
   33MOL    H10 5834   1.151   6.599   5.457  0.6166  0.4791  0.5059
   33MOL    C11 5835   1.482   6.693   5.197  0.4169  0.6661 -0.0696
   33MOL    C12 5836   1.487   6.752   5.050 -0.9083  0.8728 -0.3415
   33MOL    C13 5837   1.540   6.551   5.194  0.0600 -0.3590 -0.2266
   33MOL    O14 5838   1.655   6.520   5.233  0.0469 -0.1069 -0.2071
   33MOL    O15 5839   1.444   6.469   5.145  0.1987 -0.3964  0.1602
   33MOL    H16 5840   1.544   6.747   5.269 -0.7123  0.4898  1.0505
   33MOL    H17 5841   1.590   6.740   5.016 -1.1973 -0.8348 -0.6634
   33MOL    H18 5842   1.425   6.687   4.988 -0.0167  2.2064 -2.7143
   33MOL    H19 5843   1.453   6.856   5.041 -2.3300  0.2769 -2.2923
   33MOL    C20 5844   1.477   6.329   5.133  0.4673  0.6135 -1.1156
   33MOL    C21 5845   1.385   6.259   5.038  0.0704 -0.0590  0.5781
   33MOL    C22 5846   1.471   6.259   5.270 -1.0491 -0.1287  0.1565
   33MOL    O23 5847   1.465   6.325   5.375 -0.0033 -0.1498  0.1479
   33MOL    O24 5848   1.471   6.112   5.259  0.2009 -0.6974  0.2092
   33MOL    H25 5849   1.579   6.316   5.097  0.3385  0.4953 -1.4359
   33MOL    H26 5850   1.451   6.184   4.994 -0.1795  0.7193 -1.1263
   33MOL    H27 5851   1.299   6.211   5.084 -0.5909  0.9226  0.3817
   33MOL    H28 5852   1.341   6.324   4.963  0.2602  0.7079  1.1217
   33MOL    C29 5853   1.466   6.032   5.378  0.1303 -0.1731 -0.2365
   33MOL    C30 5854   1.486   5.889   5.334 -0.3884  0.4436  0.3918
   33MOL    C31 5855   1.331   6.049   5.449 -0.1910  0.4056  0.0597
   33MOL    O32 5856   1.233   6.100   5.393 -0.1326  0.9067 -0.4175
   33MOL    O33 5857   1.332   6.000   5.581  0.2865  0.0102  0.2770
   33MOL    H34 5858   1.543   6.064   5.449 -0.7877  1.6835 -0.0429
   33MOL    H35 5859   1.576   5.874   5.275 -1.3992  0.2225 -1.1326
   33MOL    H36 5860   1.495   5.832   5.426 -2.4584  1.5283  1.2925
   33MOL    H37 5861   1.395   5.866   5.278  0.6752 -0.5291 -0.9847
   33MOL    C38 5862   1.228   6.045   5.675  0.3122 -0.1423 -0.4770
   33MOL    C39 5863   1.267   6.036   5.826  0.0223 -0.0105 -0.7926
   33MOL    C40 5864   1.104   5.961   5.639 -1.0026  0.3153 -0.4456
   33MOL    O41 5865   1.112   5.849   5.591 -0.5516  0.4237 -0.1445
   33MOL    O42 5866   0.989   6.027   5.667 -0.1602  0.1897 -0.5290
   33MOL    H43 5867   1.199   6.148   5.654 -1.8371 -0.6399  0.0200
   33MOL    H44 5868   1.303   5.934   5.839 -1.5225 -0.2739  1.7120
   33MOL    H45 5869   1.345   6.111   5.839 -0.2755  0.0402  0.8006
   33MOL    H46 5870   1.185   6.061   5.892  1.0948 -2.3080  1.4943
   33MOL    C47 5871   0.864   5.962   5.664 -0.2234 -0.4475  0.3569
   33MOL    C48 5872   0.769   6.025   5.558  0.1198 -0.0070  0.4796
   33MOL    C49 5873   0.816   5.952   5.811 -0.6932  0.0913 -0.6400
   33MOL    O50 5874   0.863   6.019   5.908  0.0488 -0.2168  0.2344
   33MOL    O51 5875   0.713   5.873   5.821  0.0541  0.4115 -0.4616
   33MOL    H52 5876   0.882   5.859   5.632 -3.6183 -0.0822 -3.0307
   33MOL    H53 5877   0.821   6.015   5.463 -1.8917 -2.2257 -0.4153
   33MOL    H54 5878   0.677   5.969   5.550 -0.6492  0.8563  2.6919
   33MOL    H55 5879   0.762   6.132   5.577 -1.5537 -0.1676  0.8484
   33MOL    C56 5880   0.655   5.838   5.946  0.4658  0.1015 -0.2079
   33MOL    C57 5881   0.568   5.704   5.930 -0.6329  0.1162  0.4944
   33MOL    C58 5882   0.563   5.951   5.978  0.9676 -0.3151  0.5016
   33MOL    O59 5883   0.572   6.018   6.078  0.5045 -0.1554  0.1277
   33MOL    O60 5884   0.477   5.975   5.868  0.2065 -0.1574 -0.3110
   33MOL    H61 5885   0.726   5.831   6.028 -0.9918  0.2194  1.0868
   33MOL    H62 5886   0.541   5.661   6.027 -0.7215 -1.7525 -0.3373
   33MOL    H63 5887   0.478   5.721   5.871 -0.5850 -1.1148  0.0616
   33MOL    H64 5888   0.615   5.615   5.888 -2.0652  0.2392 -1.4451
   33MOL    C65 5889   0.387   6.086   5.876  0.0922  0.1140  0.5700
   33MOL    C66 5890   0.280   6.081   5.763 -1.2082 -0.0169 -0.0922
   33MOL    C67 5891   0.469   6.209   5.856  0.4061 -0.6923 -0.3301
   33MOL    O68 5892   0.563   6.211   5.779  0.4011 -0.2049  0.1755
   33MOL    O69 5893   0.420   6.324   5.917  0.9206 -0.1501  0.6759
   33MOL    H70 5894   0.322   6.078   5.962 -0.1850  1.4354  0.4876
   33MOL    H71 5895   0.338   6.086   5.671  0.6057 -2.0389  0.9027
   33MOL    H72 5896   0.213   5.996   5.757 -0.0000 -0.9004 -1.3427
   33MOL    H73 5897   0.226   6.176   5.769  1.1658  1.2827  1.1477
   33MOL    C74 5898   0.474   6.455   5.898 -0.5632 -0.3434  0.5450
   33MOL    C75 5899   0.439   6.545   6.025  0.1940 -0.0929  0.3672
   33MOL    C76 5900   0.403   6.516   5.781  0.0467  0.3289 -0.8266
   33MOL    O77 5901   0.459   6.566   5.686  0.0093  0.5118  0.9623
   33MOL    O78 5902   0.264   6.519   5.798 -0.2726  0.1509 -0.2958
   33MOL    H79 5903   0.581   6.460   5.876 -0.5992  0.5702  0.5285
   33MOL    H80 5904   0.464   6.647   5.998 -0.6490 -0.3901 -1.5387
   33MOL    H81 5905   0.333   6.551   6.049  0.5708  2.4795  1.6054
   33MOL    H82 5906   0.500   6.513   6.111  0.2326 -0.4077  0.2239
   33MOL    C83 5907   0.182   6.593   5.707  0.4230  0.1197 -0.5132
   33MOL    C84 5908   0.051   6.624   5.778  0.1551  0.0123 -0.7913
   33MOL    C85 5909   0.154   6.522   5.572  0.3455  0.5337  0.4533
   33MOL    O86 5910   0.166   6.400   5.553 -0.0387  0.3458  0.3735
   33MOL    O87 5911   0.100   6.605   5.478  0.1256 -0.4492 -0.3457
   33MOL    H88 5912   0.230   6.689   5.691  1.5059 -0.4743 -0.9216
   33MOL    H89 5913   8.128   6.689   5.726  0.3158  0.8469  0.0263
   33MOL    H90 5914   0.002   6.526   5.781  2.0085 -0.9647 -1.2079
   33MOL    H91 5915   0.068   6.659   5.880 -1.2892  0.6853 -0.7735
   33MOL    C92 5916   0.048   6.553   5.359  0.5256  0.3402 -0.6352
   33MOL    C93 5917   0.048   6.669   5.262 -0.1760 -0.5924  0.1034
   33MOL    C94 5918   8.050   6.505   5.375  0.0134 -0.1680  0.3400
   33MOL    O95 5919   7.981   6.527   5.480 -0.2800 -0.1848  0.4106
   33MOL    O96 5920   8.007   6.425   5.276 -0.2069 -0.6539  0.3996
   33MOL    H97 5921   0.116   6.476   5.323 -0.0945 -1.1732  1.3525
   33MOL    H98 5922   8.147   6.636   5.170 -1.1195 -0.1225  0.4232
   33MOL    H99 5923   8.130   6.747   5.300  0.2655  0.1652 -0.6741
   33MOL   H100 5924   0.144   6.714   5.241 -0.3162  0.5133  1.6991
   33MOL   C101 5925   7.882   6.381   5.286 -0.5925  0.3516 -0.0628
   33MOL   C102 5926   7.862   6.260   5.193 -0.6474 -0.2118 -0.4483
   33MOL   C103 5927   7.778   6.493   5.263  0.2054 -0.0201  0.1339
   33MOL   O104 5928   7.657   6.482   5.291  0.0422 -0.0616  0.1767
   33MOL   O105 5929   7.831   6.602   5.214  0.9619  0.0866  0.0149
   33MOL   H106 5930   7.866   6.328   5.380 -0.6226 -1.6969 -1.1902
   33MOL   H107 5931   7.947   6.224   5.136  0.5273 -0.3105  1.3266
   33MOL   H108 5932   7.834   6.170   5.248  1.3595 -1.1129 -0.8636
   33MOL   H109 5933   7.790   6.277   5.113  0.2820  0.9886 -1.0474
   33MOL   C110 5934   7.768   6.730   5.217 -0.2070  0.2270 -0.1643
   33MOL   C111 5935   7.748   6.770   5.369 -0.0548  0.8161  0.0791
   33MOL   C112 5936   7.637   6.732   5.142 -0.2732  0.7328  0.7184
   33MOL   O113 5937   7.540   6.792   5.173 -0.1836  0.3387 -0.2548
   33MOL   O114 5938   7.638   6.669   5.021  0.1215  0.0779 -0.7028
   33MOL   H115 5939   7.834   6.812   5.188 -0.7298  1.1570  1.2130
   33MOL   H116 5940   7.716   6.874   5.371  0.5634  1.0138  2.9540
   33MOL   H117 5941   7.678   6.709   5.427 -0.6640  2.2258  0.8469
   33MOL   H118 5942   7.843   6.763   5.423  0.0200  2.1089  0.1413
   33MOL   C119 5943   7.516   6.656   4.946 -0.6091  0.6464  0.6775
   33MOL   C120 5944   7.503   6.502   4.935  0.0258  0.4372  0.4775
   33MOL   C121 5945   7.525   6.726   4.815 -0.4017 -0.5250  0.2103
   33MOL   O122 5946   7.433   6.800   4.778  0.3891 -0.3210  0.0275
   33MOL   O123 5947   7.635   6.693   4.739  0.3603  0.2911  0.2956
   33MOL   H124 5948   7.430   6.699   4.996 -1.5793 -0.5613  0.0542
   33MOL   H125 5949   7.600   6.452   4.934 -0.3796 -0.3966  1.3703
   33MOL   H126 5950   7.486   6.454   5.032 -1.8295  2.2063  1.0647
   33MOL   H127 5951   7.446   6.456   4.855  1.4763 -1.0305  0.2336
   33MOL   C128 5952   7.647   6.753   4.611 -0.7482 -0.2202 -0.5831
   33MOL   C129 5953   7.730   6.673   4.513 -0.5259 -0.4492  0.4967
   33MOL   C130 5954   7.717   6.889   4.623  0.0170 -0.1390  0.0468
   33MOL   O131 5955   7.729   6.937   4.734 -0.3908 -0.5984 -0.0612
   33MOL   O132 5956   7.748   6.960   4.502 -0.2128  0.0554  0.5134
   33MOL   H133 5957   7.559   6.786   4.557 -0.6515  0.3456 -0.3897
   33MOL   H134 5958   7.825   6.648   4.561  0.7260 -1.1227 -2.2437
   33MOL   H135 5959   7.674   6.581   4.496 -1.2410  0.1738 -0.6243
   33MOL   H136 5960   7.747   6.727   4.420  0.0801 -0.3960  0.6363
   33MOL   C137 5961   7.808   7.088   4.520 -0.5766  0.1794  0.2352
   33MOL   C138 5962   7.696   7.192   4.535 -0.0335 -0.0479  0.1890
   33MOL   C139 5963   7.903   7.117   4.403  0.7338  0.9173  0.0277
   33MOL   O140 5964   7.938   7.028   4.320  0.5653  0.0432 -0.2947
   33MOL   O141 5965   7.951   7.249   4.399  0.1585 -0.5851  0.4150
   33MOL   H142 5966   7.858   7.084   4.617 -0.1450  1.8584  0.0964
   33MOL   H143 5967   7.616   7.185   4.462 -0.0772  1.6643  0.0568
   33MOL   H144 5968   7.657   7.174   4.635  0.3999 -1.5813  0.0981
   33MOL   H145 5969   7.721   7.298   4.533  3.2349 -0.7472  0.8087
   33MOL   C146 5970   7.987   7.303   4.277 -0.2387 -0.3916  0.2286
   33MOL   C147 5971   8.071   7.433   4.289 -0.3313 -0.0469  0.1023
   33MOL   C148 5972   7.871   7.333   4.192  0.7840  0.3916 -0.3421
   33MOL   O149 5973   7.766   7.357   4.240  0.4003 -0.3734 -0.2578
   33MOL   O150 5974   7.901   7.340   4.054  0.2214 -0.1009  0.4162
   33MOL   H151 5975   8.043   7.227   4.223 -1.4183 -1.1878  0.1142
   33MOL   H152 5976   7.998   7.513   4.279  0.1246  0.2742 -0.7439
   33MOL   H153 5977   8.137   7.432   4.375  0.0368 -0.4807 -0.1780
   33MOL   H154 5978   8.141   7.443   4.206 -1.3911 -1.6709 -1.0194
   33MOL   C155 5979   7.804   7.394   3.960 -0.9578  0.4465  0.1663
   33MOL   C156 5980   7.838   7.368   3.815  0.3616  0.0583 -0.0433
   33MOL   C157 5981   7.785   7.543   3.985  0.5081 -0.4890  0.0048
   33MOL   O158 5982   7.675   7.594   4.000 -0.7407  0.1031 -0.9122
   33MOL   O159 5983   7.910   7.608   3.971  0.3717  0.1824 -0.2866
   33MOL   H160 5984   7.709   7.343   3.972 -0.1218 -0.7994  1.5995
   33MOL   H161 5985   7.832   7.261   3.796  0.0680 -0.1993  1.4102
   33MOL   H162 5986   7.761   7.408   3.748 -0.3616 -0.2241  0.6081
   33MOL   H163 5987   7.930   7.414   3.779  0.5432 -1.5713 -1.7180
   33MOL   C164 5988   7.934   7.744   3.971 -0.6168 -0.4518  0.0383
   33MOL   C165 5989   7.935   7.803   4.114 -0.0557 -0.4625  0.1285
   33MOL   C166 5990   7.836   7.826   3.883  0.4210 -0.2522 -0.1120
   33MOL   O167 5991   7.773   7.917   3.937 -0.7777 -0.8298 -0.3314
   33MOL   O168 5992   7.829   7.792   3.758  0.2156 -0.4075  0.1529
   33MOL   H169 5993   8.033   7.764   3.930 -0.3787  0.3390  0.9764
   33MOL   H170 5994   7.844   7.797   4.174  0.7460  0.7828  1.5071
   33MOL   H171 5995   8.008   7.750   4.175  0.1748 -0.0133  0.2444
   33MOL   H172 5996   7.960   7.909   4.120  0.0664 -0.6150  3.2818
   33MOL   C173 5997   7.731   7.860   3.673  0.0407 -0.2669  0.0901
   33MOL   C174 5998   7.663   7.765   3.580  0.5784 -0.3745  0.0909
   33MOL   C175 5999   7.809   7.977   3.609 -0.0845  1.1149  1.0169
   33MOL   O176 6000   7.847   7.970   3.491  0.0830  0.2210 -0.2790
   33MOL   O177 6001   7.825   8.086   3.689 -0.0617  0.4728 -0.1546
   33MOL   H178 6002   7.641   7.891   3.726  1.3317  1.1518  1.4992
   33MOL   H179 6003   7.728   7.690   3.535  2.1673 -0.0622  1.7876
   33MOL   H180 6004   7.585   7.710   3.632  0.3850  0.8246  1.0987
   33MOL   H181 6005   7.618   7.810   3.491  1.6749 -1.3447 -0.9595
   33MOL   H182 6006   7.782   8.071   3.772 -1.0971 -0.5093 -0.8602
   34MOL     C1 6007   6.889   6.953   7.706 -0.8930 -0.0651  0.9869
   34MOL     C2 6008   6.947   6.843   7.795  0.1652 -0.5182 -0.0818
   34MOL     C3 6009   6.741   6.974   7.701  0.3323 -0.3370  0.5778
   34MOL     O4 6010   6.683   7.075   7.747  0.8799 -0.1580 -0.4202
   34MOL     O5 6011   6.682   6.855   7.654 -0.7962  0.8369  0.0735
   34MOL     H6 6012   6.938   7.046   7.737  0.6717 -0.3492 -0.5941
   34MOL     H7 6013   6.893   6.749   7.785  0.4010 -0.4242 -2.7989
   34MOL     H8 6014   7.053   6.817   7.788 -0.0587 -2.2225  2.3755
   34MOL     H9 6015   6.944   6.875   7.899  0.4094 -2.7514  0.6207
   34MOL    H10 6016   6.931   6.935   7.607 -3.5469  1.6822 -0.5142
   34MOL    C11 6017   6.542   6.846   7.642  0.4193 -1.1395  0.1086
   34MOL    C12 6018   6.510   6.699   7.623  0.1771 -0.2512  0.8337
   34MOL    C13 6019   6.501   6.937   7.522 -0.2908  0.4519  0.3192
   34MOL    O14 6020   6.405   7.012   7.531 -0.3149  0.0790  0.2225
   34MOL    O15 6021   6.581   6.919   7.407  1.1277  0.3970 -0.6864
   34MOL    H16 6022   6.500   6.876   7.739  1.0419 -1.6776  0.5516
   34MOL    H17 6023   6.536   6.674   7.521  0.1780  1.0963  0.4932
   34MOL    H18 6024   6.563   6.640   7.699  3.5347  0.6654 -0.6863
   34MOL    H19 6025   6.402   6.701   7.635  0.0882  2.3704 -0.1966
   34MOL    C20 6026   6.552   6.986   7.280 -0.4466  0.1318 -0.3321
   34MOL    C21 6027   6.657   6.937   7.184  0.1129 -0.0457 -0.2315
   34MOL    C22 6028   6.569   7.144   7.296 -0.3871  0.5316 -0.3623
   34MOL    O23 6029   6.494   7.212   7.230  0.0565  0.3190 -0.1864
   34MOL    O24 6030   6.658   7.182   7.386 -0.3955  0.3064 -0.3099
   34MOL    H25 6031   6.452   6.972   7.239 -0.4426  0.7037 -0.5377
   34MOL    H26 6032   6.642   6.830   7.169 -0.7102  0.2020 -1.2244
   34MOL    H27 6033   6.660   6.988   7.088  0.7682 -0.6312 -0.5297
   34MOL    H28 6034   6.757   6.932   7.228 -0.4598  0.0146  1.0988
   34MOL    C29 6035   6.681   7.324   7.415 -0.2230 -0.3985 -0.1499
   34MOL    C30 6036   6.563   7.388   7.493  0.3120  0.9753 -0.8324
   34MOL    C31 6037   6.728   7.392   7.291  0.3192 -0.2314 -0.2171
   34MOL    O32 6038   6.656   7.473   7.236  0.0443 -1.0215  0.2562
   34MOL    O33 6039   6.846   7.351   7.252 -0.2579  0.0450 -0.7036
   34MOL    H34 6040   6.771   7.329   7.477 -0.2648  3.4079 -0.2835
   34MOL    H35 6041   6.461   7.372   7.456  0.3396 -1.0157 -0.1540
   34MOL    H36 6042   6.550   7.347   7.594  0.5899  0.7063 -0.9063
   34MOL    H37 6043   6.582   7.493   7.514  0.2498  0.8676 -0.2069
   34MOL    C38 6044   6.913   7.401   7.132 -0.3703  0.1890  0.0352
   34MOL    C39 6045   6.926   7.286   7.033  0.2896  0.5580 -0.6161
   34MOL    C40 6046   7.034   7.485   7.169  0.4020  0.5196 -0.2368
   34MOL    O41 6047   7.098   7.459   7.273  0.1199 -0.2007 -0.0263
   34MOL    O42 6048   7.071   7.567   7.074  0.4977 -0.1772  0.5020
   34MOL    H43 6049   6.846   7.477   7.092 -2.2222 -0.0657  2.5612
   34MOL    H44 6050   6.962   7.324   6.937  1.3680 -0.1984 -0.5156
   34MOL    H45 6051   6.992   7.208   7.070  0.3277  1.0247  0.3082
   34MOL    H46 6052   6.827   7.246   7.008  0.1013 -0.3940  1.5355
   34MOL    C47 6053   7.192   7.640   7.088  0.0249 -0.4510  0.1673
   34MOL    C48 6054   7.172   7.772   7.017  0.0947  0.4480  0.2062
   34MOL    C49 6055   7.303   7.553   7.029 -0.9943 -0.1557  0.0503
   34MOL    O50 6056   7.280   7.443   6.976  0.4023 -0.1086 -0.1953
   34MOL    O51 6057   7.421   7.606   7.039  0.2157  0.1513 -0.1810
   34MOL    H52 6058   7.220   7.656   7.192  2.8943  0.3286 -0.6855
   34MOL    H53 6059   7.156   7.744   6.913  1.9873  2.1161 -0.5672
   34MOL    H54 6060   7.077   7.817   7.047  0.3139  1.1927 -0.2037
   34MOL    H55 6061   7.258   7.837   7.030  0.6192  0.1663 -1.7458
   34MOL    C56 6062   7.532   7.536   6.994 -0.2371  0.9019 -1.0306
   34MOL    C57 6063   7.603   7.464   7.116  0.1149 -0.6106  0.0697
   34MOL    C58 6064   7.630   7.634   6.930  0.2310  0.7027 -0.1384
   34MOL    O59 6065   7.684   7.603   6.819 -0.1156 -0.0715  0.4015
   34MOL    O60 6066   7.652   7.750   6.995  0.1259  0.1889  0.1862
   34MOL    H61 6067   7.495   7.469   6.917 -0.8894 -0.1032  0.1382
   34MOL    H62 6068   7.676   7.530   7.163 -0.9312  1.1586 -0.7384
   34MOL    H63 6069   7.533   7.419   7.185 -0.6788  0.6326  0.0910
   34MOL    H64 6070   7.667   7.379   7.090 -1.1235 -1.6158  0.3057
   34MOL    C65 6071   7.733   7.849   6.941 -0.2588  0.1818  0.1686
   34MOL    C66 6072   7.760   7.955   7.043  0.8320 -0.3386 -0.8317
   34MOL    C67 6073   7.672   7.906   6.813 -0.1735  0.4837  0.6278
   34MOL    O68 6074   7.551   7.892   6.778  0.2865  0.0631  0.4256
   34MOL    O69 6075   7.769   7.955   6.733 -0.2373 -0.1620 -0.1758
   34MOL    H70 6076   7.825   7.806   6.901  1.6680  3.6248  0.7984
   34MOL    H71 6077   7.827   8.023   6.989  1.5535 -0.1995  0.2202
   34MOL    H72 6078   7.676   8.021   7.066  1.2080 -0.3205  0.4959
   34MOL    H73 6079   7.800   7.910   7.134 -2.0125 -2.5748 -0.6134
   34MOL    C74 6080   7.746   7.985   6.597  0.4322  0.2150 -0.1549
   34MOL    C75 6081   7.861   7.979   6.505  0.2322 -0.3939 -0.3470
   34MOL    C76 6082   7.665   8.115   6.585 -0.5041 -0.0723 -0.8248
   34MOL    O77 6083   7.664   0.062   6.663  0.3932 -0.0214  0.3097
   34MOL    O78 6084   7.604   8.121   6.469 -0.5530 -0.0169  0.3729
   34MOL    H79 6085   7.677   7.909   6.559  0.4358 -0.7119  1.6791
   34MOL    H80 6086   7.830   7.985   6.401  1.1063 -0.8659 -0.6414
   34MOL    H81 6087   7.928   8.061   6.531 -1.0494  0.8932 -1.0513
   34MOL    H82 6088   7.916   7.885   6.501 -0.4902 -0.8271 -0.2124
   34MOL    C83 6089   7.542   0.089   6.413 -0.2654 -0.8861  1.0927
   34MOL    C84 6090   7.399   0.043   6.381  0.2533  0.5269 -0.1289
   34MOL    C85 6091   7.623   0.151   6.296 -0.6654  0.0650 -0.4496
   34MOL    O86 6092   7.567   0.188   6.192  0.2481 -1.0518 -0.3768
   34MOL    O87 6093   7.758   0.155   6.325  0.2122 -0.3072 -0.1142
   34MOL    H88 6094   7.549   0.176   6.478  1.2418  0.1361 -0.3812
   34MOL    H89 6095   7.398   8.145   6.282  1.1644  1.4391 -0.5632
   34MOL    H90 6096   7.373   8.120   6.460  3.3760  1.3550  1.7305
   34MOL    H91 6097   7.326   0.124   6.370 -1.2192 -0.4119  2.4023
   34MOL    C92 6098   7.848   0.198   6.221  0.4237 -0.0074  0.9071
   34MOL    C93 6099   7.987   0.154   6.262 -0.4562 -0.3357  0.2387
   34MOL    C94 6100   7.833   0.348   6.200  0.6773  0.2552  0.6741
   34MOL    O95 6101   7.765   0.415   6.278  0.2825  0.2565  0.8070
   34MOL    O96 6102   7.909   0.395   6.110 -0.1509  0.0490 -0.1685
   34MOL    H97 6103   7.833   0.143   6.128 -1.3394 -0.5778  1.5064
   34MOL    H98 6104   8.032   0.218   6.339 -0.9265  1.9329 -1.3450
   34MOL    H99 6105   8.003   0.055   6.303 -0.1052 -1.5464 -2.7155
   34MOL   H100 6106   8.055   0.176   6.180  0.0203  0.3627  0.8046
   34MOL   C101 6107   7.929   0.533   6.081  0.2189 -0.9509  0.1225
   34MOL   C102 6108   7.971   0.548   5.939 -0.0989 -0.4962 -0.1709
   34MOL   C103 6109   8.040   0.604   6.175  0.4066 -1.0569 -0.5025
   34MOL   O104 6110   8.103   0.543   6.260 -0.4500  0.3166 -0.6526
   34MOL   O105 6111   8.057   0.736   6.147  0.3125  0.8003  0.2814
   34MOL   H106 6112   7.830   0.578   6.083  0.7517  0.2852 -0.6398
   34MOL   H107 6113   7.962   0.654   5.912 -0.5427 -0.1915  1.1093
   34MOL   H108 6114   8.069   0.506   5.918  1.2059  1.4233  1.8638
   34MOL   H109 6115   7.908   0.503   5.863  1.1119 -1.9544 -0.3281
   34MOL   C110 6116   0.020   0.804   6.206 -0.5673 -0.3107 -0.3192
   34MOL   C111 6117   8.142   0.952   6.185  0.2292  0.4916 -0.1116
   34MOL   C112 6118   0.143   0.768   6.128 -0.0205  0.1257 -1.3251
   34MOL   O113 6119   0.149   0.671   6.054 -0.3822 -0.3099  0.0682
   34MOL   O114 6120   0.253   0.843   6.160 -0.5918  0.1954  0.4626
   34MOL   H115 6121   0.022   0.794   6.314 -1.2460  1.0759 -0.1750
   34MOL   H116 6122   8.037   0.964   6.209 -0.1225 -3.0545  0.3451
   34MOL   H117 6123   0.057   1.016   6.248  1.6356 -0.0479 -0.9496
   34MOL   H118 6124   0.003   0.999   6.087  0.6659  0.3431 -0.1462
   34MOL   C119 6125   0.383   0.797   6.114  0.3843  0.6432  0.2276
   34MOL   C120 6126   0.488   0.868   6.196  0.2486 -0.0074  0.0626
   34MOL   C121 6127   0.390   0.838   5.966  0.4805 -0.6246  0.7499
   34MOL   O122 6128   0.439   0.767   5.878  0.3396  0.1083  0.0145
   34MOL   O123 6129   0.319   0.953   5.939  0.2670 -0.0067 -0.6831
   34MOL   H124 6130   0.387   0.689   6.126 -4.7523  0.3697  0.3679
   34MOL   H125 6131   0.582   0.815   6.209 -1.2192 -2.3281  1.6025
   34MOL   H126 6132   0.505   0.971   6.164 -2.0488 -0.0926 -1.5882
   34MOL   H127 6133   0.462   0.872   6.302  0.5785  1.2139  0.1120
   34MOL   C128 6134   0.300   1.004   5.805 -0.2514  0.0244 -0.3220
   34MOL   C129 6135   0.213   1.132   5.818  0.5285 -0.0314 -0.4578
   34MOL   C130 6136   0.234   0.914   5.698 -0.1922  0.0108 -0.1124
   34MOL   O131 6137   0.122   0.866   5.717  0.3319 -0.3964  1.0662
   34MOL   O132 6138   0.307   0.907   5.592  0.1094 -0.1124  0.3215
   34MOL   H133 6139   0.400   1.037   5.776  0.5733 -1.3689  0.9167
   34MOL   H134 6140   0.113   1.114   5.859  0.5020 -1.0077 -0.9370
   34MOL   H135 6141   0.257   1.212   5.878  1.0586  0.7606 -1.8858
   34MOL   H136 6142   0.202   1.189   5.726  0.3487  2.2142  0.9174
   34MOL   C137 6143   0.269   0.852   5.465 -0.2206  0.3276 -0.1314
   34MOL   C138 6144   0.383   0.760   5.411  0.1072  0.3348 -1.1285
   34MOL   C139 6145   0.234   0.969   5.374  0.3953  0.1879  0.6158
   34MOL   O140 6146   0.276   0.984   5.256  0.3626 -0.8005  0.5491
   34MOL   O141 6147   0.153   1.061   5.437 -0.0263  0.3004  0.2854
   34MOL   H142 6148   0.178   0.793   5.476  1.7581 -2.7613  0.1103
   34MOL   H143 6149   0.417   0.696   5.492 -2.0439  0.5915  0.0138
   34MOL   H144 6150   0.351   0.690   5.334 -2.1526  0.3025 -0.2168
   34MOL   H145 6151   0.473   0.815   5.386  0.6083 -0.4644 -1.0887
   34MOL   C146 6152   0.107   1.178   5.368  0.1554 -0.2623 -0.5515
   34MOL   C147 6153   0.082   1.288   5.471 -0.1866 -0.5234 -1.1270
   34MOL   C148 6154   8.119   1.149   5.295  0.2639  0.1968 -0.4446
   34MOL   O149 6155   8.015   1.183   5.348 -0.0587  0.6720  0.0866
   34MOL   O150 6156   8.123   1.074   5.185  0.1067  0.0692  0.3564
   34MOL   H151 6157   0.168   1.218   5.287  0.3264  0.2395 -0.1719
   34MOL   H152 6158   0.016   1.368   5.439 -0.2996 -0.7326 -1.4191
   34MOL   H153 6159   0.039   1.244   5.560 -4.1787  2.0139 -1.6957
   34MOL   H154 6160   0.178   1.333   5.498 -0.1492 -0.4610 -1.3560
   34MOL   C155 6161   8.005   1.029   5.128  0.2969  0.0209  0.0886
   34MOL   C156 6162   8.040   0.900   5.048  0.4220  0.0700  0.4484
   34MOL   C157 6163   7.954   1.139   5.029  0.7430  0.0603  0.7022
   34MOL   O158 6164   8.016   1.171   4.929  0.1051  1.1123 -0.2230
   34MOL   O159 6165   7.844   1.197   5.075 -0.7718  0.0346  0.3660
   34MOL   H160 6166   7.923   1.003   5.195  1.0911 -2.0118  0.2929
   34MOL   H161 6167   8.103   0.922   4.962  0.7074 -0.6754  0.4668
   34MOL   H162 6168   8.097   0.829   5.108  0.8848 -1.3730 -1.6453
   34MOL   H163 6169   7.949   0.857   5.007  0.6716 -0.9988  0.9901
   34MOL   C164 6170   7.792   1.312   5.018 -0.1289 -0.4526 -0.5613
   34MOL   C165 6171   7.760   1.414   5.136  0.1303 -0.4804  0.3532
   34MOL   C166 6172   7.674   1.280   4.931 -0.0725 -0.3001  0.2178
   34MOL   O167 6173   7.604   1.180   4.945 -0.3392  0.4871 -0.7163
   34MOL   O168 6174   7.654   1.369   4.840 -0.1399  0.5817 -0.0980
   34MOL   H169 6175   7.873   1.363   4.965 -0.9421  1.2497 -0.2170
   34MOL   H170 6176   7.704   1.494   5.088  2.0753 -0.0456 -1.2738
   34MOL   H171 6177   7.720   1.376   5.230 -0.2750  3.3535  1.8268
   34MOL   H172 6178   7.857   1.456   5.164  0.6141 -0.0361 -1.9276
   34MOL   C173 6179   7.556   1.354   4.738 -0.0643 -0.1596  0.2102
   34MOL   C174 6180   7.630   1.311   4.614  0.0384  0.0623 -0.5609
   34MOL   C175 6181   7.478   1.492   4.725  0.0277 -0.6914 -0.7517
   34MOL   O176 6182   7.450   1.543   4.615 -0.1137  0.2416  0.4512
   34MOL   O177 6183   7.433   1.529   4.844  0.1635  0.1938  0.0306
   34MOL   H178 6184   7.477   1.281   4.756 -0.3932 -0.2582 -1.5076
   34MOL   H179 6185   7.563   1.269   4.539 -1.2759 -0.5239  0.9287
   34MOL   H180 6186   7.680   1.388   4.554 -1.3912 -0.0135 -1.8799
   34MOL   H181 6187   7.710   1.238   4.631 -1.3052 -1.5451 -1.0310
   34MOL   H182 6188   7.437   1.451   4.896 -2.6441  1.2475  1.9041
   35MOL     C1 6189   6.748   5.064   7.804 -0.2128 -0.2653  0.1663
   35MOL     C2 6190   6.640   5.108   7.906 -0.3184 -0.1759 -0.1066
   35MOL     C3 6191   6.704   4.978   7.687 -0.0105  0.5931  0.6470
   35MOL     O4 6192   6.684   4.856   7.696  0.0979  0.6461 -0.2537
   35MOL     O5 6193   6.699   5.054   7.574 -0.4171 -0.1823 -0.0492
   35MOL     H6 6194   6.801   5.150   7.762 -0.5680  0.4097  1.0773
   35MOL     H7 6195   6.562   5.038   7.935 -2.1496  0.8817 -2.3284
   35MOL     H8 6196   6.684   5.146   7.998  0.5396  1.2845 -1.1093
   35MOL     H9 6197   6.590   5.193   7.860 -0.8666 -0.1692  0.4995
   35MOL    H10 6198   6.840   5.020   7.843  0.4746  0.5681 -0.4832
   35MOL    C11 6199   6.655   5.006   7.446  0.0095  0.3058 -0.0533
   35MOL    C12 6200   6.683   5.117   7.349 -0.3697  0.0406  0.1954
   35MOL    C13 6201   6.509   4.961   7.445  0.7483 -0.0889 -0.8450
   35MOL    O14 6202   6.409   5.039   7.446  0.0798  0.4447  0.2969
   35MOL    O15 6203   6.494   4.824   7.427 -0.1032  0.0013 -0.2588
   35MOL    H16 6204   6.713   4.916   7.426 -2.3025 -1.8454  2.4943
   35MOL    H17 6205   6.616   5.200   7.373 -0.4088 -0.7693  3.0849
   35MOL    H18 6206   6.784   5.159   7.354 -0.4510  0.2706 -0.0903
   35MOL    H19 6207   6.661   5.077   7.250 -0.3702 -1.3976  0.7592
   35MOL    C20 6208   6.369   4.757   7.423 -0.7699 -0.2767  0.0161
   35MOL    C21 6209   6.384   4.603   7.429 -0.0501 -0.3994 -0.3193
   35MOL    C22 6210   6.280   4.803   7.305  0.7203  0.0384  0.5993
   35MOL    O23 6211   6.162   4.828   7.323  0.6149 -0.4464 -0.0752
   35MOL    O24 6212   6.337   4.806   7.188 -0.4391  0.3171  0.1143
   35MOL    H25 6213   6.316   4.782   7.515  1.6762 -0.0118  1.4023
   35MOL    H26 6214   6.474   4.592   7.489  0.7242  2.0241 -0.9470
   35MOL    H27 6215   6.294   4.557   7.469 -0.5035 -0.3012 -1.2101
   35MOL    H28 6216   6.404   4.570   7.328 -0.7623  1.8348 -1.2244
   35MOL    C29 6217   6.268   4.847   7.066 -0.0705  0.2801  0.0378
   35MOL    C30 6218   6.266   4.735   6.974 -0.2747  0.2535  0.1125
   35MOL    C31 6219   6.339   4.967   7.002  0.0170  0.1386 -0.2051
   35MOL    O32 6220   6.460   4.960   6.982  0.1288 -0.1595 -0.3355
   35MOL    O33 6221   6.264   5.073   6.974 -0.4767  0.4082 -0.0205
   35MOL    H34 6222   6.166   4.879   7.085  0.2290  2.2114 -1.4499
   35MOL    H35 6223   6.197   4.660   7.012  0.2928  0.2658  1.2043
   35MOL    H36 6224   6.228   4.762   6.876  0.4480 -0.2694 -0.3138
   35MOL    H37 6225   6.366   4.696   6.955  0.0079  0.6281  0.7881
   35MOL    C38 6226   6.316   5.192   6.911  0.2380 -0.7305 -0.1697
   35MOL    C39 6227   6.216   5.310   6.954  0.0007 -0.0309  0.7074
   35MOL    C40 6228   6.301   5.183   6.757  0.4286 -0.1127  0.2532
   35MOL    O41 6229   6.291   5.074   6.705  0.0748 -0.9022 -0.1183
   35MOL    O42 6230   6.298   5.306   6.700  0.2415  0.0203  0.0961
   35MOL    H43 6231   6.418   5.215   6.941  1.0426 -1.3286 -2.3893
   35MOL    H44 6232   6.117   5.300   6.909  0.0065  0.7497  0.5224
   35MOL    H45 6233   6.204   5.304   7.062  1.5230 -0.4342  0.8714
   35MOL    H46 6234   6.259   5.407   6.931  0.8191 -0.2334  1.3573
   35MOL    C47 6235   6.275   5.312   6.560  0.4685  0.0403 -0.3396
   35MOL    C48 6236   6.294   5.448   6.494  0.1842  0.0913  0.0213
   35MOL    C49 6237   6.128   5.270   6.523 -0.4382 -0.6511 -0.1678
   35MOL    O50 6238   6.030   5.304   6.588  0.0384 -0.2473  0.3204
   35MOL    O51 6239   6.122   5.176   6.426  0.7555  0.7296  0.3434
   35MOL    H52 6240   6.336   5.241   6.504  0.0885 -1.0470  0.6001
   35MOL    H53 6241   6.305   5.443   6.385  0.8561 -0.7598  0.1251
   35MOL    H54 6242   6.210   5.515   6.514  0.5191  0.4868  0.1076
   35MOL    H55 6243   6.382   5.502   6.528  1.1873 -2.6024  1.7651
   35MOL    C56 6244   5.999   5.126   6.369  0.0785 -0.5564  0.5013
   35MOL    C57 6245   6.045   5.002   6.282  0.1712  0.0885  0.2547
   35MOL    C58 6246   5.944   5.240   6.275  0.5126 -0.4791  0.1418
   35MOL    O59 6247   5.823   5.264   6.268 -0.2671  0.0843 -0.3779
   35MOL    O60 6248   6.040   5.298   6.206  0.5284  0.1890  0.2046
   35MOL    H61 6249   5.925   5.086   6.438 -1.9348  0.3334 -1.0863
   35MOL    H62 6250   6.139   5.021   6.231  1.3932 -1.0177  2.0786
   35MOL    H63 6251   6.064   4.907   6.332 -0.1851 -0.1915 -0.1289
   35MOL    H64 6252   5.974   4.981   6.201  2.4151 -1.2010 -1.4510
   35MOL    C65 6253   6.019   5.407   6.110 -0.1460 -0.1140 -0.5293
   35MOL    C66 6254   6.105   5.393   5.988  0.8960  0.3021 -1.2324
   35MOL    C67 6255   6.035   5.539   6.185  0.2895  0.4722 -0.0630
   35MOL    O68 6256   6.007   5.554   6.308 -0.2821  0.6906 -0.0902
   35MOL    O69 6257   6.076   5.635   6.095 -0.0805  0.0054  0.2610
   35MOL    H70 6258   5.912   5.402   6.090 -0.8481  0.6605  2.7489
   35MOL    H71 6259   6.129   5.291   5.959 -0.6607 -0.3017 -0.4654
   35MOL    H72 6260   6.058   5.442   5.903 -2.1072  0.2307  0.3009
   35MOL    H73 6261   6.201   5.442   6.002  2.1978 -2.9154  1.9803
   35MOL    C74 6262   6.124   5.767   6.130  0.0703 -0.4758  0.4546
   35MOL    C75 6263   6.174   5.844   6.006  0.1731 -0.3030  0.3910
   35MOL    C76 6264   6.244   5.759   6.224 -1.0430 -0.5203 -0.3010
   35MOL    O77 6265   6.331   5.671   6.213  0.4331 -0.0540  0.0512
   35MOL    O78 6266   6.248   5.863   6.312  0.0716 -0.5095  0.7486
   35MOL    H79 6267   6.046   5.825   6.179 -0.2979  0.2460 -0.9699
   35MOL    H80 6268   6.247   5.787   5.948 -0.4802  1.1810 -1.9661
   35MOL    H81 6269   6.097   5.879   5.938  1.5507  0.7154 -0.6763
   35MOL    H82 6270   6.232   5.934   6.026 -0.9907  0.2423  1.3371
   35MOL    C83 6271   6.355   5.881   6.400 -0.5673 -0.2126 -0.4662
   35MOL    C84 6272   6.312   5.968   6.514 -0.0600 -0.5744 -0.3685
   35MOL    C85 6273   6.472   5.940   6.323 -0.4424  0.3719  0.3198
   35MOL    O86 6274   6.588   5.899   6.349 -0.1645  0.0843 -0.5377
   35MOL    O87 6275   6.444   6.031   6.233  0.0603 -0.0229  0.1717
   35MOL    H88 6276   6.382   5.793   6.457 -1.8732  0.0430  0.5577
   35MOL    H89 6277   6.390   6.010   6.577  0.9904  1.6125 -3.0102
   35MOL    H90 6278   6.254   6.052   6.476 -1.5946 -0.9892  0.9621
   35MOL    H91 6279   6.250   5.912   6.584  0.0751 -0.7789 -0.4108
   35MOL    C92 6280   6.543   6.106   6.173 -0.7272  0.2217  0.5540
   35MOL    C93 6281   6.477   6.240   6.136  0.5615  0.3021 -0.2629
   35MOL    C94 6282   6.616   6.029   6.057  0.5009  0.0477  0.5971
   35MOL    O95 6283   6.738   6.027   6.045 -0.5171 -0.4512  0.1162
   35MOL    O96 6284   6.527   5.995   5.967 -1.2885 -0.2769  0.5384
   35MOL    H97 6285   6.615   6.120   6.254  1.7008  0.2229 -1.5320
   35MOL    H98 6286   6.553   6.304   6.090  0.6781  0.8630  0.7102
   35MOL    H99 6287   6.410   6.224   6.051 -0.4303  0.6199  0.4564
   35MOL   H100 6288   6.425   6.295   6.214 -0.3522 -1.0881  0.1230
   35MOL   C101 6289   6.563   5.949   5.834  0.1603 -0.2265 -0.3313
   35MOL   C102 6290   6.442   5.968   5.741 -0.2954  0.1613  0.0810
   35MOL   C103 6291   6.608   5.796   5.837 -0.1264  0.6435  0.4553
   35MOL   O104 6292   6.694   5.746   5.757  0.3799 -0.1996 -0.4800
   35MOL   O105 6293   6.539   5.723   5.930 -0.0134 -0.2421 -0.1928
   35MOL   H106 6294   6.647   6.005   5.794  0.0909  0.0023 -0.1606
   35MOL   H107 6295   6.385   6.052   5.780  0.5156 -0.1308  1.9263
   35MOL   H108 6296   6.486   6.002   5.648  2.1355  2.0059  1.8409
   35MOL   H109 6297   6.384   5.878   5.718 -0.4331  0.0778  0.7427
   35MOL   C110 6298   6.546   5.575   5.948 -0.1864 -0.1150 -0.9962
   35MOL   C111 6299   6.684   5.527   5.990  0.4676  0.4740  0.2352
   35MOL   C112 6300   6.505   5.499   5.818 -0.1015 -0.3611 -0.7252
   35MOL   O113 6301   6.582   5.435   5.748 -0.1530 -0.2798  0.3970
   35MOL   O114 6302   6.374   5.528   5.793 -0.4765  0.0619 -0.0358
   35MOL   H115 6303   6.477   5.546   6.028 -0.2681  0.4468 -0.8557
   35MOL   H116 6304   6.681   5.425   6.027  1.6858 -0.6349 -2.5813
   35MOL   H117 6305   6.749   5.514   5.903  1.1235  2.6699  0.3692
   35MOL   H118 6306   6.737   5.592   6.060  1.5082 -0.0978 -0.0103
   35MOL   C119 6307   6.313   5.498   5.667  0.0792  0.6252  0.0508
   35MOL   C120 6308   6.197   5.584   5.633  0.2076  0.3829 -0.0783
   35MOL   C121 6309   6.275   5.345   5.667 -0.0203 -1.0595 -0.2530
   35MOL   O122 6310   6.318   5.272   5.758 -0.1761 -0.5462  0.6342
   35MOL   O123 6311   6.196   5.308   5.565  0.7898 -0.0534 -0.3408
   35MOL   H124 6312   6.387   5.518   5.589 -0.6579  0.8836 -0.5850
   35MOL   H125 6313   6.116   5.537   5.577 -0.3960  0.3420  0.8145
   35MOL   H126 6314   6.151   5.624   5.724 -1.6146  1.0790 -1.2864
   35MOL   H127 6315   6.228   5.667   5.571  0.1074 -0.4795 -1.2925
   35MOL   C128 6316   6.143   5.171   5.553  0.4850  0.4274  0.0852
   35MOL   C129 6317   6.109   5.137   5.408  0.2765 -0.4597 -0.0606
   35MOL   C130 6318   6.019   5.148   5.644 -0.4170 -0.6740 -0.6216
   35MOL   O131 6319   6.008   5.215   5.746  0.3469 -0.3485  0.6363
   35MOL   O132 6320   5.935   5.048   5.600  0.0458  0.2069 -0.1064
   35MOL   H133 6321   6.209   5.090   5.583  0.1267  0.6310  1.4395
   35MOL   H134 6322   6.101   5.029   5.390 -0.9691 -0.2856 -0.5906
   35MOL   H135 6323   6.006   5.165   5.384  0.2731 -0.3044  0.1389
   35MOL   H136 6324   6.175   5.172   5.328  1.6973 -0.5251  1.0689
   35MOL   C137 6325   5.811   5.019   5.660 -0.0052  0.6377  0.2924
   35MOL   C138 6326   5.761   4.886   5.600  0.4272  0.0997 -0.5282
   35MOL   C139 6327   5.712   5.137   5.634  0.1411 -0.4096  0.6739
   35MOL   O140 6328   5.628   5.140   5.539  0.4258  0.2198 -0.4062
   35MOL   O141 6329   5.728   5.233   5.725  0.0062  0.3514 -0.1083
   35MOL   H142 6330   5.809   5.002   5.768 -1.7720  0.5337  0.2600
   35MOL   H143 6331   5.759   4.896   5.491  1.3459  2.8923 -0.3330
   35MOL   H144 6332   5.835   4.808   5.618  1.0705  0.8677  0.2216
   35MOL   H145 6333   5.659   4.857   5.626  0.0731  0.6906 -1.2293
   35MOL   C146 6334   5.649   5.351   5.723  0.5031 -0.1389  0.9369
   35MOL   C147 6335   5.700   5.440   5.832  0.1395 -0.1102 -0.2493
   35MOL   C148 6336   5.502   5.323   5.745  0.0469  0.1079 -0.8411
   35MOL   O149 6337   5.472   5.229   5.816 -0.0124 -0.6440 -0.2688
   35MOL   O150 6338   5.423   5.417   5.683  0.3747 -0.3583 -0.3435
   35MOL   H151 6339   5.662   5.410   5.632 -1.0969 -0.5106  0.4618
   35MOL   H152 6340   5.678   5.545   5.809  1.5254  0.1667 -0.3239
   35MOL   H153 6341   5.644   5.418   5.924  2.0847  0.2889  1.0579
   35MOL   H154 6342   5.807   5.425   5.842  0.3609  0.7435 -1.3289
   35MOL   C155 6343   5.280   5.411   5.686  0.8290 -0.2549 -0.1866
   35MOL   C156 6344   5.216   5.459   5.552 -0.0017 -0.3039 -0.4534
   35MOL   C157 6345   5.227   5.489   5.806  0.0430 -0.5224 -0.0813
   35MOL   O158 6346   5.123   5.459   5.867 -0.0936  0.1217  0.4782
   35MOL   O159 6347   5.296   5.609   5.824  0.0381  0.3807 -0.0448
   35MOL   H160 6348   5.256   5.308   5.712 -1.1292  0.1332 -0.4193
   35MOL   H161 6349   5.112   5.426   5.543  0.0702 -0.1679 -1.9355
   35MOL   H162 6350   5.229   5.567   5.545 -0.1533 -0.3710 -1.8739
   35MOL   H163 6351   5.266   5.426   5.461 -2.6881  0.9767 -2.4887
   35MOL   C164 6352   5.243   5.705   5.910 -0.5229  0.3705 -0.6046
   35MOL   C165 6353   5.225   5.825   5.824  1.0735  0.1826  0.1439
   35MOL   C166 6354   5.335   5.727   6.032  0.2413 -0.2765 -0.3733
   35MOL   O167 6355   5.288   5.721   6.145  0.0094  0.1474 -0.1332
   35MOL   O168 6356   5.464   5.771   6.003  0.7341 -0.0420 -0.2485
   35MOL   H169 6357   5.141   5.685   5.941  0.0274 -1.3631  0.1402
   35MOL   H170 6358   5.147   5.801   5.752 -0.7180  0.3628  1.9769
   35MOL   H171 6359   5.180   5.909   5.878  0.0574 -0.1481 -0.1674
   35MOL   H172 6360   5.313   5.847   5.764 -0.8510  0.7562 -2.5793
   35MOL   C173 6361   5.541   5.814   6.113  0.2124  0.4949 -0.8654
   35MOL   C174 6362   5.509   5.965   6.138 -0.6103 -0.4491 -0.7009
   35MOL   C175 6363   5.693   5.791   6.082 -0.0763  0.1672  0.4244
   35MOL   O176 6364   5.784   5.874   6.074  0.3017  0.3417  0.6510
   35MOL   O177 6365   5.711   5.656   6.061 -0.1398  0.2584 -0.3210
   35MOL   H178 6366   5.519   5.757   6.202  1.3813  0.2180 -0.7541
   35MOL   H179 6367   5.537   6.034   6.058  0.7069  1.3655  1.2795
   35MOL   H180 6368   5.402   5.984   6.151 -0.2901 -0.7419  2.6737
   35MOL   H181 6369   5.549   6.002   6.232 -1.3706  0.1124 -0.5938
   35MOL   H182 6370   5.638   5.610   6.099 -1.3133  2.0223 -0.4342
   36MOL     C1 6371   4.329   5.188   3.482  0.4144 -0.0781  0.6316
   36MOL     C2 6372   4.251   5.241   3.358 -0.8581 -0.1881  0.1897
   36MOL     C3 6373   4.420   5.296   3.552  0.1319 -0.0838  0.2848
   36MOL     O4 6374   4.530   5.266   3.593  0.0423  0.3739  0.3385
   36MOL     O5 6375   4.360   5.420   3.547 -0.5420 -0.0240  0.2233
   36MOL     H6 6376   4.255   5.158   3.556  0.7554 -0.3832  0.8503
   36MOL     H7 6377   4.222   5.157   3.294  3.3969 -0.7628 -1.1098
   36MOL     H8 6378   4.160   5.293   3.388 -0.1865  1.0291  0.1221
   36MOL     H9 6379   4.314   5.304   3.295 -0.0269 -1.1331  0.0625
   36MOL    H10 6380   4.388   5.099   3.458 -0.4079 -0.0068 -1.7933
   36MOL    C11 6381   4.445   5.540   3.562 -0.1711  0.1025 -0.5679
   36MOL    C12 6382   4.352   5.662   3.594  0.3708 -0.4852 -0.7427
   36MOL    C13 6383   4.518   5.566   3.428  0.0821  0.1906 -0.3145
   36MOL    O14 6384   4.466   5.638   3.344 -0.1772 -0.1247  0.4764
   36MOL    O15 6385   4.643   5.510   3.418 -0.1646  1.1406  0.2866
   36MOL    H16 6386   4.502   5.523   3.653 -0.0309 -1.6653 -0.9661
   36MOL    H17 6387   4.410   5.752   3.616 -1.6531  0.3357  1.4134
   36MOL    H18 6388   4.284   5.673   3.509  3.0847  0.0809 -2.9112
   36MOL    H19 6389   4.283   5.649   3.677 -2.0352 -0.0601 -2.6109
   36MOL    C20 6390   4.739   5.552   3.316 -0.0598 -0.5209 -0.5127
   36MOL    C21 6391   4.859   5.445   3.311  0.1595 -0.2348 -0.7011
   36MOL    C22 6392   4.798   5.694   3.349  0.3907  0.1880 -0.1084
   36MOL    O23 6393   4.863   5.765   3.267 -0.2187 -0.3760 -0.4528
   36MOL    O24 6394   4.773   5.736   3.474 -0.2210 -0.0347 -0.2151
   36MOL    H25 6395   4.694   5.553   3.217 -1.8831  1.9426  0.2744
   36MOL    H26 6396   4.901   5.439   3.411  0.7398  0.3956 -0.9090
   36MOL    H27 6397   4.824   5.344   3.288 -1.1963  0.3323 -1.2238
   36MOL    H28 6398   4.934   5.481   3.241  0.6508 -1.8598 -1.0251
   36MOL    C29 6399   4.829   5.855   3.524  0.1390 -1.0824 -0.3674
   36MOL    C30 6400   4.804   5.873   3.676  0.0994  0.3632 -0.4791
   36MOL    C31 6401   4.768   5.979   3.448 -0.4875  0.6273 -0.3415
   36MOL    O32 6402   4.830   6.059   3.378 -0.5629 -0.2541 -0.8581
   36MOL    O33 6403   4.639   5.983   3.465  0.0149  0.1058 -0.1650
   36MOL    H34 6404   4.936   5.865   3.506 -0.0798  1.7262 -0.3670
   36MOL    H35 6405   4.784   5.976   3.707 -0.3969 -0.0557  0.6081
   36MOL    H36 6406   4.716   5.816   3.707  1.3326 -0.0979  2.2881
   36MOL    H37 6407   4.885   5.837   3.738  0.3730  0.2421 -0.9039
   36MOL    C38 6408   4.539   6.059   3.389  0.4421  0.0391 -0.0158
   36MOL    C39 6409   4.407   5.992   3.441 -0.6571 -0.8126  0.4377
   36MOL    C40 6410   4.550   6.060   3.230  0.6673  0.3844 -0.0716
   36MOL    O41 6411   4.528   6.169   3.173  0.1088  0.1289  0.4402
   36MOL    O42 6412   4.592   5.945   3.174  0.3805 -0.6206  0.3592
   36MOL    H43 6413   4.527   6.159   3.429 -1.6782  0.0232 -0.5485
   36MOL    H44 6414   4.409   5.886   3.414  0.5225 -0.2703 -1.7016
   36MOL    H45 6415   4.391   5.999   3.549 -1.3960  1.9272  0.1784
   36MOL    H46 6416   4.333   6.050   3.386 -0.3493  0.6203  1.5099
   36MOL    C47 6417   4.627   5.943   3.032  0.4402 -0.9787  0.0636
   36MOL    C48 6418   4.585   5.807   2.977  0.3912 -0.1412 -0.5023
   36MOL    C49 6419   4.779   5.974   3.024  0.1782 -0.3126  0.2067
   36MOL    O50 6420   4.859   5.898   2.965  0.0662  0.3589  0.3557
   36MOL    O51 6421   4.818   6.093   3.087  0.5132 -0.1071  0.9268
   36MOL    H52 6422   4.580   6.027   2.981  0.2363 -1.1846 -0.0904
   36MOL    H53 6423   4.485   5.789   3.016 -0.4200  1.0644 -1.9752
   36MOL    H54 6424   4.600   5.800   2.869  1.7861 -1.5375 -0.2306
   36MOL    H55 6425   4.642   5.728   3.026 -1.3980 -1.4540 -0.4834
   36MOL    C56 6426   4.957   6.131   3.085 -0.1529  0.6353 -0.5723
   36MOL    C57 6427   4.977   6.268   3.142  0.3718 -0.0670  0.0197
   36MOL    C58 6428   5.015   6.132   2.939 -0.3493  0.2531 -0.3301
   36MOL    O59 6429   5.125   6.076   2.917  0.5506  0.3981  0.0916
   36MOL    O60 6430   4.939   6.212   2.851  0.2273 -0.5931  0.1221
   36MOL    H61 6431   5.003   6.050   3.142 -0.3097  0.3101 -0.8982
   36MOL    H62 6432   4.956   6.346   3.069 -1.0626 -1.3248 -0.9258
   36MOL    H63 6433   4.916   6.287   3.230 -0.0084  1.2547 -0.5181
   36MOL    H64 6434   5.080   6.289   3.173  1.6221 -1.8507 -2.7654
   36MOL    C65 6435   4.999   6.244   2.723  0.1606  0.9001 -0.1177
   36MOL    C66 6436   4.922   6.371   2.661 -0.6122  1.3517 -0.4436
   36MOL    C67 6437   4.973   6.124   2.630 -0.9314  0.5386  0.0461
   36MOL    O68 6438   4.859   6.106   2.587 -0.5179 -0.2382  0.3157
   36MOL    O69 6439   5.076   6.044   2.631  0.0501 -0.0374 -0.6687
   36MOL    H70 6440   5.105   6.266   2.737 -0.6830  2.3449  4.7475
   36MOL    H71 6441   4.818   6.339   2.663  0.0719 -0.8731  2.6096
   36MOL    H72 6442   4.920   6.457   2.728 -0.0409  1.4747 -0.5840
   36MOL    H73 6443   4.938   6.396   2.556 -0.7031  2.8783 -0.0931
   36MOL    C74 6444   5.068   5.916   2.574 -0.2371  0.0383 -0.6293
   36MOL    C75 6445   4.991   5.820   2.664  0.0830  0.3685  0.4395
   36MOL    C76 6446   5.211   5.870   2.532  0.2694  0.7237  0.1243
   36MOL    O77 6447   5.239   5.839   2.420 -0.7171 -0.1047  0.3894
   36MOL    O78 6448   5.297   5.874   2.636  0.8660  0.1235  0.3300
   36MOL    H79 6449   5.021   5.921   2.476  1.4978  1.0790 -1.4387
   36MOL    H80 6450   4.965   5.729   2.610  2.1970  0.7484 -1.2846
   36MOL    H81 6451   5.051   5.788   2.750  1.2133  2.3034  0.3956
   36MOL    H82 6452   4.890   5.855   2.686  0.7298  3.3560 -1.1563
   36MOL    C83 6453   5.437   5.900   2.620 -0.2156 -0.1733  0.6234
   36MOL    C84 6454   5.495   5.920   2.762 -0.1574 -0.4178 -0.6614
   36MOL    C85 6455   5.460   6.019   2.526 -0.1183 -0.3488 -0.0570
   36MOL    O86 6456   5.541   6.004   2.431  0.5006 -0.1278  0.2792
   36MOL    O87 6457   5.400   6.134   2.560  0.0939  0.0921 -0.2406
   36MOL    H88 6458   5.477   5.809   2.575  1.0692  1.4273 -1.5842
   36MOL    H89 6459   5.500   5.817   2.796  1.8258 -0.5982 -1.4517
   36MOL    H90 6460   5.596   5.961   2.757  1.1940 -3.4225  0.4586
   36MOL    H91 6461   5.438   5.971   2.839  0.2538 -0.2697 -0.4516
   36MOL    C92 6462   5.410   6.251   2.480  0.3252  1.0217  0.1136
   36MOL    C93 6463   5.357   6.363   2.560  0.3654  0.4603 -0.5664
   36MOL    C94 6464   5.328   6.228   2.356  0.2872 -0.3955  0.4790
   36MOL    O95 6465   5.232   6.155   2.368 -0.1403  0.2505  0.3639
   36MOL    O96 6466   5.381   6.290   2.249 -0.3289  0.1689 -0.3492
   36MOL    H97 6467   5.514   6.277   2.466  0.4131 -0.3636 -2.1196
   36MOL    H98 6468   5.357   6.457   2.505  1.7690  0.0009 -1.3597
   36MOL    H99 6469   5.255   6.353   2.598  0.0109  1.6455 -1.1884
   36MOL   H100 6470   5.420   6.376   2.648 -0.7518 -0.7101  0.4395
   36MOL   C101 6471   5.301   6.299   2.132  0.1565  0.1548  0.5061
   36MOL   C102 6472   5.392   6.338   2.021 -0.7981  0.0291  0.5681
   36MOL   C103 6473   5.175   6.386   2.139 -0.0462  0.2401 -0.5392
   36MOL   O104 6474   5.063   6.343   2.113 -0.9784  0.1494 -0.2855
   36MOL   O105 6475   5.211   6.514   2.161  0.1557  0.1255  0.1226
   36MOL   H106 6476   5.271   6.200   2.097  2.0088  0.1825 -1.2761
   36MOL   H107 6477   5.343   6.334   1.923  2.1280 -1.9886 -0.8810
   36MOL   H108 6478   5.419   6.443   2.031  3.2573 -1.0622  1.8072
   36MOL   H109 6479   5.479   6.273   2.022 -1.6765 -1.2143 -0.9053
   36MOL   C110 6480   5.120   6.613   2.207  0.0567 -0.4851 -0.8486
   36MOL   C111 6481   5.185   6.747   2.153  0.7691 -0.0849  0.5787
   36MOL   C112 6482   5.101   6.608   2.359 -0.1267  0.3801  0.9933
   36MOL   O113 6483   5.121   6.506   2.423  0.6621 -0.7827 -0.2285
   36MOL   O114 6484   5.043   6.720   2.408  0.7971 -0.4757 -0.3785
   36MOL   H115 6485   5.021   6.591   2.167 -0.5851 -3.7799  2.2464
   36MOL   H116 6486   5.223   6.808   2.235  0.8316  0.1916  0.3443
   36MOL   H117 6487   5.247   6.727   2.066 -2.3449  1.4714 -2.1432
   36MOL   H118 6488   5.108   6.809   2.106  1.9005  0.2149 -0.8841
   36MOL   C119 6489   5.030   6.740   2.550  0.2356 -0.3680 -0.5694
   36MOL   C120 6490   4.977   6.883   2.557  0.6678  0.2918  0.2928
   36MOL   C121 6491   5.160   6.717   2.636 -0.3205 -0.2549 -0.3030
   36MOL   O122 6492   5.166   6.624   2.719 -0.3256 -0.1773 -0.1265
   36MOL   O123 6493   5.260   6.794   2.593 -0.0992 -0.3467  0.3428
   36MOL   H124 6494   4.957   6.665   2.580  0.2776 -0.5016 -0.8033
   36MOL   H125 6495   4.951   6.904   2.661  0.0176 -0.5224  0.2950
   36MOL   H126 6496   5.033   6.966   2.514 -0.2741 -0.0853 -1.7327
   36MOL   H127 6497   4.882   6.890   2.504  1.5016 -2.0524 -1.5741
   36MOL   C128 6498   5.392   6.803   2.658  0.1922 -0.1548  0.5083
   36MOL   C129 6499   5.435   6.939   2.714 -0.4766  0.6992  0.5086
   36MOL   C130 6500   5.501   6.750   2.566  0.0251  0.5743 -0.2170
   36MOL   O131 6501   5.577   6.663   2.602 -0.1143  0.3406  0.3141
   36MOL   O132 6502   5.504   6.818   2.451 -0.1517 -0.4705 -0.3312
   36MOL   H133 6503   5.394   6.738   2.746 -0.2915  0.9765  1.3681
   36MOL   H134 6504   5.541   6.940   2.741 -0.4733 -2.2630  0.7574
   36MOL   H135 6505   5.428   7.018   2.640 -3.4450  0.0712  0.0481
   36MOL   H136 6506   5.388   6.959   2.811  0.7815  1.2218  1.0191
   36MOL   C137 6507   5.597   6.792   2.347  0.9802 -0.5686  0.1870
   36MOL   C138 6508   5.611   6.913   2.251  0.7082  0.4598  0.0101
   36MOL   C139 6509   5.584   6.662   2.272 -0.0469  0.1780 -0.0871
   36MOL   O140 6510   5.472   6.613   2.264 -0.5777  0.1281  0.1664
   36MOL   O141 6511   5.699   6.597   2.242 -0.5507 -0.1725 -0.0330
   36MOL   H142 6512   5.691   6.794   2.401  0.0953  0.1704  1.7310
   36MOL   H143 6513   5.706   6.903   2.199 -0.8316 -1.7586 -2.4435
   36MOL   H144 6514   5.525   6.917   2.184 -0.3496 -0.8124  1.2523
   36MOL   H145 6515   5.619   7.004   2.311  1.2571  2.2595 -2.6863
   36MOL   C146 6516   5.701   6.457   2.198 -0.0510 -0.1953  0.0037
   36MOL   C147 6517   5.780   6.371   2.304  0.0509  0.1577 -0.5380
   36MOL   C148 6518   5.761   6.451   2.059 -0.3823 -0.7639  0.6310
   36MOL   O149 6519   5.872   6.408   2.040 -0.0787  0.4296  0.2399
   36MOL   O150 6520   5.681   6.499   1.966 -0.6486 -0.6427 -0.0519
   36MOL   H151 6521   5.596   6.432   2.182 -0.2762  0.7878 -0.0884
   36MOL   H152 6522   5.765   6.263   2.314  0.0610  0.1070 -1.0640
   36MOL   H153 6523   5.888   6.381   2.314 -0.2157  1.3371  1.5256
   36MOL   H154 6524   5.751   6.412   2.401  3.2527 -0.4040  0.7189
   36MOL   C155 6525   5.720   6.500   1.831 -0.0197  0.0531 -0.2921
   36MOL   C156 6526   5.624   6.596   1.750 -0.2476  0.7948  0.3978
   36MOL   C157 6527   5.712   6.369   1.761  0.3115  0.2589 -0.3806
   36MOL   O158 6528   5.816   6.307   1.735  0.2392  0.3236 -0.1493
   36MOL   O159 6529   5.585   6.318   1.742 -0.2080 -0.3285  0.5361
   36MOL   H160 6530   5.822   6.538   1.819 -0.2269  0.6483 -0.1840
   36MOL   H161 6531   5.674   6.635   1.662 -2.6089 -1.7080 -2.1374
   36MOL   H162 6532   5.536   6.550   1.708 -0.1855  2.1006 -1.2143
   36MOL   H163 6533   5.594   6.678   1.815  1.3118 -0.8589  3.3125
   36MOL   C164 6534   5.561   6.188   1.684  0.3386  0.5479 -0.0767
   36MOL   C165 6535   5.404   6.185   1.656  0.0106 -0.0999 -0.1814
   36MOL   C166 6536   5.620   6.074   1.773 -0.7620  0.2053 -0.9822
   36MOL   O167 6537   5.625   5.956   1.739 -0.1690  0.0609  0.0918
   36MOL   O168 6538   5.648   6.109   1.906  0.0579  1.0157 -0.0503
   36MOL   H169 6539   5.606   6.189   1.585  1.9010  0.0503  0.6016
   36MOL   H170 6540   5.347   6.197   1.748  1.1376 -1.3973  0.7055
   36MOL   H171 6541   5.374   6.271   1.596  1.0924 -0.0944 -0.7316
   36MOL   H172 6542   5.370   6.097   1.601  0.0698  1.2068 -2.3690
   36MOL   C173 6543   5.689   6.015   2.002  0.1824 -0.4194 -0.1545
   36MOL   C174 6544   5.592   6.014   2.117 -0.0962  0.4219  0.4307
   36MOL   C175 6545   5.820   6.062   2.049 -0.3305  0.0844 -0.2638
   36MOL   O176 6546   5.857   6.073   2.164  0.0663 -0.0905  0.2102
   36MOL   O177 6547   5.899   6.102   1.940  0.0987 -0.7175  0.1278
   36MOL   H178 6548   5.720   5.921   1.956 -0.4644 -1.2887  1.1518
   36MOL   H179 6549   5.491   5.999   2.080 -0.6209  2.3697  1.0542
   36MOL   H180 6550   5.607   5.939   2.195  2.4834  1.1161  0.6606
   36MOL   H181 6551   5.588   6.115   2.158 -0.1042  0.9632 -0.8798
   36MOL   H182 6552   5.985   6.141   1.953  0.7471 -2.2252  0.5025
   37MOL     C1 6553   3.471   4.959   0.205 -0.8687  0.2416  0.1293
   37MOL     C2 6554   3.572   4.963   0.087  0.5855  1.1463  0.4122
   37MOL     C3 6555   3.465   4.818   0.276 -0.5428 -0.5914  0.7008
   37MOL     O4 6556   3.449   4.716   0.205 -0.3552  0.1464  0.1280
   37MOL     O5 6557   3.444   4.825   0.409  0.2537  0.2915 -0.0980
   37MOL     H6 6558   3.513   5.022   0.283  0.9940  0.1118 -0.7267
   37MOL     H7 6559   3.656   5.033   0.096 -0.2359  2.0326  1.3754
   37MOL     H8 6560   3.634   4.874   0.076 -1.2772  0.0103 -1.0362
   37MOL     H9 6561   3.510   4.978   8.146 -0.1441 -1.1051  0.5316
   37MOL    H10 6562   3.369   4.985   0.176 -1.7085 -0.4938  2.3192
   37MOL    C11 6563   3.395   4.723   0.492  0.1035  0.1549  0.4475
   37MOL    C12 6564   3.472   4.591   0.468  0.0820 -0.8022  0.3890
   37MOL    C13 6565   3.237   4.707   0.484  0.1770 -0.7359  1.2018
   37MOL    O14 6566   3.161   4.785   0.542  0.4454 -0.2086  0.0666
   37MOL    O15 6567   3.201   4.595   0.413  0.1461  0.0484 -0.8147
   37MOL    H16 6568   3.420   4.736   0.597  0.3428 -0.4792  0.4741
   37MOL    H17 6569   3.464   4.515   0.545  1.3704 -0.4576  0.8574
   37MOL    H18 6570   3.446   4.547   0.372 -2.0905  0.5964  0.2881
   37MOL    H19 6571   3.577   4.617   0.464  0.6977 -3.3758 -1.4056
   37MOL    C20 6572   3.061   4.564   0.398  0.7369 -0.2890 -0.1753
   37MOL    C21 6573   3.038   4.422   0.336  0.4996 -0.4929  0.2136
   37MOL    C22 6574   2.995   4.670   0.309  0.1996 -0.2747  0.2414
   37MOL    O23 6575   2.898   4.730   0.357 -0.3156  1.2221 -0.3297
   37MOL    O24 6576   3.055   4.689   0.188  0.2094  0.0386 -0.1158
   37MOL    H25 6577   3.014   4.572   0.496  2.8319 -2.0567  1.0199
   37MOL    H26 6578   3.104   4.408   0.249  0.9439 -1.0675  0.6351
   37MOL    H27 6579   3.074   4.343   0.402 -0.8852 -1.3936 -0.0900
   37MOL    H28 6580   2.935   4.395   0.315  1.4921 -2.5106 -2.4730
   37MOL    C29 6581   3.002   4.762   0.077  0.7103 -0.6006  0.1080
   37MOL    C30 6582   3.016   4.921   0.107 -0.2833  0.2430 -0.4013
   37MOL    C31 6583   2.854   4.714   0.044 -0.5140  0.0546  0.1188
   37MOL    O32 6584   2.763   4.786   0.042  0.0796 -0.2791 -0.3913
   37MOL    O33 6585   2.853   4.577   0.016  0.3129  0.1932  0.2171
   37MOL    H34 6586   3.062   4.747   8.135  1.0477  1.4816 -0.0594
   37MOL    H35 6587   2.934   4.951   0.171 -1.2308 -1.3912 -0.8126
   37MOL    H36 6588   3.110   4.948   0.155  0.0073 -1.0243 -0.2450
   37MOL    H37 6589   3.014   4.969   0.009 -2.3397 -2.2715 -1.6374
   37MOL    C38 6590   2.726   4.507   8.146  0.0967 -0.1338  0.2186
   37MOL    C39 6591   2.741   4.353   0.015  0.2998 -0.3053  0.3293
   37MOL    C40 6592   2.655   4.541   8.014 -0.0249  0.3141 -0.2417
   37MOL    O41 6593   2.718   4.607   7.928 -0.2574  0.8091 -0.3811
   37MOL    O42 6594   2.538   4.472   8.005  0.0998 -0.2044  0.0699
   37MOL    H43 6595   2.664   4.550   0.077  0.6188  0.4734  0.3052
   37MOL    H44 6596   2.647   4.298   0.021  0.6743 -0.8844  0.8396
   37MOL    H45 6597   2.801   4.306   8.085 -0.9115 -3.0216  0.9966
   37MOL    H46 6598   2.799   4.340   0.107 -0.8442  0.5393  1.1858
   37MOL    C47 6599   2.474   4.446   7.875 -0.1767  0.2914  0.0149
   37MOL    C48 6600   2.337   4.378   7.903 -0.1455  0.4309  0.1315
   37MOL    C49 6601   2.563   4.359   7.788  0.5345  0.4259 -1.2691
   37MOL    O50 6602   2.577   4.377   7.665  0.4191 -0.0631 -0.0126
   37MOL    O51 6603   2.626   4.254   7.863  0.2938 -0.4131 -0.3737
   37MOL    H52 6604   2.456   4.543   7.828 -1.8788 -0.5640 -1.1678
   37MOL    H53 6605   2.270   4.446   7.954  0.2958  0.8712  0.1302
   37MOL    H54 6606   2.281   4.332   7.822 -1.1747  2.1525 -0.1542
   37MOL    H55 6607   2.355   4.302   7.979 -0.2489  0.8962  0.6250
   37MOL    C56 6608   2.712   4.164   7.790  0.5247  0.1484 -0.4615
   37MOL    C57 6609   2.749   4.052   7.878 -0.4129  0.0913  0.0888
   37MOL    C58 6610   2.843   4.235   7.751  0.8381  0.4363  0.6345
   37MOL    O59 6611   2.870   4.256   7.631  0.4193  0.3534 -0.1696
   37MOL    O60 6612   2.915   4.280   7.854 -0.0566 -0.0433 -0.4529
   37MOL    H61 6613   2.667   4.124   7.699  0.3064 -1.1152  0.1973
   37MOL    H62 6614   2.821   4.084   7.953 -1.9412  0.7818  1.2836
   37MOL    H63 6615   2.663   4.006   7.928  0.2405 -1.2836 -0.0273
   37MOL    H64 6616   2.796   3.977   7.814 -0.1246  1.8355 -1.8056
   37MOL    C65 6617   3.039   4.338   7.838  0.4019 -0.5189  0.1670
   37MOL    C66 6618   3.137   4.240   7.766 -0.2026  0.3906 -0.2769
   37MOL    C67 6619   3.091   4.365   7.977  0.2129 -0.2835  0.6430
   37MOL    O68 6620   3.057   4.303   8.081 -0.0741 -0.2766  0.2586
   37MOL    O69 6621   3.187   4.456   7.975 -0.0383 -0.1893  0.1655
   37MOL    H70 6622   3.038   4.433   7.785 -1.4103 -1.6809 -1.9673
   37MOL    H71 6623   3.237   4.259   7.805 -0.0810  1.6474 -1.1784
   37MOL    H72 6624   3.117   4.143   7.813  0.6528  0.8923  1.1683
   37MOL    H73 6625   3.143   4.244   7.658 -0.2576 -0.0936 -0.2998
   37MOL    C74 6626   3.273   4.481   8.092 -0.1845 -0.1433 -0.3499
   37MOL    C75 6627   3.376   4.594   8.044  0.4546  0.2866 -0.1337
   37MOL    C76 6628   3.355   4.360   8.138  0.2620  0.0908 -0.5496
   37MOL    O77 6629   3.363   4.346   0.115  0.1357 -0.4490  0.2925
   37MOL    O78 6630   3.391   4.283   8.035 -0.2466  0.4332  0.6591
   37MOL    H79 6631   3.214   4.511   0.031  0.0173  1.3619 -0.7127
   37MOL    H80 6632   3.423   4.568   7.949 -0.2613 -0.4832 -0.2819
   37MOL    H81 6633   3.325   4.690   8.044 -3.0633 -1.4970 -2.6751
   37MOL    H82 6634   3.460   4.603   8.113 -0.5877 -4.3155  1.8651
   37MOL    C83 6635   3.444   4.152   8.037  0.0570  0.5232 -0.1394
   37MOL    C84 6636   3.328   4.054   8.051 -0.5477 -0.2703  0.0127
   37MOL    C85 6637   3.557   4.127   8.138 -0.5060 -0.7289 -0.8497
   37MOL    O86 6638   3.650   4.201   0.015 -0.0412 -0.2194 -0.5745
   37MOL    O87 6639   3.554   4.004   0.047  0.4316 -0.2503  0.2523
   37MOL    H88 6640   3.485   4.144   7.936 -1.4234 -0.9665 -0.6448
   37MOL    H89 6641   3.255   4.062   7.970 -0.1277  0.3488 -0.3095
   37MOL    H90 6642   3.354   3.948   8.042  0.8206 -0.0263  0.8594
   37MOL    H91 6643   3.276   4.061   8.146 -0.9214 -0.2288 -0.1945
   37MOL    C92 6644   3.669   3.950   0.119 -0.2146 -0.7132  0.5134
   37MOL    C93 6645   3.651   3.805   0.142  0.1499 -0.2748  0.5177
   37MOL    C94 6646   3.705   4.020   0.260 -0.1543  0.1391 -1.2645
   37MOL    O95 6647   3.622   4.024   0.354 -0.4972  0.2717  0.6366
   37MOL    O96 6648   3.830   4.058   0.275 -0.2387 -0.2729  0.2701
   37MOL    H97 6649   3.757   3.958   0.055  0.1614  3.0562  1.3715
   37MOL    H98 6650   3.678   3.750   0.052 -0.0328  0.2407  0.1470
   37MOL    H99 6651   3.705   3.772   0.230  1.5637  0.2301 -0.1507
   37MOL   H100 6652   3.550   3.780   0.174  0.4728 -0.0084  1.7791
   37MOL   C101 6653   3.886   4.116   0.395 -0.0186  0.0332 -0.4313
   37MOL   C102 6654   4.039   4.113   0.376  0.4148 -0.6539 -0.1849
   37MOL   C103 6655   3.853   4.041   0.525  0.1023 -0.1136  0.4701
   37MOL   O104 6656   3.825   4.106   0.624  0.4795  0.1454  0.1080
   37MOL   O105 6657   3.867   3.906   0.515 -0.3883  0.2648  0.1722
   37MOL   H106 6658   3.861   4.222   0.397  0.2687  0.1124 -0.9542
   37MOL   H107 6659   4.064   4.157   0.280  0.0799  1.4092  0.6431
   37MOL   H108 6660   4.097   4.168   0.449  0.9339  0.8475 -1.7143
   37MOL   H109 6661   4.075   4.010   0.369 -1.3839 -1.3147  0.0739
   37MOL   C110 6662   3.828   3.831   0.630  0.2124 -0.0499 -0.2753
   37MOL   C111 6663   3.910   3.703   0.625  0.0646 -0.3370  0.5589
   37MOL   C112 6664   3.681   3.797   0.642  0.9893 -0.2532 -0.9624
   37MOL   O113 6665   3.613   3.832   0.735 -0.2978  0.1376  0.2775
   37MOL   O114 6666   3.638   3.734   0.531  0.0063 -0.4224  0.2755
   37MOL   H115 6667   3.847   3.883   0.724  1.2903  0.0417 -0.5426
   37MOL   H116 6668   3.849   3.625   0.671  1.1464 -1.5716 -0.0726
   37MOL   H117 6669   3.937   3.667   0.526 -0.8978  0.1416  0.1098
   37MOL   H118 6670   4.000   3.699   0.685 -0.4882  0.1865  1.4367
   37MOL   C119 6671   3.516   3.664   0.529 -0.3254  0.3438 -0.3634
   37MOL   C120 6672   3.407   3.767   0.486  0.0458  0.0183  0.4414
   37MOL   C121 6673   3.475   3.584   0.653 -0.3916 -0.1216 -0.9151
   37MOL   O122 6674   3.367   3.598   0.706  0.4292 -0.4145  0.1199
   37MOL   O123 6675   3.564   3.488   0.684  0.0686  0.6868 -0.3396
   37MOL   H124 6676   3.517   3.597   0.443  0.6227 -1.0844  0.7433
   37MOL   H125 6677   3.438   3.815   0.393  0.2186  0.3802  0.6840
   37MOL   H126 6678   3.306   3.739   0.457  0.3294  0.8103 -1.3355
   37MOL   H127 6679   3.399   3.846   0.561  0.1098  0.5483 -0.1121
   37MOL   C128 6680   3.531   3.394   0.789 -0.0154  0.4211  0.3252
   37MOL   C129 6681   3.650   3.295   0.793  0.0581 -0.2534 -0.0221
   37MOL   C130 6682   3.406   3.316   0.758  1.4204 -0.6418  0.1813
   37MOL   O131 6683   3.328   3.279   0.846 -0.0756  0.0215 -0.1001
   37MOL   O132 6684   3.397   3.288   0.627 -0.5413 -0.3930  0.0353
   37MOL   H133 6685   3.507   3.455   0.877  1.3554  0.2920  0.8052
   37MOL   H134 6686   3.741   3.354   0.792 -0.5513  0.6972 -1.3562
   37MOL   H135 6687   3.645   3.236   0.884 -3.3627 -2.1926 -1.3716
   37MOL   H136 6688   3.660   3.221   0.714 -0.4570  1.3672 -1.6311
   37MOL   C137 6689   3.279   3.234   0.568 -0.5430 -0.0433 -0.1294
   37MOL   C138 6690   3.309   3.126   0.456 -0.1662 -0.8694 -0.0453
   37MOL   C139 6691   3.181   3.344   0.515  0.5513 -0.1053 -0.0883
   37MOL   O140 6692   3.143   3.340   0.397  0.3386  0.2663  0.0476
   37MOL   O141 6693   3.127   3.425   0.614 -0.0751  0.1549  0.4710
   37MOL   H142 6694   3.221   3.177   0.641  0.5342 -0.3314  0.5109
   37MOL   H143 6695   3.352   3.178   0.371 -1.9616 -1.7259 -1.5008
   37MOL   H144 6696   3.377   3.052   0.498  0.0287  0.1517  1.4791
   37MOL   H145 6697   3.215   3.075   0.435  0.2407 -1.3899 -0.6329
   37MOL   C146 6698   2.993   3.476   0.578 -0.0446  0.1300  0.3258
   37MOL   C147 6699   2.954   3.568   0.692  0.3866 -0.1887 -0.3292
   37MOL   C148 6700   2.883   3.376   0.548 -0.6985 -0.5250  1.0011
   37MOL   O149 6701   2.811   3.385   0.453 -0.3682  0.1553  0.7130
   37MOL   O150 6702   2.871   3.286   0.646 -0.1568  0.3005  0.0525
   37MOL   H151 6703   2.999   3.549   0.497 -1.5775  0.0542  0.1384
   37MOL   H152 6704   3.040   3.631   0.719  0.0021  0.6968 -1.1360
   37MOL   H153 6705   2.878   3.636   0.655  0.0780 -1.7272 -2.6214
   37MOL   H154 6706   2.915   3.525   0.784  0.9892  3.1313  1.5618
   37MOL   C155 6707   2.784   3.184   0.640  0.4511  0.4390 -0.1549
   37MOL   C156 6708   2.815   3.106   0.766 -0.3615 -0.0599 -1.1118
   37MOL   C157 6709   2.802   3.081   0.525  0.6917  0.2567 -0.0825
   37MOL   O158 6710   2.911   3.040   0.483 -0.4334  0.8198 -0.2653
   37MOL   O159 6711   2.687   3.042   0.475  0.2223 -0.1897 -0.0577
   37MOL   H160 6712   2.677   3.207   0.647  0.2027 -0.7962  0.1962
   37MOL   H161 6713   2.782   3.169   0.849 -1.9306 -1.1430 -0.8761
   37MOL   H162 6714   2.756   3.016   0.786 -0.2662  0.4742  1.8915
   37MOL   H163 6715   2.919   3.079   0.782 -0.6088 -0.8952 -0.8954
   37MOL   C164 6716   2.673   2.943   0.375 -0.0015 -0.8238  0.3706
   37MOL   C165 6717   2.696   2.806   0.434  0.6348 -0.6155  0.1742
   37MOL   C166 6718   2.765   2.961   0.254 -0.6151 -1.2997  0.9219
   37MOL   O167 6719   2.827   2.866   0.204  0.8162 -0.2515 -1.4573
   37MOL   O168 6720   2.753   3.084   0.194 -0.5961  0.1334  0.7105
   37MOL   H169 6721   2.572   2.954   0.337 -0.5290 -0.9026  1.7132
   37MOL   H170 6722   2.800   2.784   0.458  0.6142  0.2916  1.1630
   37MOL   H171 6723   2.634   2.800   0.524 -0.2250  1.5666 -0.2321
   37MOL   H172 6724   2.658   2.732   0.363  1.8678  0.2832 -1.4514
   37MOL   C173 6725   2.858   3.130   0.110 -0.2843  0.0711  0.1615
   37MOL   C174 6726   2.915   3.258   0.160  1.1338  0.8615  0.7152
   37MOL   C175 6727   2.795   3.148   8.118 -0.3411 -0.2976  1.0716
   37MOL   O176 6728   2.684   3.120   8.086 -0.7788  0.5659  0.4457
   37MOL   O177 6729   2.893   3.190   8.032  0.1078  0.1943  0.9070
   37MOL   H178 6730   2.938   3.057   0.098 -0.7585 -0.0218 -2.6330
   37MOL   H179 6731   2.981   3.300   0.084  0.6396 -1.9584 -1.3229
   37MOL   H180 6732   2.831   3.324   0.181  0.2894  0.1152 -0.2702
   37MOL   H181 6733   2.969   3.241   0.253  1.0325  0.4142  0.6915
   37MOL   H182 6734   2.858   3.199   7.944  0.8128  0.4413  0.6465
   38MOL     C1 6735   4.165   0.294   2.506  0.1692  0.2481  0.2617
   38MOL     C2 6736   4.171   0.359   2.371 -0.3023  0.6145  0.6808
   38MOL     C3 6737   4.147   0.142   2.490 -0.4404 -0.1045  0.4042
   38MOL     O4 6738   4.221   0.063   2.545  0.3563  0.2648  0.1818
   38MOL     O5 6739   4.032   0.106   2.423  0.4580 -0.6970  0.0460
   38MOL     H6 6740   4.256   0.320   2.561  0.3311 -0.7517  0.4669
   38MOL     H7 6741   4.226   0.294   2.303  1.6613  1.1793  1.7148
   38MOL     H8 6742   4.068   0.366   2.336  0.3060  4.5138 -0.5098
   38MOL     H9 6743   4.200   0.464   2.377  0.3841  0.4263  0.6788
   38MOL    H10 6744   4.084   0.334   2.568 -1.2690 -0.9130 -0.8354
   38MOL    C11 6745   3.982   8.114   2.428  0.4157  0.2193 -0.6231
   38MOL    C12 6746   3.865   8.112   2.323  0.2105 -0.2062  0.4728
   38MOL    C13 6747   3.958   8.069   2.570 -0.6862  0.1499 -0.7351
   38MOL    O14 6748   4.023   7.973   2.619  0.0223  0.1018  0.2221
   38MOL    O15 6749   3.874   0.005   2.641 -0.0632 -0.1094 -0.3050
   38MOL    H16 6750   4.055   8.049   2.381  0.2974 -0.3297 -0.0421
   38MOL    H17 6751   3.903   0.008   2.231  1.1860  2.6047  2.1498
   38MOL    H18 6752   3.811   8.019   2.306 -1.6603  0.9174  0.1995
   38MOL    H19 6753   3.784   0.027   2.361  0.5751 -0.2545  1.3394
   38MOL    C20 6754   3.856   8.132   2.782 -0.6892 -0.0981  0.2694
   38MOL    C21 6755   3.711   8.145   2.814 -0.1290  0.2711 -0.2199
   38MOL    C22 6756   3.936   0.102   2.851 -0.0106  0.5548  0.5779
   38MOL    O23 6757   4.040   0.150   2.803 -0.1533  0.3415 -0.0862
   38MOL    O24 6758   3.897   0.114   2.978  0.0480  0.2525 -0.9840
   38MOL    H25 6759   3.882   8.033   2.820 -0.4644 -0.3941 -0.6430
   38MOL    H26 6760   3.657   8.058   2.775 -0.8089  0.7487 -0.3591
   38MOL    H27 6761   3.688   8.134   2.920  2.6807  4.0333  0.8744
   38MOL    H28 6762   3.661   0.088   2.779  1.1699  1.7001  1.5491
   38MOL    C29 6763   3.980   0.190   3.069 -0.0980  0.5843  0.9483
   38MOL    C30 6764   3.978   0.112   3.196  0.1722  0.0535  0.1070
   38MOL    C31 6765   3.941   0.337   3.080  0.9349 -0.2193 -0.0248
   38MOL    O32 6766   3.941   0.404   3.186  0.7346 -0.1333  0.2286
   38MOL    O33 6767   3.902   0.390   2.965 -0.1100  0.4431  0.2238
   38MOL    H34 6768   4.087   0.187   3.050  0.2689 -0.3329  2.9841
   38MOL    H35 6769   3.883   0.076   3.235 -0.0165  1.0275  0.5720
   38MOL    H36 6770   4.052   0.033   3.194  0.6794  0.5388 -0.7153
   38MOL    H37 6771   4.003   0.177   3.280  1.2468 -0.4740  0.2004
   38MOL    C38 6772   3.906   0.534   2.926 -0.1514  0.3885 -0.1210
   38MOL    C39 6773   4.050   0.579   2.930 -0.7672  0.4405 -0.3930
   38MOL    C40 6774   3.809   0.619   3.012 -0.4433 -0.2337 -0.0145
   38MOL    O41 6775   3.686   0.614   3.008 -0.7022  0.1198 -0.2882
   38MOL    O42 6776   3.875   0.697   3.105  0.2451  1.0186  0.1121
   38MOL    H43 6777   3.866   0.529   2.825 -1.2684  5.2765 -0.0594
   38MOL    H44 6778   4.071   0.569   3.037 -3.4088 -0.3883  0.0822
   38MOL    H45 6779   4.106   0.505   2.872 -0.2552 -1.4658  2.4251
   38MOL    H46 6780   4.075   0.677   2.889 -0.4208  0.6367  0.2742
   38MOL    C47 6781   3.805   0.780   3.197  0.1869 -0.0667  0.2752
   38MOL    C48 6782   3.774   0.915   3.121 -0.2107  0.5353 -0.3182
   38MOL    C49 6783   3.892   0.790   3.327 -0.1083  0.5711 -0.3379
   38MOL    O50 6784   3.988   0.717   3.335  0.1426  0.1231 -0.3611
   38MOL    O51 6785   3.852   0.890   3.418 -0.6626  0.6214  0.4296
   38MOL    H52 6786   3.711   0.734   3.228 -0.0043 -0.5154 -0.9307
   38MOL    H53 6787   3.866   0.960   3.082 -0.2898 -0.5748 -1.8100
   38MOL    H54 6788   3.712   0.888   3.037 -2.2957  0.6046  1.1630
   38MOL    H55 6789   3.720   0.985   3.185 -0.2608 -0.1351  0.3727
   38MOL    C56 6790   3.951   0.945   3.509 -0.0747 -0.4513  0.2993
   38MOL    C57 6791   3.860   1.008   3.613  0.1191 -0.1917 -0.1739
   38MOL    C58 6792   4.032   1.053   3.438 -0.2199 -0.1175  0.0323
   38MOL    O59 6793   4.007   1.085   3.323 -0.4800  0.0547 -0.6385
   38MOL    O60 6794   4.128   1.108   3.515  0.5901 -0.3983 -0.7241
   38MOL    H61 6795   4.003   0.868   3.565 -0.1605  0.3422  1.4821
   38MOL    H62 6796   3.926   1.033   3.697  0.7132  0.8521 -0.9315
   38MOL    H63 6797   3.813   1.098   3.572  1.9660 -0.8888 -3.9947
   38MOL    H64 6798   3.774   0.947   3.638 -0.9217  1.5039  0.5022
   38MOL    C65 6799   4.223   1.200   3.462 -0.1441  0.0868  0.1783
   38MOL    C66 6800   4.344   1.208   3.560  0.1619 -0.0057  0.0654
   38MOL    C67 6801   4.157   1.340   3.453  0.2767  0.5089  0.0893
   38MOL    O68 6802   4.031   1.344   3.457  0.4312  0.3424  0.3702
   38MOL    O69 6803   4.230   1.444   3.433  0.5965 -0.5959  0.4569
   38MOL    H70 6804   4.259   1.169   3.364  0.1090 -1.7604  0.8433
   38MOL    H71 6805   4.374   1.103   3.567  0.9399  0.3187  1.9178
   38MOL    H72 6806   4.420   1.278   3.526  1.0846 -0.6157  0.8377
   38MOL    H73 6807   4.322   1.235   3.663  1.1420  0.0090  0.2689
   38MOL    C74 6808   4.181   1.574   3.453 -0.1319 -0.1836  0.2378
   38MOL    C75 6809   4.287   1.669   3.409 -0.3661 -0.4290  0.2954
   38MOL    C76 6810   4.141   1.602   3.599  0.3673  1.0403 -0.0892
   38MOL    O77 6811   4.037   1.664   3.616  0.1736 -0.2077 -0.1366
   38MOL    O78 6812   4.212   1.536   3.697 -0.5191 -0.1786 -0.3155
   38MOL    H79 6813   4.097   1.581   3.384 -0.2045 -0.7584  0.2669
   38MOL    H80 6814   4.385   1.644   3.449 -0.2516 -1.1933 -0.4641
   38MOL    H81 6815   4.290   1.666   3.300  2.0351 -1.0081  0.3667
   38MOL    H82 6816   4.279   1.773   3.441 -0.2102 -0.8095  1.6119
   38MOL    C83 6817   4.172   1.529   3.833  0.1302 -0.4200  0.6390
   38MOL    C84 6818   4.294   1.510   3.932 -0.0725  0.5055  0.5279
   38MOL    C85 6819   4.057   1.426   3.846 -0.3256 -0.4982 -0.0481
   38MOL    O86 6820   4.062   1.319   3.791 -0.3911  0.2499 -0.3001
   38MOL    O87 6821   3.956   1.464   3.931 -0.0731 -0.3085  0.2893
   38MOL    H88 6822   4.117   1.620   3.856 -0.9776 -1.2518  1.3127
   38MOL    H89 6823   4.270   1.534   4.035 -0.8349  0.6838  0.3131
   38MOL    H90 6824   4.333   1.409   3.923 -0.6540  0.3439 -0.1987
   38MOL    H91 6825   4.377   1.571   3.895 -0.6436  0.1418 -1.4106
   38MOL    C92 6826   3.846   1.377   3.955 -0.2400  0.6811 -1.4141
   38MOL    C93 6827   3.879   1.234   4.020 -0.3541 -0.0250  0.2100
   38MOL    C94 6828   3.755   1.362   3.835  0.2606 -0.0652  1.1479
   38MOL    O95 6829   3.698   1.253   3.812 -0.4198 -0.2590  0.5267
   38MOL    O96 6830   3.743   1.480   3.760 -0.4941  0.5406 -0.6479
   38MOL    H97 6831   3.792   1.434   4.030  3.0361 -0.2771  1.8141
   38MOL    H98 6832   3.926   1.255   4.116 -2.5313 -0.3382  1.3796
   38MOL    H99 6833   3.796   1.167   4.043  1.0580 -1.4537  1.2918
   38MOL   H100 6834   3.948   1.181   3.954 -1.6747 -0.3241 -0.9655
   38MOL   C101 6835   3.650   1.480   3.656  0.1969  0.7590  0.6181
   38MOL   C102 6836   3.681   1.601   3.568  0.0994 -0.2420 -0.1542
   38MOL   C103 6837   3.500   1.489   3.703 -0.0100  0.2753  0.7398
   38MOL   O104 6838   3.481   1.524   3.814  0.2491  0.1650 -0.3070
   38MOL   O105 6839   3.413   1.455   3.611  0.1183  0.0886 -0.6238
   38MOL   H106 6840   3.653   1.398   3.585  1.0884  0.4769  0.9762
   38MOL   H107 6841   3.671   1.692   3.627  0.1138 -0.8732  0.8394
   38MOL   H108 6842   3.776   1.603   3.515 -0.1758  0.1064 -0.6474
   38MOL   H109 6843   3.595   1.610   3.502  0.4872 -0.2087 -0.6545
   38MOL   C110 6844   3.269   1.442   3.643 -0.4128  0.0331 -0.2469
   38MOL   C111 6845   3.207   1.337   3.544  0.5125 -0.3324  0.0223
   38MOL   C112 6846   3.198   1.580   3.627  0.4790  0.1564 -1.1910
   38MOL   O113 6847   3.169   1.637   3.736  0.2750 -0.1234  0.2178
   38MOL   O114 6848   3.206   1.634   3.504  0.0053  0.5128 -0.1809
   38MOL   H115 6849   3.258   1.410   3.747  2.8644  1.6640  0.6766
   38MOL   H116 6850   3.217   1.376   3.443 -1.0182  0.2081  0.0709
   38MOL   H117 6851   3.226   1.231   3.560 -1.0911 -0.5702  0.4371
   38MOL   H118 6852   3.099   1.343   3.557  0.6003  0.1115  0.5657
   38MOL   C119 6853   3.156   1.769   3.482 -0.0644 -0.6180 -1.1587
   38MOL   C120 6854   3.108   1.782   3.339  0.0420  1.2869  0.2441
   38MOL   C121 6855   3.267   1.869   3.521  0.0237  0.0912 -0.5960
   38MOL   O122 6856   3.384   1.846   3.506 -0.1517  0.3839  0.5275
   38MOL   O123 6857   3.229   1.987   3.573  0.0127 -0.1920 -0.3505
   38MOL   H124 6858   3.069   1.793   3.543  1.1088  0.7255  0.0060
   38MOL   H125 6859   3.196   1.764   3.278  0.9927 -0.8843  2.1954
   38MOL   H126 6860   3.032   1.708   3.315 -0.2901  1.2279  1.4803
   38MOL   H127 6861   3.063   1.881   3.330 -1.6773  0.2584 -3.4889
   38MOL   C128 6862   3.311   2.095   3.611 -0.6815 -0.1203  0.1523
   38MOL   C129 6863   3.218   2.192   3.684  0.7676 -0.0020 -0.5085
   38MOL   C130 6864   3.369   2.157   3.484 -0.9340 -0.2647 -0.2973
   38MOL   O131 6865   3.490   2.173   3.464 -0.0470 -0.4941 -0.6025
   38MOL   O132 6866   3.269   2.201   3.404 -0.3483 -0.4275 -0.1135
   38MOL   H133 6867   3.384   2.046   3.676  1.4383  0.2662 -1.8843
   38MOL   H134 6868   3.154   2.145   3.758  1.6660  1.1886  1.0630
   38MOL   H135 6869   3.268   2.281   3.723  0.9611  0.2595 -1.3455
   38MOL   H136 6870   3.150   2.239   3.613 -0.8373 -1.1609  0.2262
   38MOL   C137 6871   3.287   2.249   3.271 -1.1776  0.1774  0.2548
   38MOL   C138 6872   3.197   2.374   3.231  0.3048  0.2622 -0.5930
   38MOL   C139 6873   3.275   2.125   3.177 -0.5627 -0.2880 -0.5514
   38MOL   O140 6874   3.193   2.121   3.090  0.3117  0.1084  0.7531
   38MOL   O141 6875   3.369   2.031   3.191  0.4624 -0.1684 -0.6293
   38MOL   H142 6876   3.391   2.270   3.247 -0.9769  0.6473  1.4715
   38MOL   H143 6877   3.173   2.370   3.125  0.2572 -1.7649 -0.5276
   38MOL   H144 6878   3.105   2.380   3.288  1.2787  3.1692  0.7488
   38MOL   H145 6879   3.259   2.460   3.257  1.9066 -0.7477 -0.9423
   38MOL   C146 6880   3.389   1.933   3.098 -0.1603  0.5037 -0.9931
   38MOL   C147 6881   3.451   1.810   3.175 -0.2904 -0.1788  0.4901
   38MOL   C148 6882   3.475   1.966   2.978  0.5284 -0.4860  0.2864
   38MOL   O149 6883   3.549   2.067   2.987  0.1475  0.5596 -0.1325
   38MOL   O150 6884   3.482   1.872   2.876  0.0846 -0.0769  0.2865
   38MOL   H151 6885   3.292   1.894   3.067 -0.0575  1.0153 -1.9721
   38MOL   H152 6886   3.472   1.822   3.281  1.3460  0.3709  0.1207
   38MOL   H153 6887   3.385   1.723   3.175 -1.4579  0.6900  1.2196
   38MOL   H154 6888   3.545   1.774   3.133 -0.7568 -0.2829 -0.4976
   38MOL   C155 6889   3.565   1.890   2.761  0.5716 -0.0117  0.4754
   38MOL   C156 6890   3.463   1.871   2.646 -0.0643  0.3276 -0.0534
   38MOL   C157 6891   3.684   1.795   2.758  0.2548  0.2419 -0.6213
   38MOL   O158 6892   3.799   1.838   2.743  0.6822  0.1126  0.1318
   38MOL   O159 6893   3.647   1.668   2.788  0.0499  0.0635  0.0130
   38MOL   H160 6894   3.604   1.991   2.750 -1.0351  0.6385  0.7022
   38MOL   H161 6895   3.507   1.894   2.548 -3.5214  0.0590 -1.7239
   38MOL   H162 6896   3.430   1.767   2.651  3.4725 -0.7539  2.9932
   38MOL   H163 6897   3.380   1.935   2.674  0.4560  0.8322  0.3340
   38MOL   C164 6898   3.749   1.566   2.815 -0.4895  0.2437  0.8439
   38MOL   C165 6899   3.781   1.488   2.685 -0.5321  0.1325 -0.7052
   38MOL   C166 6900   3.693   1.470   2.920  0.3148 -0.5028 -0.0345
   38MOL   O167 6901   3.622   1.377   2.882 -0.2450 -0.0669  0.2173
   38MOL   O168 6902   3.722   1.511   3.042 -1.0122 -0.1436 -0.3713
   38MOL   H169 6903   3.846   1.600   2.849 -0.1606  1.6084 -1.4040
   38MOL   H170 6904   3.843   1.555   2.625  2.5045 -2.5104 -0.6681
   38MOL   H171 6905   3.841   1.399   2.706 -1.8875 -0.4583  0.8609
   38MOL   H172 6906   3.697   1.453   2.625  0.8766 -2.1542 -1.4078
   38MOL   C173 6907   3.696   1.422   3.156  0.1966  0.7352  0.4217
   38MOL   C174 6908   3.598   1.491   3.254  0.2250 -0.2227 -0.1357
   38MOL   C175 6909   3.829   1.403   3.230  0.0611  0.3363  0.1364
   38MOL   O176 6910   3.940   1.448   3.194 -0.1831  0.4692 -0.1876
   38MOL   O177 6911   3.806   1.316   3.331  0.0372  0.2595  0.1240
   38MOL   H178 6912   3.645   1.330   3.125  1.2811  0.1610  0.3337
   38MOL   H179 6913   3.501   1.481   3.205  0.1138 -2.8628  0.5751
   38MOL   H180 6914   3.597   1.454   3.357 -0.1965  0.6732  0.1951
   38MOL   H181 6915   3.624   1.596   3.264 -0.5727  0.1035 -1.4300
   38MOL   H182 6916   3.890   1.301   3.371  0.8916  1.5699 -1.1001
   39MOL     C1 6917   0.214   2.160   2.919 -0.0870 -0.1119 -0.1629
   39MOL     C2 6918   0.218   2.099   2.774  0.8944  0.0461 -0.3045
   39MOL     C3 6919   0.321   2.090   3.003 -0.0142 -0.3898  0.2640
   39MOL     O4 6920   0.402   2.008   2.951 -0.0020 -0.2515  0.1978
   39MOL     O5 6921   0.305   2.107   3.136 -0.6922  0.2909 -0.0724
   39MOL     H6 6922   0.228   2.268   2.908 -1.0538  0.2091  1.5592
   39MOL     H7 6923   0.188   1.995   2.782  2.4833 -0.3181  1.1568
   39MOL     H8 6924   0.154   2.161   2.711  2.0438  0.6357 -0.9122
   39MOL     H9 6925   0.321   2.099   2.737  1.1653 -0.9440  0.4429
   39MOL    H10 6926   0.115   2.140   2.960 -0.1454 -2.7483 -1.5214
   39MOL    C11 6927   0.387   2.038   3.229 -0.5721 -0.0119  0.6045
   39MOL    C12 6928   0.312   1.934   3.306  0.0124 -0.0455  0.5989
   39MOL    C13 6929   0.455   2.140   3.321 -0.1855  0.3109 -0.0644
   39MOL    O14 6930   0.418   2.156   3.438 -0.0877  0.0259 -0.5877
   39MOL    O15 6931   0.553   2.212   3.256 -0.7586  0.3396  0.0472
   39MOL    H16 6932   0.466   1.983   3.178 -0.5907 -0.7877  1.3981
   39MOL    H17 6933   0.385   1.905   3.381 -0.8671 -2.4913  0.5387
   39MOL    H18 6934   0.231   1.975   3.367  0.5617  2.3640 -0.2301
   39MOL    H19 6935   0.286   1.850   3.242 -0.5156  0.1411  0.5633
   39MOL    C20 6936   0.616   2.324   3.322 -0.2979  0.2814 -0.3770
   39MOL    C21 6937   0.639   2.435   3.219  0.0318  0.9422 -0.4696
   39MOL    C22 6938   0.750   2.279   3.377 -0.3035 -0.9399  0.4679
   39MOL    O23 6939   0.814   2.178   3.341 -0.1147 -0.2745 -0.9306
   39MOL    O24 6940   0.795   2.349   3.483  0.0439  0.3247  1.0118
   39MOL    H25 6941   0.556   2.364   3.404 -0.5515 -0.0072 -0.4195
   39MOL    H26 6942   0.680   2.391   3.129 -0.1993  0.4370 -0.3263
   39MOL    H27 6943   0.539   2.479   3.210  0.1191  1.5295  1.2332
   39MOL    H28 6944   0.696   2.522   3.251  0.2062  0.9286 -0.7400
   39MOL    C29 6945   0.925   2.338   3.536  0.1515  0.0585  1.0220
   39MOL    C30 6946   0.939   2.236   3.651  0.4702 -0.6495 -0.0654
   39MOL    C31 6947   0.974   2.475   3.592 -0.4200 -0.5797 -0.3128
   39MOL    O32 6948   0.923   2.517   3.695 -0.2070 -0.1905  0.1843
   39MOL    O33 6949   1.082   2.523   3.533  0.0105 -0.5031 -0.5071
   39MOL    H34 6950   1.002   2.307   3.465  1.2757  2.1305  1.2762
   39MOL    H35 6951   1.030   2.257   3.708  0.3628  0.3049 -0.2420
   39MOL    H36 6952   0.852   2.236   3.717  0.2944  0.4992 -0.2823
   39MOL    H37 6953   0.927   2.139   3.603  1.1473  0.4648 -2.5868
   39MOL    C38 6954   1.148   2.633   3.591 -0.0230  0.3830  0.5607
   39MOL    C39 6955   1.249   2.695   3.487  0.1503  0.5151  0.5307
   39MOL    C40 6956   1.222   2.589   3.717 -0.5715  0.1640 -0.0250
   39MOL    O41 6957   1.217   2.667   3.816 -0.7597 -0.4259 -0.0314
   39MOL    O42 6958   1.299   2.478   3.702 -0.3197  0.1824 -0.1754
   39MOL    H43 6959   1.082   2.720   3.599  0.8129  1.0735  0.0302
   39MOL    H44 6960   1.194   2.762   3.420  0.7533  1.1246  0.6390
   39MOL    H45 6961   1.316   2.769   3.531 -0.1616  2.2969 -1.8667
   39MOL    H46 6962   1.296   2.615   3.431  0.3265 -0.2332  1.7355
   39MOL    C47 6963   1.369   2.425   3.813  0.8648  0.3853 -0.0869
   39MOL    C48 6964   1.505   2.493   3.818 -0.0285 -0.7602  0.1230
   39MOL    C49 6965   1.375   2.282   3.797  0.1594  0.0559 -1.0134
   39MOL    O50 6966   1.462   2.228   3.729  0.0223  0.0357 -0.0882
   39MOL    O51 6967   1.285   2.218   3.871 -0.2413  0.3992  0.7812
   39MOL    H52 6968   1.314   2.448   3.904 -1.9335  1.5951 -2.0074
   39MOL    H53 6969   1.495   2.593   3.861  1.2183 -0.1002 -1.0547
   39MOL    H54 6970   1.582   2.447   3.880 -1.6171 -0.7443  2.1154
   39MOL    H55 6971   1.524   2.513   3.712 -1.0583 -1.6849 -0.2405
   39MOL    C56 6972   1.287   2.076   3.863  0.5103 -0.1722  0.2476
   39MOL    C57 6973   1.149   2.016   3.897  0.7553  0.1647 -0.1373
   39MOL    C58 6974   1.402   2.015   3.941 -0.5011  1.1126 -0.0869
   39MOL    O59 6975   1.471   1.918   3.912  0.3603 -0.4238 -0.4678
   39MOL    O60 6976   1.428   2.083   4.050 -0.5451 -0.3085  0.2368
   39MOL    H61 6977   1.314   2.038   3.765 -2.4078 -2.7013  0.3565
   39MOL    H62 6978   1.078   2.023   3.815  0.0154  2.7967  0.6912
   39MOL    H63 6979   1.161   1.912   3.928  2.2480  0.4710  0.4023
   39MOL    H64 6980   1.126   2.075   3.986  2.5582 -0.2764  0.6497
   39MOL    C65 6981   1.545   2.061   4.132  0.0740 -0.2962 -0.7842
   39MOL    C66 6982   1.526   2.138   4.260  0.4441 -0.3277  0.5527
   39MOL    C67 6983   1.669   2.108   4.056 -0.1008  0.0996  0.8759
   39MOL    O68 6984   1.667   2.213   3.983 -0.5902  0.5583 -0.4371
   39MOL    O69 6985   1.777   2.024   4.070  0.4687 -0.1252 -0.2821
   39MOL    H70 6986   1.545   1.956   4.164 -2.7782 -0.5975 -1.6406
   39MOL    H71 6987   1.522   2.243   4.229 -1.3308 -0.9196 -1.4103
   39MOL    H72 6988   1.440   2.103   4.317  2.0235 -2.3590  1.7056
   39MOL    H73 6989   1.606   2.121   4.331  0.2473 -0.1896  0.8060
   39MOL    C74 6990   1.906   2.085   4.059  0.2150 -0.4512 -0.1613
   39MOL    C75 6991   2.008   1.994   3.994 -0.5622 -0.3875  0.9231
   39MOL    C76 6992   1.947   2.124   4.201  0.2712 -0.1091  0.1725
   39MOL    O77 6993   1.882   2.096   4.301  0.5184 -0.1684 -0.0473
   39MOL    O78 6994   2.072   2.167   4.200  0.3542 -0.0775  0.7245
   39MOL    H79 6995   1.901   2.174   3.996  0.4007 -0.0293  0.4134
   39MOL    H80 6996   2.037   1.916   4.064 -0.2206 -0.3946  0.7745
   39MOL    H81 6997   1.977   1.946   3.901 -0.0407 -0.3928  0.7523
   39MOL    H82 6998   2.099   2.050   3.970 -0.5496 -1.9338 -2.9653
   39MOL    C83 6999   2.145   2.181   4.328 -0.0174 -0.3544  0.0444
   39MOL    C84 7000   2.250   2.294   4.303  0.1196  0.2943  0.5037
   39MOL    C85 7001   2.198   2.041   4.370  0.2773  0.1987  0.2947
   39MOL    O86 7002   2.245   1.955   4.292  0.1552 -0.5936  0.1578
   39MOL    O87 7003   2.196   2.023   4.507 -0.5188 -0.3879 -0.4335
   39MOL    H88 7004   2.080   2.221   4.406  1.3606  1.3183  0.3677
   39MOL    H89 7005   2.276   2.282   4.198 -0.1638 -1.7535  0.6573
   39MOL    H90 7006   2.214   2.396   4.321  0.2878  0.3819  0.3379
   39MOL    H91 7007   2.345   2.272   4.351  1.2394 -0.5694 -2.0599
   39MOL    C92 7008   2.279   1.923   4.567 -0.2662  0.7087 -0.7033
   39MOL    C93 7009   2.228   1.898   4.705  0.0318  0.1105  0.4082
   39MOL    C94 7010   2.423   1.982   4.575 -0.8168 -0.0735  0.2670
   39MOL    O95 7011   2.442   2.094   4.620 -0.3159 -0.0550 -0.2271
   39MOL    O96 7012   2.523   1.890   4.545  0.4017 -0.5233 -0.3365
   39MOL    H97 7013   2.273   1.829   4.512  0.8579 -0.0702  0.4675
   39MOL    H98 7014   2.234   1.995   4.754 -0.6681 -0.0714  0.8539
   39MOL    H99 7015   2.125   1.864   4.712  0.0155 -0.6646 -2.7649
   39MOL   H100 7016   2.285   1.831   4.770 -1.5691 -0.8581  0.8262
   39MOL   C101 7017   2.663   1.914   4.573 -0.6806  0.6687 -0.0923
   39MOL   C102 7018   2.738   1.850   4.455 -0.0047 -0.1685  0.2445
   39MOL   C103 7019   2.700   1.844   4.707 -0.2650  0.2038 -0.5896
   39MOL   O104 7020   2.748   1.910   4.795 -0.1387 -0.3763  0.2018
   39MOL   O105 7021   2.667   1.710   4.707  0.1640  0.5549  0.3094
   39MOL   H106 7022   2.685   2.020   4.561  0.0342  0.5658  0.2778
   39MOL   H107 7023   2.695   1.764   4.404  1.2882 -0.1272 -0.9401
   39MOL   H108 7024   2.753   1.924   4.377 -0.2732  1.6235  1.8679
   39MOL   H109 7025   2.835   1.820   4.495  0.2679 -0.7631 -0.8541
   39MOL   C110 7026   2.696   1.635   4.820 -0.3204  0.1063 -0.7035
   39MOL   C111 7027   2.764   1.502   4.788  0.0673  0.1036 -0.0301
   39MOL   C112 7028   2.573   1.615   4.911  0.4311 -0.1778 -0.4578
   39MOL   O113 7029   2.459   1.656   4.877  0.2211 -0.1926  0.4578
   39MOL   O114 7030   2.602   1.525   5.012 -0.4452  0.4860  0.0033
   39MOL   H115 7031   2.764   1.689   4.886 -3.4820  2.4528  0.7944
   39MOL   H116 7032   2.704   1.415   4.762  2.3342 -1.8008  1.0352
   39MOL   H117 7033   2.816   1.509   4.692 -1.4612 -1.6567 -1.0293
   39MOL   H118 7034   2.826   1.470   4.871 -1.8549 -0.5019  1.2087
   39MOL   C119 7035   2.491   1.448   5.063 -0.7840  0.3378  0.1259
   39MOL   C120 7036   2.537   1.433   5.216 -0.1195  0.5608  0.0236
   39MOL   C121 7037   2.482   1.320   4.981 -0.1810 -0.3474 -0.0427
   39MOL   O122 7038   2.520   1.212   5.023 -0.3851 -1.0459 -0.8567
   39MOL   O123 7039   2.452   1.349   4.849 -0.4047 -0.2228 -0.1499
   39MOL   H124 7040   2.391   1.492   5.058 -0.5905  0.5874 -1.7705
   39MOL   H125 7041   2.529   1.532   5.260  0.4204  0.9386 -0.7159
   39MOL   H126 7042   2.470   1.373   5.277 -1.0163 -0.9110 -2.3103
   39MOL   H127 7043   2.634   1.383   5.229  0.5663  1.4553 -1.5289
   39MOL   C128 7044   2.471   1.257   4.742  0.1063  0.3184  0.7493
   39MOL   C129 7045   2.460   1.341   4.619 -0.5720 -0.1597 -0.2967
   39MOL   C130 7046   2.367   1.147   4.741  0.4427 -0.0427 -0.4462
   39MOL   O131 7047   2.260   1.167   4.806  0.0696 -0.0898 -0.5038
   39MOL   O132 7048   2.400   1.041   4.662  0.1657 -0.0332 -0.2923
   39MOL   H133 7049   2.566   1.206   4.757  0.2515  0.6965  1.1305
   39MOL   H134 7050   2.454   1.294   4.521 -0.6861 -0.8577  0.0473
   39MOL   H135 7051   2.367   1.398   4.620  0.0643  0.8838 -0.0362
   39MOL   H136 7052   2.540   1.414   4.608  0.7938 -1.5810  0.1325
   39MOL   C137 7053   2.301   0.948   4.609  0.3297  0.6749 -0.4436
   39MOL   C138 7054   2.306   0.820   4.706 -0.9248  0.0463 -0.4685
   39MOL   C139 7055   2.341   0.913   4.466  0.3523 -0.1562  0.0166
   39MOL   O140 7056   2.441   0.961   4.411  0.4988 -0.3844 -0.1135
   39MOL   O141 7057   2.256   0.818   4.413 -0.3312  0.5662  0.2241
   39MOL   H142 7058   2.205   0.996   4.593  1.8431  2.5649 -4.3863
   39MOL   H143 7059   2.250   0.734   4.669 -1.9174 -0.1465  1.4191
   39MOL   H144 7060   2.405   0.779   4.727 -0.8402 -0.7856 -2.3495
   39MOL   H145 7061   2.263   0.840   4.804  0.7389 -0.3175  0.3576
   39MOL   C146 7062   2.274   0.772   4.277  0.7032  0.2572 -0.3830
   39MOL   C147 7063   2.144   0.724   4.214 -0.0345 -0.3526 -0.2750
   39MOL   C148 7064   2.387   0.678   4.272 -0.1404 -0.1747 -0.5326
   39MOL   O149 7065   2.475   0.693   4.186  0.1015  0.9476 -0.0875
   39MOL   O150 7066   2.391   0.581   4.370  0.1873 -0.3810  0.2090
   39MOL   H151 7067   2.303   0.861   4.221 -0.6364  0.4996 -0.7194
   39MOL   H152 7068   2.120   0.636   4.273 -0.4913  2.1462  3.4275
   39MOL   H153 7069   2.062   0.795   4.222 -0.6942 -1.0465 -0.8416
   39MOL   H154 7070   2.151   0.686   4.112 -0.1571 -3.4240  0.8288
   39MOL   C155 7071   2.505   0.489   4.361  0.4796  0.3420  0.5026
   39MOL   C156 7072   2.454   0.360   4.426 -0.7495 -0.1078  0.9728
   39MOL   C157 7073   2.631   0.546   4.435  0.1618 -0.3765  0.1817
   39MOL   O158 7074   2.682   0.497   4.536  0.1463  0.1845  0.2011
   39MOL   O159 7075   2.677   0.658   4.366  0.3144 -0.0214  0.2366
   39MOL   H160 7076   2.538   0.467   4.260 -0.3271 -0.3404  0.3873
   39MOL   H161 7077   2.540   0.296   4.445 -0.7900 -0.3813  0.2402
   39MOL   H162 7078   2.393   0.377   4.515  0.4358 -0.6048  1.8873
   39MOL   H163 7079   2.394   0.305   4.354  1.8906 -2.0865  0.2062
   39MOL   C164 7080   2.803   0.710   4.412  0.1993 -0.5725  0.0856
   39MOL   C165 7081   2.771   0.839   4.491  0.3482  0.0071  0.2677
   39MOL   C166 7082   2.895   0.731   4.288 -0.0846 -0.4296  0.1795
   39MOL   O167 7083   2.947   0.839   4.263  0.0101  0.2899 -0.1834
   39MOL   O168 7084   2.901   0.611   4.212  0.1475 -0.4091 -0.0083
   39MOL   H169 7085   2.854   0.645   4.483 -2.2019 -2.1804  0.3944
   39MOL   H170 7086   2.856   0.893   4.531 -0.7854  2.5801 -0.7355
   39MOL   H171 7087   2.723   0.918   4.434  2.0132 -0.1543 -1.4220
   39MOL   H172 7088   2.696   0.825   4.568  2.7036 -1.2964  2.3958
   39MOL   C173 7089   2.936   0.604   4.074 -0.3050 -0.3053 -0.4116
   39MOL   C174 7090   3.084   0.642   4.049  0.0608  0.0570  0.4457
   39MOL   C175 7091   2.845   0.700   3.999  0.1554  0.4095  0.0800
   39MOL   O176 7092   2.875   0.813   3.967 -0.3346 -0.6519  0.4782
   39MOL   O177 7093   2.715   0.658   4.003 -0.3570  0.1579  0.0898
   39MOL   H178 7094   2.917   0.508   4.025  0.8866  1.1098 -3.7898
   39MOL   H179 7095   3.116   0.738   4.089  1.3547  1.4613 -3.6770
   39MOL   H180 7096   3.144   0.561   4.091  2.1287  1.6733  0.7160
   39MOL   H181 7097   3.111   0.644   3.943  0.4591 -0.3453  0.5354
   39MOL   H182 7098   2.663   0.728   3.968  0.2775  0.6334  0.0916
   40MOL     C1 7099   1.377   2.472   2.890 -0.4413  0.7986 -0.4583
   40MOL     C2 7100   1.333   2.492   2.751  0.1449  0.0898  0.3053
   40MOL     C3 7101   1.299   2.561   2.989  0.0946 -0.5949 -0.7963
   40MOL     O4 7102   1.324   2.686   2.996 -0.4465  0.5040 -0.4561
   40MOL     O5 7103   1.222   2.497   3.064  0.3386 -0.3185  0.6466
   40MOL     H6 7104   1.380   2.368   2.923  2.3674  0.4377 -1.7092
   40MOL     H7 7105   1.224   2.491   2.746  0.0969  0.9670  1.1936
   40MOL     H8 7106   1.374   2.587   2.716 -1.5807  0.6687 -0.1778
   40MOL     H9 7107   1.380   2.418   2.685 -2.4462  0.0723 -1.5964
   40MOL    H10 7108   1.482   2.498   2.899  0.0054 -0.5011 -1.6898
   40MOL    C11 7109   1.123   2.572   3.136 -0.4091  0.8051 -0.3671
   40MOL    C12 7110   1.040   2.474   3.214  0.0694  0.3734  0.4539
   40MOL    C13 7111   1.027   2.656   3.050  0.8393  0.1593  0.4414
   40MOL    O14 7112   0.961   2.743   3.105 -0.4215  0.6159 -0.3093
   40MOL    O15 7113   0.995   2.604   2.930  0.3957  0.3352  0.3838
   40MOL    H16 7114   1.159   2.638   3.215 -0.4913 -3.0778  3.0734
   40MOL    H17 7115   0.995   2.403   3.144  1.6857  1.4346 -1.6961
   40MOL    H18 7116   1.100   2.416   3.284  0.4917  2.2817  1.6873
   40MOL    H19 7117   0.962   2.521   3.274 -0.5196 -0.1540  0.1137
   40MOL    C20 7118   0.877   2.642   2.859 -0.2183  0.4068 -0.2606
   40MOL    C21 7119   0.874   2.552   2.737  0.0241 -0.3154  0.2609
   40MOL    C22 7120   0.881   2.791   2.815  0.0573 -0.4371 -0.1360
   40MOL    O23 7121   0.793   2.869   2.850 -0.0756 -0.5874  0.0655
   40MOL    O24 7122   0.992   2.817   2.743  0.0232 -0.3622 -0.6137
   40MOL    H25 7123   0.784   2.618   2.910 -0.4360 -0.7155 -1.1649
   40MOL    H26 7124   0.825   2.606   2.656 -2.2972 -1.3965  0.9090
   40MOL    H27 7125   0.973   2.523   2.701 -0.2382 -1.7542  0.6925
   40MOL    H28 7126   0.814   2.466   2.764 -0.8788 -0.3261 -1.7242
   40MOL    C29 7127   1.031   2.947   2.701  0.0658 -0.6598  0.3446
   40MOL    C30 7128   0.980   2.969   2.555 -0.1240  0.2490  0.2992
   40MOL    C31 7129   1.183   2.965   2.703 -0.3704 -0.0305  0.2681
   40MOL    O32 7130   1.230   3.073   2.721 -0.0494 -0.5068  0.0356
   40MOL    O33 7131   1.251   2.860   2.663 -0.3817 -0.4797  0.8466
   40MOL    H34 7132   0.984   3.025   2.761  0.0137 -0.4244 -0.0019
   40MOL    H35 7133   0.880   2.926   2.563 -0.2423  0.6240  0.9169
   40MOL    H36 7134   0.982   3.073   2.523 -1.4743  0.2146  0.0707
   40MOL    H37 7135   1.025   2.905   2.479 -1.3098  0.5820 -0.7101
   40MOL    C38 7136   1.392   2.876   2.636 -0.3443  0.4417 -0.7659
   40MOL    C39 7137   1.487   2.882   2.755  0.0217  0.4024 -0.5694
   40MOL    C40 7138   1.426   2.968   2.515  0.1937 -0.0070  0.2489
   40MOL    O41 7139   1.540   3.014   2.503  0.0978  0.1026 -0.0747
   40MOL    O42 7140   1.326   2.978   2.427  0.4717  0.2703 -0.9589
   40MOL    H43 7141   1.407   2.774   2.600  0.1276  0.5445 -0.8616
   40MOL    H44 7142   1.474   2.800   2.825 -2.5515  2.1541  1.1225
   40MOL    H45 7143   1.591   2.895   2.725  1.0762 -1.7171  1.9644
   40MOL    H46 7144   1.458   2.968   2.816 -2.6681 -0.5724 -0.3903
   40MOL    C47 7145   1.323   3.079   2.329  0.0513 -0.0548  0.5702
   40MOL    C48 7146   1.291   3.225   2.383 -0.0387 -0.5114  0.2768
   40MOL    C49 7147   1.213   3.029   2.234  0.1381  0.1811 -0.3389
   40MOL    O50 7148   1.094   3.061   2.249 -0.0080  0.2639 -0.0396
   40MOL    O51 7149   1.249   2.937   2.150 -0.2894  0.2405  0.1554
   40MOL    H52 7150   1.413   3.081   2.267  1.1332 -2.2391  2.0104
   40MOL    H53 7151   1.253   3.297   2.311  1.1478 -1.0039 -0.8582
   40MOL    H54 7152   1.202   3.218   2.446  1.6293 -0.2997  2.7345
   40MOL    H55 7153   1.365   3.280   2.442 -0.6129  1.3578 -0.7211
   40MOL    C56 7154   1.158   2.865   2.056  0.0548 -0.0975  0.2137
   40MOL    C57 7155   1.228   2.743   2.000 -0.2587 -0.4631  0.0952
   40MOL    C58 7156   1.106   2.959   1.941 -0.1107  0.2003 -0.8264
   40MOL    O59 7157   0.985   2.971   1.914  0.4995 -0.0603  0.4910
   40MOL    O60 7158   1.215   3.026   1.883 -0.3913  0.3183  0.6041
   40MOL    H61 7159   1.067   2.821   2.096 -0.7086 -0.3018 -1.7044
   40MOL    H62 7160   1.288   2.763   1.912  1.3322 -0.4697  1.1696
   40MOL    H63 7161   1.293   2.694   2.073  0.6033 -0.3942 -0.6196
   40MOL    H64 7162   1.161   2.668   1.956 -0.9710 -0.3102  0.9033
   40MOL    C65 7163   1.202   3.150   1.822 -0.3651 -0.0492 -0.3926
   40MOL    C66 7164   1.328   3.177   1.730 -0.6718  0.1836  0.3245
   40MOL    C67 7165   1.201   3.265   1.925 -0.7662 -0.0446 -0.5423
   40MOL    O68 7166   1.263   3.244   2.033  0.3036 -0.0629 -0.0767
   40MOL    O69 7167   1.110   3.361   1.894  0.1025  0.1268  0.7823
   40MOL    H70 7168   1.104   3.149   1.773 -0.5203  0.0821 -0.0855
   40MOL    H71 7169   1.356   3.094   1.666 -0.6474  0.2364  0.2678
   40MOL    H72 7170   1.322   3.272   1.677 -3.5248  0.3929  0.9437
   40MOL    H73 7171   1.420   3.178   1.788  0.1340  0.0638 -0.9462
   40MOL    C74 7172   1.069   3.467   1.983  0.8281  0.0088  0.7456
   40MOL    C75 7173   1.178   3.571   1.997 -0.6432  0.2056  0.0424
   40MOL    C76 7174   1.007   3.415   2.115  0.8172  0.3491  0.4192
   40MOL    O77 7175   1.039   3.463   2.224 -0.9471 -0.4929  0.0259
   40MOL    O78 7176   0.913   3.324   2.102  0.3428  0.0767  0.1631
   40MOL    H79 7177   0.990   3.511   1.922  1.4581  1.3808  0.9214
   40MOL    H80 7178   1.136   3.665   2.034  1.0755  0.4964  1.3047
   40MOL    H81 7179   1.251   3.545   2.073  0.2985  0.0177 -0.9166
   40MOL    H82 7180   1.231   3.600   1.906 -1.8643  0.7264 -0.5168
   40MOL    C83 7181   0.817   3.293   2.205 -0.4953  0.1121 -0.0771
   40MOL    C84 7182   0.754   3.156   2.171 -0.3024  0.5474  0.0067
   40MOL    C85 7183   0.703   3.399   2.195 -0.2774  0.2422 -0.1246
   40MOL    O86 7184   0.659   3.444   2.296 -0.1735  0.0322 -0.3463
   40MOL    O87 7185   0.660   3.424   2.068  0.4276 -0.6064 -0.0622
   40MOL    H88 7186   0.870   3.292   2.300 -1.3376  2.4051  0.4377
   40MOL    H89 7187   0.688   3.116   2.248  2.0055 -1.2727  1.1008
   40MOL    H90 7188   0.714   3.155   2.069 -0.6389 -2.4390  0.1362
   40MOL    H91 7189   0.828   3.077   2.156  0.2149  0.7415  1.4750
   40MOL    C92 7190   0.558   3.519   2.046  0.0233  0.0615  1.0998
   40MOL    C93 7191   0.527   3.513   1.897 -0.0852  0.1554 -0.4988
   40MOL    C94 7192   0.603   3.662   2.083 -0.0892  0.5396 -0.8109
   40MOL    O95 7193   0.717   3.696   2.096  0.0317 -0.0080  0.0508
   40MOL    O96 7194   0.504   3.753   2.082 -0.1604 -0.4654 -0.1296
   40MOL    H97 7195   0.468   3.497   2.104 -0.9786  1.0300 -0.0483
   40MOL    H98 7196   0.498   3.409   1.879  1.3218  0.0712 -2.3535
   40MOL    H99 7197   0.455   3.585   1.860 -1.1095 -1.1892 -1.1615
   40MOL   H100 7198   0.616   3.524   1.836 -0.7326  0.2265 -1.4276
   40MOL   C101 7199   0.524   3.898   2.098 -0.0915  0.0924 -0.4583
   40MOL   C102 7200   0.511   3.923   2.251  0.8949  0.2549 -0.1845
   40MOL   C103 7201   0.429   3.975   2.014  0.3387 -0.1322  0.0417
   40MOL   O104 7202   0.339   4.048   2.053  0.7535 -0.0774  0.2373
   40MOL   O105 7203   0.465   3.954   1.885  0.0665  0.2296 -0.8554
   40MOL   H106 7204   0.623   3.933   2.067 -0.0970 -0.6381 -1.3009
   40MOL   H107 7205   0.542   3.840   2.314  0.5714  0.1159 -0.2071
   40MOL   H108 7206   0.554   4.019   2.280  3.5969 -1.4178  1.5307
   40MOL   H109 7207   0.406   3.936   2.277  0.9488  1.0002 -0.3169
   40MOL   C110 7208   0.434   4.056   1.790 -0.2871  0.6807 -0.2041
   40MOL   C111 7209   0.435   3.988   1.652 -0.3863  0.2112 -0.0255
   40MOL   C112 7210   0.533   4.172   1.798 -0.1998  0.1620  0.0603
   40MOL   O113 7211   0.601   4.197   1.701  0.1861 -0.0189  0.2782
   40MOL   O114 7212   0.544   4.237   1.921 -0.0867  0.4629  0.0381
   40MOL   H115 7213   0.333   4.096   1.801 -0.7767 -0.4955 -0.3246
   40MOL   H116 7214   0.421   4.069   1.580  0.0547  0.9188  0.6707
   40MOL   H117 7215   0.513   3.916   1.627 -1.1498  0.5328 -3.6227
   40MOL   H118 7216   0.348   3.922   1.646 -1.8319  2.1245 -0.5877
   40MOL   C119 7217   0.659   4.326   1.940  0.0095  0.3181 -0.3544
   40MOL   C120 7218   0.744   4.292   2.068  0.3332  0.1759 -0.0123
   40MOL   C121 7219   0.605   4.472   1.934 -0.0866 -0.0608  0.2502
   40MOL   O122 7220   0.579   4.539   2.036 -0.3075 -0.3807  0.5096
   40MOL   O123 7221   0.582   4.518   1.803  0.3012 -0.2817  0.2043
   40MOL   H124 7222   0.734   4.328   1.861  5.4733  1.5134  4.4657
   40MOL   H125 7223   0.708   4.339   2.159  1.8285  0.2657  0.5478
   40MOL   H126 7224   0.732   4.184   2.078  1.0908  0.2031  1.2797
   40MOL   H127 7225   0.849   4.306   2.041 -0.3077  1.4565 -1.9305
   40MOL   C128 7226   0.524   4.654   1.789 -1.1782  0.1790  0.6497
   40MOL   C129 7227   0.463   4.669   1.653 -0.1179  0.3317 -0.3027
   40MOL   C130 7228   0.628   4.761   1.819 -0.0992 -0.3505 -0.9592
   40MOL   O131 7229   0.749   4.740   1.813  0.7610 -0.7647 -0.1851
   40MOL   O132 7230   0.576   4.875   1.856  0.2393  0.0457 -0.2164
   40MOL   H133 7231   0.448   4.662   1.866  0.2378  0.8304  1.9991
   40MOL   H134 7232   0.535   4.650   1.574 -0.7532 -0.3296 -0.7254
   40MOL   H135 7233   0.373   4.608   1.647  1.1312 -1.5717 -0.0571
   40MOL   H136 7234   0.429   4.773   1.650 -0.1443  0.3292 -0.0909
   40MOL   C137 7235   0.665   4.990   1.879 -0.0955 -0.4389 -0.1189
   40MOL   C138 7236   0.597   5.089   1.972 -0.1441  0.4843  0.6544
   40MOL   C139 7237   0.705   5.070   1.749 -0.5732 -0.0155 -0.4251
   40MOL   O140 7238   0.770   5.174   1.754 -0.2289  0.1875  0.6704
   40MOL   O141 7239   0.653   5.017   1.644  0.7641  0.0273 -0.1249
   40MOL   H142 7240   0.752   4.944   1.927  0.9472  0.1632 -1.3824
   40MOL   H143 7241   0.586   5.056   2.075 -1.8959 -1.9096 -0.2623
   40MOL   H144 7242   0.656   5.180   1.987 -2.0668  1.5194  2.2751
   40MOL   H145 7243   0.501   5.119   1.930 -0.3255 -1.2066 -0.1718
   40MOL   C146 7244   0.702   5.054   1.516  0.1241 -0.6274  0.4377
   40MOL   C147 7245   0.601   5.159   1.458  0.0428 -0.6513  0.2796
   40MOL   C148 7246   0.741   4.930   1.428 -0.2758 -0.2231  0.2968
   40MOL   O149 7247   0.737   4.809   1.466  0.5612 -0.5602  0.4851
   40MOL   O150 7248   0.764   4.969   1.305 -0.3068  0.3149 -0.0831
   40MOL   H151 7249   0.795   5.110   1.525  0.0938 -0.4511 -0.3272
   40MOL   H152 7250   0.498   5.122   1.460 -0.2080 -0.1449 -1.7362
   40MOL   H153 7251   0.603   5.245   1.525  0.0703 -1.7083  1.6570
   40MOL   H154 7252   0.629   5.202   1.361  1.5875 -0.2747  0.8751
   40MOL   C155 7253   0.812   4.875   1.213 -0.0752 -0.2830 -0.0041
   40MOL   C156 7254   0.970   4.880   1.205 -0.0868  0.1729 -0.9539
   40MOL   C157 7255   0.755   4.911   1.072  0.0955  0.7676  0.2726
   40MOL   O158 7256   0.824   4.968   0.985  0.1456 -0.1047 -0.1217
   40MOL   O159 7257   0.633   4.861   1.054  0.6876  0.0122 -0.0712
   40MOL   H160 7258   0.791   4.769   1.227 -0.6838 -0.1393  0.1548
   40MOL   H161 7259   1.011   4.876   1.104  0.0469 -1.3467 -0.8587
   40MOL   H162 7260   0.998   4.975   1.250 -2.1002  0.4179 -0.1689
   40MOL   H163 7261   1.023   4.804   1.264  1.2340  0.4711 -1.7296
   40MOL   C164 7262   0.556   4.886   0.933  0.0852  0.2485 -0.5863
   40MOL   C165 7263   0.588   4.777   0.822  0.2262  0.6307  0.6576
   40MOL   C166 7264   0.558   5.027   0.891  0.0511  0.5467  0.2430
   40MOL   O167 7265   0.472   5.101   0.940  0.1122  0.0747 -0.2648
   40MOL   O168 7266   0.650   5.074   0.803 -0.1183 -0.4198 -0.2843
   40MOL   H169 7267   0.455   4.861   0.965  1.1624 -0.6327  2.3145
   40MOL   H170 7268   0.694   4.762   0.800  0.4998  0.8171  1.8281
   40MOL   H171 7269   0.552   4.678   0.849  1.2205 -0.2869 -1.2917
   40MOL   H172 7270   0.532   4.800   0.731 -1.3637 -2.0576  0.9225
   40MOL   C173 7271   0.665   5.210   0.784 -0.3519  0.4502 -0.1947
   40MOL   C174 7272   0.562   5.255   0.679 -0.0078 -0.4669  0.0624
   40MOL   C175 7273   0.809   5.227   0.735 -0.0441 -0.4692 -0.4582
   40MOL   O176 7274   0.840   5.284   0.628  0.2077  0.9904  0.0775
   40MOL   O177 7275   0.892   5.174   0.827  0.4882 -0.5179  0.1064
   40MOL   H178 7276   0.654   5.254   0.883 -0.6818  1.2289 -0.5744
   40MOL   H179 7277   0.582   5.217   0.579  0.8211  0.2981 -0.0677
   40MOL   H180 7278   0.466   5.217   0.712  0.3870 -0.2502  1.5026
   40MOL   H181 7279   0.546   5.361   0.659  1.0574 -0.0654  1.2606
   40MOL   H182 7280   0.841   5.127   0.892  0.5123 -0.4100  0.2018
   41MOL     C1 7281   2.112   4.605   6.848  0.2283  1.0955  0.2993
   41MOL     C2 7282   2.011   4.599   6.962  0.1754  0.0248  0.3164
   41MOL     C3 7283   2.072   4.548   6.714 -0.4330  0.5653 -0.5972
   41MOL     O4 7284   1.956   4.554   6.677  0.2189 -0.5575 -0.0575
   41MOL     O5 7285   2.169   4.484   6.650  0.1278 -0.2030  0.4088
   41MOL     H6 7286   2.147   4.707   6.829  0.9246  0.7702 -0.1626
   41MOL     H7 7287   1.922   4.659   6.942 -0.1554 -0.5902 -0.0952
   41MOL     H8 7288   1.986   4.497   6.990  1.5497 -1.0442 -2.2049
   41MOL     H9 7289   2.059   4.648   7.046  0.0420  1.8130 -0.6212
   41MOL    H10 7290   2.204   4.552   6.874  1.3248  3.0944  0.6737
   41MOL    C11 7291   2.163   4.457   6.513 -0.0099 -0.7729 -0.0163
   41MOL    C12 7292   2.175   4.306   6.503  0.2405  0.0739 -0.1099
   41MOL    C13 7293   2.272   4.529   6.439 -0.1447  0.1717  0.0480
   41MOL    O14 7294   2.333   4.468   6.354  0.2482  0.2126  1.0580
   41MOL    O15 7295   2.295   4.656   6.480  0.1657  0.5738  0.3897
   41MOL    H16 7296   2.077   4.506   6.468  1.6355  2.1639 -0.0907
   41MOL    H17 7297   2.081   4.261   6.535  0.1832  0.2121 -0.0808
   41MOL    H18 7298   2.172   4.290   6.395 -2.5300  0.0917 -0.0854
   41MOL    H19 7299   2.256   4.256   6.555  0.0908  0.0325  0.0838
   41MOL    C20 7300   2.381   4.744   6.416  0.2273 -1.0997 -0.3466
   41MOL    C21 7301   2.531   4.704   6.436  0.1114  1.1059 -0.5135
   41MOL    C22 7302   2.355   4.888   6.468 -1.3015 -0.2937  0.1739
   41MOL    O23 7303   2.448   4.966   6.478 -0.3581 -0.5690  0.0500
   41MOL    O24 7304   2.229   4.908   6.503 -0.6279  0.4155  0.9043
   41MOL    H25 7305   2.362   4.738   6.309  1.5129 -2.4618 -0.5133
   41MOL    H26 7306   2.540   4.595   6.429 -3.1997  0.7264  0.0678
   41MOL    H27 7307   2.599   4.755   6.368  1.0665  0.0343 -0.3711
   41MOL    H28 7308   2.559   4.732   6.538 -0.3285 -2.6633  0.7376
   41MOL    C29 7309   2.186   5.018   6.581 -0.1860  0.6051 -0.1236
   41MOL    C30 7310   2.167   5.144   6.502 -0.3715  0.0408 -0.2710
   41MOL    C31 7311   2.262   5.049   6.714  0.6484  0.3118  0.3633
   41MOL    O32 7312   2.269   5.160   6.758  0.8798 -0.4779  0.2464
   41MOL    O33 7313   2.323   4.946   6.765 -0.0458  0.3280  0.3652
   41MOL    H34 7314   2.085   5.003   6.620  0.2006  1.1527  1.1300
   41MOL    H35 7315   2.121   5.118   6.406 -0.6558  0.4174 -0.2393
   41MOL    H36 7316   2.100   5.215   6.551  0.0518  1.1680 -1.2876
   41MOL    H37 7317   2.262   5.192   6.477  0.0960 -0.6788  0.1186
   41MOL    C38 7318   2.387   4.961   6.891  0.0854 -0.4333  0.5699
   41MOL    C39 7319   2.488   4.840   6.889  0.1223 -0.4249  0.1856
   41MOL    C40 7320   2.293   4.955   7.005 -0.0065  0.1547 -0.3556
   41MOL    O41 7321   2.176   4.929   6.993  0.2990  0.5218  0.3325
   41MOL    O42 7322   2.345   4.993   7.118 -0.3954 -0.3595 -0.2209
   41MOL    H43 7323   2.441   5.055   6.897  0.1127 -0.2982 -1.3128
   41MOL    H44 7324   2.435   4.744   6.895  1.1792 -1.0938 -0.8617
   41MOL    H45 7325   2.559   4.828   6.807 -0.1883 -1.9501  0.1214
   41MOL    H46 7326   2.543   4.825   6.981 -0.6727 -0.9864  0.5750
   41MOL    C47 7327   2.284   5.016   7.240  0.3133  0.3001 -0.1849
   41MOL    C48 7328   2.401   5.075   7.315 -0.4361 -0.1350  0.8763
   41MOL    C49 7329   2.217   4.891   7.306 -0.2239  0.9455 -0.0650
   41MOL    O50 7330   2.283   4.795   7.337 -0.0057 -0.5671 -0.3205
   41MOL    O51 7331   2.085   4.903   7.301 -0.1352  0.2738 -0.3426
   41MOL    H52 7332   2.204   5.088   7.222  0.0199  0.1174  0.3822
   41MOL    H53 7333   2.415   5.178   7.283  1.2367 -0.6776 -0.2079
   41MOL    H54 7334   2.372   5.075   7.421 -0.6059 -0.7781  0.8312
   41MOL    H55 7335   2.482   5.002   7.309 -0.5078 -0.2704  1.4976
   41MOL    C56 7336   2.005   4.811   7.362  1.2342 -0.3005 -0.0658
   41MOL    C57 7337   1.874   4.807   7.286  0.3807  0.4632 -0.2838
   41MOL    C58 7338   1.989   4.836   7.513 -0.2862  0.0897  0.3770
   41MOL    O59 7339   2.025   4.754   7.592 -0.2360 -0.3713  0.1003
   41MOL    O60 7340   1.926   4.954   7.548  0.8296 -0.3830  0.4591
   41MOL    H61 7341   2.044   4.710   7.353 -0.2553 -0.7647 -1.4360
   41MOL    H62 7342   1.890   4.808   7.178 -2.2684 -1.1620 -0.7525
   41MOL    H63 7343   1.816   4.717   7.307 -1.4742  1.5997 -0.4017
   41MOL    H64 7344   1.813   4.895   7.307  3.0995  1.9042  1.8746
   41MOL    C65 7345   1.879   4.972   7.681 -0.3382 -0.5450  0.5539
   41MOL    C66 7346   1.788   5.090   7.687  0.0149  0.3917 -0.4009
   41MOL    C67 7347   2.003   4.995   7.772  0.0735 -0.0014 -0.4238
   41MOL    O68 7348   1.997   4.945   7.887 -0.6064  0.2941  0.2033
   41MOL    O69 7349   2.101   5.075   7.718  0.7391 -0.3502  0.7561
   41MOL    H70 7350   1.820   4.889   7.719 -2.4834  0.8702  0.3538
   41MOL    H71 7351   1.744   5.105   7.786  2.3036 -0.3205  0.7544
   41MOL    H72 7352   1.838   5.181   7.656  0.8826  0.0659  0.0281
   41MOL    H73 7353   1.713   5.068   7.611 -3.1511  0.2993  2.6504
   41MOL    C74 7354   2.212   5.114   7.791 -0.3287  0.4715  0.3802
   41MOL    C75 7355   2.277   5.233   7.713 -0.3473 -0.0574 -0.1871
   41MOL    C76 7356   2.319   5.002   7.813  0.6127 -0.7913  0.0026
   41MOL    O77 7357   2.298   4.888   7.785  0.5948  0.6127  0.3066
   41MOL    O78 7358   2.425   5.047   7.876 -0.7900 -0.6237  0.3502
   41MOL    H79 7359   2.181   5.148   7.890  0.5639 -0.6702  1.0740
   41MOL    H80 7360   2.318   5.209   7.615 -0.0533  1.6857 -0.5085
   41MOL    H81 7361   2.215   5.322   7.711  1.3042  1.1403  0.4695
   41MOL    H82 7362   2.366   5.265   7.768 -1.3258 -1.6030  2.4031
   41MOL    C83 7363   2.540   4.962   7.866  0.5003 -0.4017 -0.1498
   41MOL    C84 7364   2.652   5.021   7.953  0.5289 -0.0420  0.2663
   41MOL    C85 7365   2.601   4.951   7.719 -0.1792  0.1240 -0.1759
   41MOL    O86 7366   2.566   5.035   7.631 -0.1864  0.0538  0.0378
   41MOL    O87 7367   2.697   4.859   7.704  0.5193  0.2448  0.5789
   41MOL    H88 7368   2.519   4.858   7.893  1.1271 -0.9388 -1.6759
   41MOL    H89 7369   2.710   5.100   7.905  0.8633 -0.6313 -0.3122
   41MOL    H90 7370   2.606   5.065   8.042 -0.4595 -0.2103 -0.1608
   41MOL    H91 7371   2.721   4.942   7.984 -1.2660 -1.5755  0.4209
   41MOL    C92 7372   2.760   4.821   7.585  0.3180  0.0653  0.0319
   41MOL    C93 7373   2.746   4.668   7.578 -0.1522  0.7277  0.3061
   41MOL    C94 7374   2.902   4.878   7.591  0.0245  0.2033 -0.5100
   41MOL    O95 7375   2.939   4.958   7.512  0.3194 -0.8269 -0.9268
   41MOL    O96 7376   2.971   4.835   7.702 -0.3810  0.4983 -0.6791
   41MOL    H97 7377   2.705   4.870   7.505  1.4124  1.7422  0.2908
   41MOL    H98 7378   2.783   4.628   7.484  1.3426  1.3998  0.5922
   41MOL    H99 7379   2.811   4.608   7.643  1.5513 -0.4686 -2.4353
   41MOL   H100 7380   2.641   4.643   7.594 -0.2713 -0.1015 -1.6969
   41MOL   C101 7381   3.113   4.846   7.712  0.2900  0.3855 -0.7271
   41MOL   C102 7382   3.151   4.735   7.813  0.4563 -0.5042  0.6863
   41MOL   C103 7383   3.165   4.988   7.752 -0.1950 -0.9736  0.2671
   41MOL   O104 7384   3.173   5.029   7.870  0.1657  0.0426 -0.2282
   41MOL   O105 7385   3.217   5.051   7.645 -0.2061 -0.3377  0.6981
   41MOL   H106 7386   3.163   4.826   7.618  2.7511  2.8343 -0.0027
   41MOL   H107 7387   3.098   4.752   7.907  1.7336  0.8061  1.1962
   41MOL   H108 7388   3.118   4.642   7.766 -0.9457  0.8556 -1.1265
   41MOL   H109 7389   3.258   4.734   7.833  0.7420  0.2997 -0.7062
   41MOL   C110 7390   3.299   5.167   7.660  0.0405 -0.2172  1.0148
   41MOL   C111 7391   3.313   5.230   7.518 -0.2528 -0.2721  0.0811
   41MOL   C112 7392   3.431   5.141   7.731 -0.4766  0.1694 -0.0452
   41MOL   O113 7393   3.472   5.023   7.756 -0.0003  0.0417 -0.2166
   41MOL   O114 7394   3.508   5.253   7.740 -0.3801  0.3683  0.5751
   41MOL   H115 7395   3.253   5.238   7.729 -1.2748  0.4468 -0.5203
   41MOL   H116 7396   3.351   5.333   7.518 -0.3618 -0.2304  0.9818
   41MOL   H117 7397   3.374   5.165   7.455  0.3968 -0.4597  0.8873
   41MOL   H118 7398   3.218   5.240   7.466 -0.3757  2.2157  0.7296
   41MOL   C119 7399   3.633   5.244   7.800 -0.4275 -0.6638 -0.3168
   41MOL   C120 7400   3.668   5.372   7.873 -0.0519  1.2721  0.3017
   41MOL   C121 7401   3.740   5.205   7.699  0.1130  0.8479 -0.3428
   41MOL   O122 7402   3.815   5.106   7.716  0.3578  0.1537 -0.4116
   41MOL   O123 7403   3.741   5.283   7.594  0.4715 -0.0449 -0.3902
   41MOL   H124 7404   3.629   5.164   7.874 -1.9690  0.5877  0.9746
   41MOL   H125 7405   3.581   5.395   7.935 -0.8293  1.8474 -0.9785
   41MOL   H126 7406   3.749   5.345   7.941 -0.3745  0.3268  0.3220
   41MOL   H127 7407   3.696   5.454   7.807 -1.3382  0.3104 -1.4805
   41MOL   C128 7408   3.795   5.244   7.472  0.6456  0.4890  0.6322
   41MOL   C129 7409   3.770   5.359   7.368 -0.0847 -0.4805  0.3998
   41MOL   C130 7410   3.742   5.119   7.401  0.2440 -0.2872 -0.0895
   41MOL   O131 7411   3.638   5.063   7.438 -0.1713  0.3201  0.1729
   41MOL   O132 7412   3.817   5.071   7.302  0.0288 -0.5280 -0.0898
   41MOL   H133 7413   3.902   5.228   7.485  0.6999 -0.0146 -0.3524
   41MOL   H134 7414   3.814   5.455   7.393  2.7419 -0.8337 -2.8615
   41MOL   H135 7415   3.797   5.337   7.265 -1.7671  0.0758 -0.1869
   41MOL   H136 7416   3.663   5.372   7.348 -0.1038 -0.7051  0.3472
   41MOL   C137 7417   3.784   4.955   7.238 -0.4950 -0.2981  0.6330
   41MOL   C138 7418   3.900   4.877   7.187 -0.1707 -0.0275 -0.3053
   41MOL   C139 7419   3.677   4.994   7.126  0.7061  0.6513 -0.0625
   41MOL   O140 7420   3.620   5.099   7.127  0.2557  0.3023 -0.9003
   41MOL   O141 7421   3.646   4.901   7.028  0.5060 -0.3065  0.2228
   41MOL   H142 7422   3.734   4.886   7.306 -0.4996 -2.0529 -1.1075
   41MOL   H143 7423   3.982   4.858   7.257  1.0588 -0.2600 -1.7626
   41MOL   H144 7424   3.886   4.777   7.144 -0.1807 -0.9817  1.8808
   41MOL   H145 7425   3.946   4.936   7.107  0.8054  2.2023  1.8538
   41MOL   C146 7426   3.560   4.936   6.924 -1.0448 -0.5492  1.0147
   41MOL   C147 7427   3.506   4.807   6.869 -0.0615 -0.3164  0.4288
   41MOL   C148 7428   3.624   5.014   6.809 -0.0035 -0.1953 -0.1343
   41MOL   O149 7429   3.749   5.009   6.788 -0.2351 -0.4574  0.1283
   41MOL   O150 7430   3.536   5.088   6.736 -0.1324 -0.0992 -0.0331
   41MOL   H151 7431   3.470   4.981   6.964 -0.3803 -1.4594  3.6391
   41MOL   H152 7432   3.411   4.812   6.816  0.5178 -0.0212 -0.5942
   41MOL   H153 7433   3.573   4.755   6.800 -0.8703  1.2308 -1.5655
   41MOL   H154 7434   3.509   4.726   6.943 -2.1365 -2.4269 -1.7276
   41MOL   C155 7435   3.577   5.168   6.632 -0.1215 -0.0434 -0.0464
   41MOL   C156 7436   3.455   5.258   6.598  0.3900 -0.5860 -0.1894
   41MOL   C157 7437   3.624   5.088   6.510  0.2106  0.0002  0.3828
   41MOL   O158 7438   3.621   4.965   6.502 -0.5498 -0.1627  0.2235
   41MOL   O159 7439   3.662   5.164   6.406 -0.1640  0.0960 -0.5808
   41MOL   H160 7440   3.661   5.229   6.666  0.4776  0.2099 -1.9254
   41MOL   H161 7441   3.440   5.339   6.670 -0.9784 -0.9028 -0.1101
   41MOL   H162 7442   3.459   5.309   6.502 -1.0656  0.9605  0.5486
   41MOL   H163 7443   3.364   5.201   6.580 -0.2603  0.0431  1.0248
   41MOL   C164 7444   3.736   5.104   6.297  0.7397  0.4934 -0.3283
   41MOL   C165 7445   3.799   5.219   6.221  0.3576  0.0526  0.8467
   41MOL   C166 7446   3.633   5.026   6.201  0.2205 -0.0208 -0.0150
   41MOL   O167 7447   3.637   4.902   6.188 -0.3252  0.6412  0.0605
   41MOL   O168 7448   3.541   5.109   6.145  0.5831 -0.1531  0.4061
   41MOL   H169 7449   3.814   5.033   6.324  0.8761 -0.8963 -3.9928
   41MOL   H170 7450   3.873   5.263   6.288  1.1809  1.2482 -0.7990
   41MOL   H171 7451   3.845   5.172   6.134  1.2910  1.6258  0.4551
   41MOL   H172 7452   3.733   5.299   6.185 -0.3657 -0.9960 -0.1773
   41MOL   C173 7453   3.432   5.045   6.079  0.0455 -0.6432 -0.7304
   41MOL   C174 7454   3.448   5.069   5.926 -0.5445 -0.3727  0.0719
   41MOL   C175 7455   3.308   5.105   6.140  0.1550 -0.5619 -0.1383
   41MOL   O176 7456   3.232   5.178   6.077  0.4906  0.1110  0.7105
   41MOL   O177 7457   3.301   5.076   6.272  0.0207  0.0644  0.3396
   41MOL   H178 7458   3.421   4.940   6.108  0.6906  0.1747  2.7011
   41MOL   H179 7459   3.359   5.032   5.875 -0.6526 -0.8562  0.5952
   41MOL   H180 7460   3.467   5.175   5.912  1.5543  0.0262  4.7876
   41MOL   H181 7461   3.527   4.999   5.897  0.3586  1.0958 -1.0269
   41MOL   H182 7462   3.224   5.108   6.317 -1.2787 -3.2447  0.6293
   42MOL     C1 7463   2.119   5.019   4.628 -0.3583  0.0758  0.8198
   42MOL     C2 7464   2.077   4.891   4.556 -0.3651  0.3166  0.1449
   42MOL     C3 7465   2.209   5.109   4.538  0.6146  0.1346  0.3852
   42MOL     O4 7466   2.157   5.202   4.481  1.1732 -0.8186 -0.0014
   42MOL     O5 7467   2.334   5.084   4.533  0.3104  0.0319  0.2037
   42MOL     H6 7468   2.030   5.074   4.659 -1.3816 -1.0457 -0.0973
   42MOL     H7 7469   2.159   4.842   4.505  2.3609  3.3095  1.4594
   42MOL     H8 7470   2.044   4.828   4.639 -1.3090  0.7128  0.0839
   42MOL     H9 7471   1.988   4.899   4.494  0.2985 -1.5567 -1.0798
   42MOL    H10 7472   2.175   4.988   4.715  0.8717  3.2123  1.2312
   42MOL    C11 7473   2.412   5.164   4.443 -0.0176  0.0640 -0.7553
   42MOL    C12 7474   2.542   5.084   4.436  0.0399 -0.2710  0.3009
   42MOL    C13 7475   2.455   5.307   4.504  0.7583  0.1080  0.4604
   42MOL    O14 7476   2.425   5.340   4.618  0.4011  0.5616  0.3834
   42MOL    O15 7477   2.542   5.378   4.420  0.2943 -0.4498  0.1251
   42MOL    H16 7478   2.368   5.158   4.343  0.3128 -0.5585 -0.8639
   42MOL    H17 7479   2.601   5.083   4.528  0.8720 -1.9680 -0.2195
   42MOL    H18 7480   2.513   4.980   4.419  0.5337 -0.4145  0.3389
   42MOL    H19 7481   2.609   5.120   4.359  1.5390 -0.9771  1.2451
   42MOL    C20 7482   2.603   5.494   4.474 -0.1842 -0.6418 -0.0644
   42MOL    C21 7483   2.686   5.567   4.361 -0.4158 -0.2743  0.5340
   42MOL    C22 7484   2.688   5.459   4.599  0.2125 -0.0087  0.1860
   42MOL    O23 7485   2.773   5.372   4.597  0.6407 -0.0889  0.1357
   42MOL    O24 7486   2.671   5.547   4.695 -0.4585  0.7156  0.2801
   42MOL    H25 7487   2.524   5.562   4.504 -0.8486 -1.7371  0.7061
   42MOL    H26 7488   2.610   5.601   4.291 -1.3732 -2.8383  0.2713
   42MOL    H27 7489   2.725   5.655   4.413 -1.9624  1.0875 -0.5339
   42MOL    H28 7490   2.769   5.514   4.316 -0.7819 -1.0736  0.7855
   42MOL    C29 7491   2.747   5.537   4.820 -0.2503 -0.0417  0.0609
   42MOL    C30 7492   2.688   5.641   4.916  0.2451  0.7324  0.1793
   42MOL    C31 7493   2.890   5.581   4.791  0.0500  0.6499  0.1883
   42MOL    O32 7494   2.916   5.689   4.733  0.0109  0.0961 -0.3881
   42MOL    O33 7495   2.981   5.498   4.842  0.3603 -0.0592 -0.5505
   42MOL    H34 7496   2.740   5.443   4.874  0.1061 -0.5268 -0.7289
   42MOL    H35 7497   2.729   5.612   5.013  1.0747 -0.3797 -0.4922
   42MOL    H36 7498   2.725   5.743   4.903 -2.6113  1.6651 -0.9413
   42MOL    H37 7499   2.580   5.633   4.927  0.1059 -0.3384 -1.7734
   42MOL    C38 7500   3.121   5.506   4.815  0.5800 -0.0522 -0.5468
   42MOL    C39 7501   3.158   5.487   4.661 -0.2230 -0.4706  0.0183
   42MOL    C40 7502   3.207   5.418   4.909 -0.1637  0.1802  0.0087
   42MOL    O41 7503   3.150   5.336   4.985 -0.0434  0.2402 -0.0688
   42MOL    O42 7504   3.341   5.439   4.899  0.5686  0.4994  0.2589
   42MOL    H43 7505   3.159   5.605   4.839 -2.2508  1.6049 -2.4385
   42MOL    H44 7506   3.134   5.386   4.627 -3.9950  0.8981 -1.6493
   42MOL    H45 7507   3.103   5.558   4.599 -0.7873  0.2619  1.3619
   42MOL    H46 7508   3.263   5.513   4.650  0.2417 -3.0022 -2.2154
   42MOL    C47 7509   3.439   5.355   4.957  0.1691 -0.2708  0.2627
   42MOL    C48 7510   3.439   5.390   5.112  0.4702 -0.6927  0.6579
   42MOL    C49 7511   3.573   5.378   4.886  0.0967 -1.2829  0.1353
   42MOL    O50 7512   3.577   5.437   4.777 -0.7549  0.7631  0.2327
   42MOL    O51 7513   3.680   5.337   4.950  0.3867  0.2102  0.5235
   42MOL    H52 7514   3.409   5.250   4.948  0.8913 -0.3857 -0.9183
   42MOL    H53 7515   3.507   5.333   5.175 -1.3540 -1.3806  2.0357
   42MOL    H54 7516   3.474   5.493   5.116  0.3525 -0.6889  1.6395
   42MOL    H55 7517   3.345   5.388   5.168  1.6208 -0.3903  2.6472
   42MOL    C56 7518   3.801   5.388   4.905 -0.2402 -1.3590  0.2218
   42MOL    C57 7519   3.909   5.280   4.942  0.0158  0.0905  0.3276
   42MOL    C58 7520   3.836   5.515   4.991  0.0127  0.0658 -0.2540
   42MOL    O59 7521   3.763   5.561   5.083 -0.0684 -0.3802 -0.2451
   42MOL    O60 7522   3.951   5.569   4.951 -0.3603 -0.0849  0.3129
   42MOL    H61 7523   3.808   5.408   4.798  1.9258  0.7189  0.6944
   42MOL    H62 7524   3.908   5.242   5.044  0.8717  1.0316  0.6997
   42MOL    H63 7525   3.894   5.192   4.879  0.9692 -0.4934  0.8938
   42MOL    H64 7526   4.011   5.309   4.915  0.6943 -1.7024  0.9160
   42MOL    C65 7527   4.018   5.663   5.039 -0.7935 -0.6194  0.0300
   42MOL    C66 7528   4.123   5.746   4.950  0.0232 -0.4563 -0.0028
   42MOL    C67 7529   4.101   5.586   5.144  0.2966  0.2607  0.1109
   42MOL    O68 7530   4.109   5.461   5.138 -0.1694  0.0304 -0.1478
   42MOL    O69 7531   4.160   5.666   5.236  0.5647  0.1731  0.2260
   42MOL    H70 7532   3.957   5.743   5.082  2.1231  1.0327  1.2467
   42MOL    H71 7533   4.073   5.799   4.868 -0.8675  0.3511  1.0415
   42MOL    H72 7534   4.170   5.820   5.014 -0.8374  1.4339 -1.4975
   42MOL    H73 7535   4.198   5.681   4.905 -1.4565 -1.2453 -1.3883
   42MOL    C74 7536   4.269   5.630   5.316 -0.1342  0.0148  0.3536
   42MOL    C75 7537   4.300   5.744   5.412 -0.0472 -0.0341 -0.1290
   42MOL    C76 7538   4.390   5.597   5.229  0.0219 -0.5761 -0.4069
   42MOL    O77 7539   4.456   5.498   5.260  0.2099  0.8077 -0.4868
   42MOL    O78 7540   4.412   5.675   5.122 -0.4125  0.2913  0.4395
   42MOL    H79 7541   4.246   5.540   5.374 -1.5137 -0.2723 -0.6193
   42MOL    H80 7542   4.213   5.759   5.475 -1.9711  0.8196 -2.9177
   42MOL    H81 7543   4.384   5.719   5.476 -0.0343  2.6106  0.9499
   42MOL    H82 7544   4.326   5.842   5.373  3.1393 -0.6607  0.2561
   42MOL    C83 7545   4.519   5.644   5.032  0.4057  0.1829 -0.1517
   42MOL    C84 7546   4.530   5.765   4.931  0.3734 -0.5711  0.1656
   42MOL    C85 7547   4.494   5.511   4.956 -0.4303  0.2784 -0.2886
   42MOL    O86 7548   4.581   5.425   4.970  0.5938  0.2653  0.4378
   42MOL    O87 7549   4.384   5.504   4.877  0.1054 -0.0915  0.0760
   42MOL    H88 7550   4.614   5.648   5.086 -0.3080 -1.5784  1.2553
   42MOL    H89 7551   4.444   5.790   4.869  0.7518  0.3531 -0.0080
   42MOL    H90 7552   4.540   5.860   4.984 -2.8449  0.4919 -1.0375
   42MOL    H91 7553   4.625   5.740   4.883 -0.7998  0.1207 -2.6213
   42MOL    C92 7554   4.345   5.392   4.800 -0.4160  0.5359  0.1656
   42MOL    C93 7555   4.207   5.433   4.742 -0.2248  0.0013 -0.3880
   42MOL    C94 7556   4.346   5.255   4.874 -0.3931 -0.7668 -1.0314
   42MOL    O95 7557   4.418   5.166   4.837  0.1406  0.1556 -0.0368
   42MOL    O96 7558   4.275   5.251   4.989  0.8745  0.1423 -0.6501
   42MOL    H97 7559   4.415   5.392   4.716 -1.4642 -1.1201 -0.7273
   42MOL    H98 7560   4.151   5.351   4.699 -1.0161 -0.7362  2.0071
   42MOL    H99 7561   4.142   5.483   4.813  0.5733  0.0769  0.2947
   42MOL   H100 7562   4.232   5.497   4.657 -0.5257 -0.9649 -1.2190
   42MOL   C101 7563   4.268   5.147   5.078  0.6573 -1.0022  0.5005
   42MOL   C102 7564   4.398   5.121   5.154 -0.5216  0.1902  0.4754
   42MOL   C103 7565   4.211   5.018   5.011  0.1873  0.1932  0.0008
   42MOL   O104 7566   4.111   5.027   4.941 -0.3083 -0.1330 -0.1611
   42MOL   O105 7567   4.289   4.911   5.025  0.1614 -0.0939  0.0023
   42MOL   H106 7568   4.187   5.173   5.147  1.1533  1.4180  0.2033
   42MOL   H107 7569   4.456   5.213   5.160  2.5653 -1.6325 -0.2619
   42MOL   H108 7570   4.379   5.075   5.251  0.8445  2.6062  1.9381
   42MOL   H109 7571   4.472   5.055   5.109  0.2516  0.5493  1.2118
   42MOL   C110 7572   4.259   4.776   4.964  0.2093 -0.6706  0.6715
   42MOL   C111 7573   4.331   4.674   5.054  0.1232  0.0945 -0.5575
   42MOL   C112 7574   4.307   4.762   4.811  0.0746 -0.4698 -0.5036
   42MOL   O113 7575   4.401   4.689   4.764 -0.2420  0.3241 -0.5794
   42MOL   O114 7576   4.230   4.835   4.735  0.1609 -0.2876  0.4629
   42MOL   H115 7577   4.151   4.760   4.970 -0.0360 -0.5070 -2.4601
   42MOL   H116 7578   4.428   4.714   5.084 -0.5324  1.0478  0.3117
   42MOL   H117 7579   4.270   4.661   5.143  1.0596  2.0847  0.4002
   42MOL   H118 7580   4.336   4.576   5.006 -1.4672 -0.2172 -0.1379
   42MOL   C119 7581   4.264   4.845   4.597  0.7025  0.6562 -0.0027
   42MOL   C120 7582   4.172   4.957   4.551  0.0482 -0.0044  0.7390
   42MOL   C121 7583   4.226   4.717   4.515  0.2033 -0.0162 -0.1870
   42MOL   O122 7584   4.172   4.618   4.564 -0.1406 -0.1357 -0.5058
   42MOL   O123 7585   4.259   4.731   4.390 -0.1850 -0.6304 -0.1538
   42MOL   H124 7586   4.367   4.872   4.574  0.8992 -1.6889 -2.1202
   42MOL   H125 7587   4.153   5.029   4.630 -1.5915 -1.9623  2.1939
   42MOL   H126 7588   4.215   5.015   4.470  1.5526  1.1305  2.3133
   42MOL   H127 7589   4.071   4.919   4.535  0.2868 -0.7624  1.0186
   42MOL   C128 7590   4.227   4.629   4.292 -0.3779  0.5479  0.3787
   42MOL   C129 7591   4.074   4.633   4.258  0.3096 -0.8480 -0.4972
   42MOL   C130 7592   4.275   4.486   4.317 -0.2572 -0.1352  0.9814
   42MOL   O131 7593   4.200   4.389   4.293  0.2246  0.7120 -0.5389
   42MOL   O132 7594   4.409   4.492   4.358 -0.1469  0.5376  0.9034
   42MOL   H133 7595   4.283   4.665   4.206 -0.7808  0.7944  0.2135
   42MOL   H134 7596   4.021   4.622   4.352  0.4556  1.4794 -0.0950
   42MOL   H135 7597   4.043   4.723   4.204  1.9801  0.1969  0.2584
   42MOL   H136 7598   4.044   4.554   4.189  2.1651 -0.8938 -1.2839
   42MOL   C137 7599   4.474   4.377   4.401 -0.2007  0.2207 -0.5244
   42MOL   C138 7600   4.444   4.337   4.549 -0.1386  0.0947  0.2048
   42MOL   C139 7601   4.627   4.392   4.384 -0.2179  0.0065  1.0377
   42MOL   O140 7602   4.681   4.346   4.288  0.3555 -0.1468 -0.3635
   42MOL   O141 7603   4.682   4.463   4.487  0.8044  0.1568  0.4219
   42MOL   H142 7604   4.455   4.292   4.335  2.4871 -1.0667  0.3080
   42MOL   H143 7605   4.337   4.322   4.566  0.0963 -2.4444 -0.3449
   42MOL   H144 7606   4.480   4.237   4.570 -0.6077 -0.4324 -1.4147
   42MOL   H145 7607   4.486   4.406   4.623  2.7599 -1.6023  0.1846
   42MOL   C146 7608   4.821   4.484   4.504 -0.3737  0.3342 -0.2127
   42MOL   C147 7609   4.877   4.598   4.406  0.6784  0.1215 -0.0484
   42MOL   C148 7610   4.903   4.355   4.516  0.0219 -0.2218  0.2288
   42MOL   O149 7611   4.852   4.246   4.532  0.3527 -0.5097 -0.7845
   42MOL   O150 7612   5.038   4.377   4.511 -0.6718  0.5548  0.2081
   42MOL   H151 7613   4.839   4.536   4.598  0.8664 -1.6073  0.6599
   42MOL   H152 7614   4.807   4.681   4.404 -0.5256 -0.9098 -1.4377
   42MOL   H153 7615   4.978   4.635   4.426  0.2888  0.7312  0.8649
   42MOL   H154 7616   4.875   4.557   4.305  1.5108  3.1583 -1.3502
   42MOL   C155 7617   5.146   4.302   4.571  0.7024  0.0254 -0.2960
   42MOL   C156 7618   5.281   4.378   4.570  0.2531 -0.1305  0.0111
   42MOL   C157 7619   5.162   4.162   4.511  0.4065  0.0800  0.5995
   42MOL   O158 7620   5.133   4.137   4.393  0.2526  0.5592 -0.1170
   42MOL   O159 7621   5.209   4.068   4.602  0.2697  0.3816 -0.1884
   42MOL   H160 7622   5.113   4.301   4.675  1.8538  0.5866  0.0812
   42MOL   H161 7623   5.354   4.329   4.634 -1.4110 -1.7802  0.6690
   42MOL   H162 7624   5.317   4.370   4.467  0.6309  2.6568 -0.1314
   42MOL   H163 7625   5.278   4.482   4.603 -1.5458 -0.0763 -0.2972
   42MOL   C164 7626   5.214   3.930   4.565  0.0755  0.2842  0.1311
   42MOL   C165 7627   5.204   3.868   4.704  0.0552  0.3304 -0.1803
   42MOL   C166 7628   5.343   3.900   4.479  0.2624 -0.0699  0.2276
   42MOL   O167 7629   5.436   3.979   4.471  0.9581  0.5452 -0.2652
   42MOL   O168 7630   5.326   3.794   4.400  0.4355  0.5911  0.1510
   42MOL   H169 7631   5.123   3.896   4.515  0.9064 -1.4156 -0.2736
   42MOL   H170 7632   5.226   3.761   4.701 -3.4107 -0.4717  0.5763
   42MOL   H171 7633   5.274   3.917   4.772 -0.2620  0.9677 -0.3051
   42MOL   H172 7634   5.101   3.885   4.736 -0.2352  0.8930 -1.3755
   42MOL   C173 7635   5.392   3.779   4.273  0.1136  0.3343  0.3282
   42MOL   C174 7636   5.305   3.687   4.181 -0.3356  0.0209 -0.0359
   42MOL   C175 7637   5.534   3.730   4.289  0.0154  0.0181  0.1991
   42MOL   O176 7638   5.629   3.781   4.232 -0.1928  0.2115  0.4815
   42MOL   O177 7639   5.535   3.626   4.378 -0.1983  0.0906  0.5016
   42MOL   H178 7640   5.392   3.877   4.225 -1.3313  0.0437 -0.2695
   42MOL   H179 7641   5.201   3.717   4.189 -0.3021 -0.0906  0.8473
   42MOL   H180 7642   5.333   3.714   4.079 -0.7660 -0.3287 -0.2503
   42MOL   H181 7643   5.316   3.578   4.180  2.0242  0.2280 -1.5677
   42MOL   H182 7644   5.618   3.580   4.375  0.5213  1.4007  0.2727
   43MOL     C1 7645   5.414   5.329   6.258 -0.9408 -0.8976 -0.3779
   43MOL     C2 7646   5.486   5.233   6.162 -1.0101  0.0811  0.4528
   43MOL     C3 7647   5.507   5.447   6.281  0.2337 -0.3580  0.9902
   43MOL     O4 7648   5.546   5.513   6.186 -0.7917 -0.5924 -0.4820
   43MOL     O5 7649   5.537   5.461   6.412  0.4994 -0.6693 -0.3846
   43MOL     H6 7650   5.323   5.375   6.219 -0.7821  0.3332  0.6756
   43MOL     H7 7651   5.424   5.147   6.135 -2.3081  0.1932  2.8722
   43MOL     H8 7652   5.519   5.272   6.066 -3.4290  1.6204  0.2148
   43MOL     H9 7653   5.573   5.192   6.213  0.0946  1.0695 -0.6369
   43MOL    H10 7654   5.386   5.278   6.351 -1.5446  3.3183  1.8763
   43MOL    C11 7655   5.654   5.535   6.457 -0.7487 -0.5289  0.1630
   43MOL    C12 7656   5.694   5.460   6.581 -0.0500 -0.0443  0.0183
   43MOL    C13 7657   5.609   5.671   6.501 -0.3511  0.1739 -0.2760
   43MOL    O14 7658   5.639   5.774   6.438  0.4481  0.2489  0.4854
   43MOL    O15 7659   5.536   5.669   6.622 -0.3099  0.1134  0.0947
   43MOL    H16 7660   5.739   5.543   6.388  0.3102  3.0776  1.7691
   43MOL    H17 7661   5.743   5.366   6.557 -0.4754  0.0050 -1.0555
   43MOL    H18 7662   5.767   5.513   6.643 -0.2020  0.8858 -0.5920
   43MOL    H19 7663   5.606   5.437   6.641  0.1609 -0.8089  0.0391
   43MOL    C20 7664   5.475   5.788   6.679 -0.5629 -0.0683  0.2285
   43MOL    C21 7665   5.435   5.767   6.825 -0.0200 -0.0740  0.3060
   43MOL    C22 7666   5.357   5.852   6.596 -0.6669  0.3653 -0.6111
   43MOL    O23 7667   5.256   5.789   6.564 -0.2572  0.3042  0.1039
   43MOL    O24 7668   5.383   5.966   6.542 -0.1994  0.6447 -0.1752
   43MOL    H25 7669   5.558   5.858   6.691 -0.3046  0.2336 -2.8752
   43MOL    H26 7670   5.399   5.860   6.869 -0.7327  0.0532 -0.5366
   43MOL    H27 7671   5.358   5.690   6.831  0.3327 -0.5560 -1.2031
   43MOL    H28 7672   5.520   5.739   6.887  0.4625  2.4196  0.8233
   43MOL    C29 7673   5.275   6.049   6.489  0.4932  0.5106 -0.5194
   43MOL    C30 7674   5.326   6.180   6.422 -0.0531 -0.1153  0.3698
   43MOL    C31 7675   5.167   6.073   6.596 -0.3665 -0.1342  0.1473
   43MOL    O32 7676   5.051   6.047   6.578  0.5124 -0.2488 -0.3903
   43MOL    O33 7677   5.214   6.132   6.716 -0.5278 -0.1930 -0.4869
   43MOL    H34 7678   5.238   5.983   6.411  1.2269 -0.9276  0.3391
   43MOL    H35 7679   5.424   6.220   6.449 -0.5844  1.6661 -0.2262
   43MOL    H36 7680   5.330   6.174   6.314  0.8201  1.9923  0.2544
   43MOL    H37 7681   5.257   6.265   6.421  0.5716  0.3859 -0.7307
   43MOL    C38 7682   5.131   6.160   6.823  1.0416  0.3301  0.1341
   43MOL    C39 7683   5.078   6.296   6.799 -0.2240 -0.0917  0.5699
   43MOL    C40 7684   5.207   6.165   6.957 -0.6933  0.3081 -0.3910
   43MOL    O41 7685   5.154   6.195   7.067 -0.5338  0.6334 -0.0945
   43MOL    O42 7686   5.330   6.121   6.941  0.2386  0.0345  0.4838
   43MOL    H43 7687   5.048   6.089   6.823  0.8164  0.5919  0.7604
   43MOL    H44 7688   5.041   6.347   6.888 -0.7546  1.4900 -0.5346
   43MOL    H45 7689   5.143   6.356   6.735  0.1540 -1.0236  0.0741
   43MOL    H46 7690   4.994   6.292   6.729  0.3917 -0.0282 -0.1782
   43MOL    C47 7691   5.431   6.150   7.045  0.1744 -0.2917  0.8390
   43MOL    C48 7692   5.570   6.123   6.966  0.1244 -0.1982  0.2177
   43MOL    C49 7693   5.401   6.073   7.174  0.0435 -0.0172 -0.3127
   43MOL    O50 7694   5.377   6.135   7.281  0.0385  0.9847  0.2842
   43MOL    O51 7695   5.409   5.934   7.161  0.3993 -0.3249 -0.7226
   43MOL    H52 7696   5.435   6.258   7.056  0.5801 -0.2499  0.3266
   43MOL    H53 7697   5.593   6.213   6.910  0.3838  0.7065  1.7525
   43MOL    H54 7698   5.655   6.107   7.032 -0.3283  0.6146  0.9988
   43MOL    H55 7699   5.568   6.046   6.889 -0.6910  0.7729 -0.7382
   43MOL    C56 7700   5.371   5.849   7.265  0.1972  0.1289  0.0074
   43MOL    C57 7701   5.480   5.754   7.302 -0.8260  0.2592 -0.4561
   43MOL    C58 7702   5.239   5.776   7.221 -0.8408 -0.6790  0.1736
   43MOL    O59 7703   5.231   5.659   7.208 -0.1158 -0.0742 -0.2178
   43MOL    O60 7704   5.137   5.866   7.201 -0.2304  0.0945 -0.4639
   43MOL    H61 7705   5.340   5.906   7.353  2.7514  3.3135 -1.0376
   43MOL    H62 7706   5.440   5.668   7.354 -1.4494  2.2174  2.4156
   43MOL    H63 7707   5.529   5.700   7.222  2.1818  0.3030  1.2897
   43MOL    H64 7708   5.551   5.811   7.362 -1.7771  1.1378 -0.1384
   43MOL    C65 7709   5.007   5.813   7.169 -0.3326  0.4115  0.0896
   43MOL    C66 7710   4.927   5.918   7.094  0.0313 -0.3445 -0.2030
   43MOL    C67 7711   4.937   5.756   7.294 -0.6840  0.3804 -0.1889
   43MOL    O68 7712   4.898   5.642   7.299  0.1137 -0.0565 -0.0029
   43MOL    O69 7713   4.949   5.848   7.402 -0.3836 -0.0225  0.5916
   43MOL    H70 7714   5.021   5.731   7.098  1.0810  0.5187  0.2408
   43MOL    H71 7715   4.834   5.876   7.058  0.7230 -1.5996 -0.5613
   43MOL    H72 7716   4.909   6.012   7.146  0.1359 -0.1817 -0.4579
   43MOL    H73 7717   4.979   5.935   6.999 -0.6136 -0.8962 -0.6623
   43MOL    C74 7718   4.862   5.832   7.520 -0.3236 -0.0362  0.4134
   43MOL    C75 7719   4.894   5.709   7.616 -0.0862 -1.0258 -0.3667
   43MOL    C76 7720   4.717   5.838   7.484  0.4581  0.5249 -0.2239
   43MOL    O77 7721   4.627   5.767   7.530 -0.2775 -0.1553 -0.2215
   43MOL    O78 7722   4.698   5.938   7.395  0.0829  0.0840 -0.1537
   43MOL    H79 7723   4.870   5.916   7.588 -3.3005 -0.2688  1.1372
   43MOL    H80 7724   4.851   5.719   7.715  1.6232 -1.8490  0.4757
   43MOL    H81 7725   4.860   5.621   7.561 -1.2374 -0.3775 -0.7096
   43MOL    H82 7726   5.000   5.703   7.638 -0.2547  1.4720  1.4070
   43MOL    C83 7727   4.568   5.976   7.362  0.2237  0.1561  0.0914
   43MOL    C84 7728   4.525   5.918   7.226  0.2165  0.4683 -0.5964
   43MOL    C85 7729   4.580   6.129   7.345 -0.2291 -0.6683 -0.6622
   43MOL    O86 7730   4.527   6.214   7.423 -0.0187 -0.2298 -0.0028
   43MOL    O87 7731   4.656   6.172   7.237  0.0785  0.7269 -0.1732
   43MOL    H88 7732   4.499   5.959   7.444 -2.2819 -2.1761 -2.3961
   43MOL    H89 7733   4.432   5.967   7.200 -1.1608 -0.0027  3.1430
   43MOL    H90 7734   4.596   5.932   7.144  1.6074  0.4078  0.5717
   43MOL    H91 7735   4.499   5.813   7.238 -0.7226  0.5860 -1.5543
   43MOL    C92 7736   4.686   6.308   7.210 -0.3998  0.9497  0.2980
   43MOL    C93 7737   4.773   6.300   7.080  0.9695  0.1257 -0.4826
   43MOL    C94 7738   4.760   6.386   7.321  0.0106  0.5278 -0.5308
   43MOL    O95 7739   4.743   6.504   7.354 -0.0707 -0.1063  0.1491
   43MOL    O96 7740   4.845   6.305   7.373 -0.4616 -0.2409 -0.3260
   43MOL    H97 7741   4.596   6.364   7.183 -0.4535  0.3387 -0.7659
   43MOL    H98 7742   4.846   6.223   7.107 -1.2083 -1.2569  1.7562
   43MOL    H99 7743   4.711   6.262   6.999  0.3552 -1.1034  0.5456
   43MOL   H100 7744   4.814   6.397   7.054 -2.8141  1.3808 -2.0239
   43MOL   C101 7745   4.932   6.343   7.473 -0.3829 -0.0367  0.0544
   43MOL   C102 7746   5.068   6.298   7.417  0.4271 -0.9422  0.2740
   43MOL   C103 7747   4.893   6.269   7.600  0.2320  0.3931 -0.0453
   43MOL   O104 7748   4.974   6.198   7.657 -0.0841 -0.2261 -0.1742
   43MOL   O105 7749   4.773   6.299   7.648  0.0092 -0.0540 -0.4989
   43MOL   H106 7750   4.927   6.451   7.488 -0.9895  0.2603 -2.0298
   43MOL   H107 7751   5.095   6.368   7.338 -0.5474 -1.4657 -0.5414
   43MOL   H108 7752   5.154   6.301   7.484 -0.3907 -0.9525  1.3380
   43MOL   H109 7753   5.067   6.201   7.368 -0.3891 -0.5397 -0.5238
   43MOL   C110 7754   4.727   6.222   7.760 -0.6598  0.7301 -1.0576
   43MOL   C111 7755   4.636   6.109   7.714  0.3116 -0.3751  0.5208
   43MOL   C112 7756   4.655   6.303   7.868 -0.5876  0.3909  0.6812
   43MOL   O113 7757   4.531   6.319   7.870  0.1459  0.1387  0.0821
   43MOL   O114 7758   4.742   6.340   7.965  0.1067 -0.2756  0.3808
   43MOL   H115 7759   4.810   6.172   7.811 -1.1503 -0.9460 -1.8679
   43MOL   H116 7760   4.638   6.025   7.784 -0.6982 -0.9123 -0.0973
   43MOL   H117 7761   4.531   6.134   7.700  0.0465 -1.9734 -0.4538
   43MOL   H118 7762   4.677   6.072   7.621  1.3855  0.6799  0.5543
   43MOL   C119 7763   4.689   6.427   8.070  0.6827  0.3718  0.5819
   43MOL   C120 7764   4.810   6.500   8.142  0.4756 -0.9605 -0.5483
   43MOL   C121 7765   4.612   6.340   0.031 -0.5035 -0.5551  0.2689
   43MOL   O122 7766   4.625   6.222   0.061  0.6088 -0.1288  0.1822
   43MOL   O123 7767   4.524   6.427   0.093  0.1960  0.0218 -0.2005
   43MOL   H124 7768   4.608   6.491   8.036  0.2255 -0.4010  0.2181
   43MOL   H125 7769   4.853   6.572   8.072 -2.0661  1.2638  0.1008
   43MOL   H126 7770   4.772   6.543   0.087  0.9150 -1.4676 -0.1328
   43MOL   H127 7771   4.888   6.432   0.029  1.2199  0.7486  1.2322
   43MOL   C128 7772   4.466   6.391   0.215 -0.6061 -0.9362  0.0046
   43MOL   C129 7773   4.333   6.467   0.239  0.4683 -0.0619  0.0159
   43MOL   C130 7774   4.563   6.416   0.335  0.4290  0.1773  0.5790
   43MOL   O131 7775   4.576   6.336   0.432 -0.2945  0.2657  0.3844
   43MOL   O132 7776   4.623   6.539   0.328 -0.1412  0.0767 -0.6927
   43MOL   H133 7777   4.442   6.285   0.222 -0.7457 -0.8742  0.5173
   43MOL   H134 7778   4.264   6.433   0.162 -0.3653  0.2803  0.6109
   43MOL   H135 7779   4.296   6.436   0.336  3.4533 -0.1083  1.1985
   43MOL   H136 7780   4.336   6.576   0.239 -0.8704 -0.0190 -0.5991
   43MOL   C137 7781   4.713   6.582   0.432 -0.1059  0.8999 -0.6651
   43MOL   C138 7782   4.740   6.737   0.407 -0.4043  0.3567 -0.2354
   43MOL   C139 7783   4.847   6.497   0.444 -0.0716  0.0970  0.3287
   43MOL   O140 7784   4.885   6.457   0.556  0.7401  0.6390  0.1822
   43MOL   O141 7785   4.894   6.473   0.322  0.4245 -0.1441  0.1463
   43MOL   H142 7786   4.656   6.568   0.524  0.5564 -1.1417 -0.5391
   43MOL   H143 7787   4.778   6.796   0.491 -0.6768 -1.2509  1.0521
   43MOL   H144 7788   4.810   6.752   0.325  0.4008  2.0652  0.7386
   43MOL   H145 7789   4.643   6.780   0.385 -0.6590  1.2863  2.4759
   43MOL   C146 7790   5.013   6.391   0.307  0.8516 -0.3877 -0.1408
   43MOL   C147 7791   5.122   6.478   0.237  0.1673  0.1455  0.2105
   43MOL   C148 7792   4.980   6.256   0.241  0.3022  0.8334 -0.6166
   43MOL   O149 7793   4.866   6.208   0.240  0.5320 -0.3737 -0.2159
   43MOL   O150 7794   5.091   6.191   0.193 -0.4427 -0.3846 -1.1687
   43MOL   H151 7795   5.059   6.368   0.404 -0.5567  1.3821  0.9589
   43MOL   H152 7796   5.086   6.517   0.142  1.0624 -0.3963 -0.3587
   43MOL   H153 7797   5.154   6.554   0.308  1.0019  0.4143 -0.4535
   43MOL   H154 7798   5.201   6.409   0.206 -1.8090 -2.4719  0.7861
   43MOL   C155 7799   5.080   6.070   0.116 -0.4779  0.0967  0.0768
   43MOL   C156 7800   5.205   5.986   0.137 -0.2423  0.6279  0.7423
   43MOL   C157 7801   5.042   6.098   8.118 -0.0685 -0.3535  0.1827
   43MOL   O158 7802   4.929   6.078   8.069 -0.0982 -0.0797 -0.2862
   43MOL   O159 7803   5.146   6.152   8.054  0.6493 -0.1094  0.3831
   43MOL   H160 7804   4.996   6.020   0.163  0.8636 -3.8441 -1.5081
   43MOL   H161 7805   5.234   5.987   0.242  1.1641  3.3320  0.3770
   43MOL   H162 7806   5.181   5.885   0.105 -0.1901  1.0018 -0.5297
   43MOL   H163 7807   5.294   6.017   0.081 -1.1061  1.6326 -0.1007
   43MOL   C164 7808   5.136   6.189   7.924  0.3551 -0.7132 -0.4513
   43MOL   C165 7809   5.212   6.083   7.841  0.5546 -0.8901  0.1892
   43MOL   C166 7810   5.176   6.335   7.898  0.5794 -0.3907 -0.4173
   43MOL   O167 7811   5.172   6.415   7.992  0.2905  0.5429  0.5021
   43MOL   O168 7812   5.183   6.371   7.772  0.3850 -0.0730  0.0809
   43MOL   H169 7813   5.033   6.186   7.886 -0.5794 -0.1926  1.9413
   43MOL   H170 7814   5.158   5.990   7.826  0.2498 -0.6572 -0.1597
   43MOL   H171 7815   5.231   6.122   7.741  0.9580  1.3687  1.1119
   43MOL   H172 7816   5.308   6.058   7.885  0.0404 -1.6346  0.9017
   43MOL   C173 7817   5.216   6.509   7.743 -0.0962 -0.3344  0.2236
   43MOL   C174 7818   5.078   6.580   7.749 -0.9459 -0.1509  0.4166
   43MOL   C175 7819   5.296   6.512   7.611  0.0409 -0.1771 -0.6159
   43MOL   O176 7820   5.274   6.577   7.510  0.2244 -0.1534 -0.0366
   43MOL   O177 7821   5.405   6.442   7.621  0.0310  0.2539  0.2173
   43MOL   H178 7822   5.277   6.556   7.820  0.7390 -1.2378  0.1135
   43MOL   H179 7823   5.086   6.662   7.677 -0.5056 -1.4462 -1.0496
   43MOL   H180 7824   4.995   6.515   7.723 -1.5776 -0.0202  2.1239
   43MOL   H181 7825   5.048   6.639   7.835 -1.0983  1.7304 -0.8686
   43MOL   H182 7826   5.426   6.405   7.706 -2.4128 -1.4051  0.1427
   44MOL     C1 7827   7.312   3.838   0.128 -0.4097 -0.0543 -0.8753
   44MOL     C2 7828   7.235   3.792   0.006 -0.1286 -0.0122 -0.2072
   44MOL     C3 7829   7.363   3.723   0.220 -0.2138 -0.2827 -0.2728
   44MOL     O4 7830   7.469   3.663   0.191  0.9803  0.3841 -0.0444
   44MOL     O5 7831   7.291   3.705   0.329  0.1890  0.7152  0.1931
   44MOL     H6 7832   7.405   3.889   0.102 -0.4233 -0.6672 -2.1793
   44MOL     H7 7833   7.157   3.722   0.037  0.9026 -1.3744 -0.6496
   44MOL     H8 7834   7.190   3.875   8.099 -1.4709 -0.4272  0.2620
   44MOL     H9 7835   7.302   3.738   8.087  2.1720  0.6664  1.4996
   44MOL    H10 7836   7.258   3.915   0.183 -1.5011 -0.3040 -1.5848
   44MOL    C11 7837   7.329   3.613   0.438 -0.0587  0.2768 -0.0179
   44MOL    C12 7838   7.203   3.596   0.519 -0.6582  0.0134 -0.0417
   44MOL    C13 7839   7.445   3.676   0.518 -0.0089  0.1725  0.0228
   44MOL    O14 7840   7.556   3.621   0.510 -0.1947  0.3402 -0.0542
   44MOL    O15 7841   7.405   3.791   0.585  0.3293 -0.0558 -0.1011
   44MOL    H16 7842   7.366   3.516   0.404  2.7548  1.0988  0.5171
   44MOL    H17 7843   7.185   3.685   0.580  1.7714  2.3074 -2.5384
   44MOL    H18 7844   7.114   3.565   0.464 -0.6899  0.2042 -0.0993
   44MOL    H19 7845   7.230   3.518   0.590  0.6453  0.6087  0.1425
   44MOL    C20 7846   7.495   3.874   0.662  0.3420  0.0514 -0.3587
   44MOL    C21 7847   7.416   3.958   0.762 -0.0066  0.0231  0.2260
   44MOL    C22 7848   7.560   3.975   0.566 -0.1765  0.1183 -0.0241
   44MOL    O23 7849   7.527   3.979   0.449 -0.0648  0.1700 -0.0553
   44MOL    O24 7850   7.648   4.057   0.622 -0.1690 -0.0099  0.5479
   44MOL    H25 7851   7.567   3.807   0.709 -0.0815 -0.2173 -0.0984
   44MOL    H26 7852   7.330   3.910   0.810  0.0047 -0.0490  0.1760
   44MOL    H27 7853   7.471   4.002   0.845  0.5254 -1.1815  0.5267
   44MOL    H28 7854   7.362   4.043   0.721  2.2918  1.4655  0.1353
   44MOL    C29 7855   7.712   4.167   0.557 -0.2750 -0.1713 -0.4687
   44MOL    C30 7856   7.807   4.218   0.665 -0.5239  0.8203  0.9908
   44MOL    C31 7857   7.614   4.273   0.504  1.0927 -0.2839  0.2602
   44MOL    O32 7858   7.518   4.298   0.575 -0.0774  0.1335 -0.2975
   44MOL    O33 7859   7.642   4.324   0.386 -0.2159 -0.3362  0.3590
   44MOL    H34 7860   7.764   4.128   0.469 -1.2619 -1.4673 -0.4908
   44MOL    H35 7861   7.850   4.314   0.635  0.4626 -0.1660 -0.8431
   44MOL    H36 7862   7.761   4.210   0.763  1.2114  0.0329  1.7709
   44MOL    H37 7863   7.895   4.153   0.664 -0.3744  0.9963 -1.2053
   44MOL    C38 7864   7.574   4.438   0.334 -0.3747  0.2003 -0.2261
   44MOL    C39 7865   7.607   4.441   0.181  0.2982  0.1790  0.6864
   44MOL    C40 7866   7.611   4.572   0.395 -0.0015  0.1773  0.1031
   44MOL    O41 7867   7.705   4.594   0.468  0.0025  0.6243 -0.1010
   44MOL    O42 7868   7.520   4.668   0.363  0.2533  0.2220 -0.0267
   44MOL    H43 7869   7.466   4.426   0.333 -0.3416 -0.4130 -3.8278
   44MOL    H44 7870   7.577   4.344   0.143 -2.4681  0.9532  0.7601
   44MOL    H45 7871   7.556   4.520   0.126 -1.1291 -0.8200  0.5433
   44MOL    H46 7872   7.715   4.440   0.167  0.4274  0.6241  1.5966
   44MOL    C47 7873   7.552   4.807   0.379 -0.8996 -0.2347 -0.0292
   44MOL    C48 7874   7.406   4.865   0.386  0.3753  0.1842 -0.1992
   44MOL    C49 7875   7.638   4.865   0.272  0.0812 -0.2469 -0.6815
   44MOL    O50 7876   7.751   4.913   0.298 -0.1949 -0.3594  0.3081
   44MOL    O51 7877   7.576   4.884   0.149  0.6803  0.3693 -0.1271
   44MOL    H52 7878   7.601   4.828   0.474 -1.6764  0.2532  0.2669
   44MOL    H53 7879   7.407   4.973   0.398 -1.9486 -0.0168  2.5858
   44MOL    H54 7880   7.344   4.840   0.300 -0.2562  2.5109 -0.4544
   44MOL    H55 7881   7.349   4.830   0.472 -0.5922  1.2635 -0.3806
   44MOL    C56 7882   7.637   4.933   0.029  0.1469  0.6151  0.1541
   44MOL    C57 7883   7.524   4.986   8.083  0.2261 -0.1941  1.0707
   44MOL    C58 7884   7.725   4.826   8.113  0.5470  0.2104  1.0125
   44MOL    O59 7885   7.741   4.718   0.020 -0.0278 -0.1704 -0.1510
   44MOL    O60 7886   7.779   4.869   7.996  0.5912 -0.2415  0.4353
   44MOL    H61 7887   7.699   5.020   0.053  1.0283 -0.1033  0.5197
   44MOL    H62 7888   7.564   5.033   7.993 -2.2202 -1.2569 -0.6114
   44MOL    H63 7889   7.442   4.916   8.065  0.6256 -0.4352  0.1553
   44MOL    H64 7890   7.473   5.062   8.142 -0.9774  1.0141 -1.4677
   44MOL    C65 7891   7.858   4.798   7.900  0.6957  0.2131 -0.3646
   44MOL    C66 7892   7.782   4.727   7.788 -0.4931 -0.3341 -0.1147
   44MOL    C67 7893   7.968   4.711   7.961  0.0090  0.4480 -0.0824
   44MOL    O68 7894   7.981   4.592   7.936  0.3686  0.5789  0.1071
   44MOL    O69 7895   8.042   4.775   8.049  0.6318 -0.4669  0.2684
   44MOL    H70 7896   7.917   4.880   7.859  1.1271  1.1738  2.0959
   44MOL    H71 7897   7.729   4.809   7.740  2.0625  0.4381 -1.7657
   44MOL    H72 7898   7.839   4.659   7.724 -1.3119 -1.6168  0.4877
   44MOL    H73 7899   7.711   4.666   7.843  0.9645 -2.4489 -0.5011
   44MOL    C74 7900   0.009   4.721   8.112 -0.1818  0.0211  0.7163
   44MOL    C75 7901   0.062   4.802   0.089  0.5229  0.4683  0.0456
   44MOL    C76 7902   0.120   4.712   8.003  0.4343 -0.0900  0.0570
   44MOL    O77 7903   0.110   4.755   7.888 -0.3662 -0.0408 -0.3374
   44MOL    O78 7904   0.219   4.640   8.051 -0.5599  0.0471 -0.1442
   44MOL    H79 7905   8.135   4.623   0.008  0.3820 -0.9808 -1.2038
   44MOL    H80 7906   0.155   4.759   0.125  0.3020 -0.3603 -0.3499
   44MOL    H81 7907   0.078   4.908   0.069 -1.3738  0.9764  1.1249
   44MOL    H82 7908   8.129   4.800   0.163 -0.4216  0.6849 -0.9499
   44MOL    C83 7909   0.353   4.629   7.991 -0.2732 -0.1930  0.2808
   44MOL    C84 7910   0.448   4.579   8.103  0.2382 -0.0207  0.1572
   44MOL    C85 7911   0.404   4.767   7.945 -1.0191 -0.3079 -0.2973
   44MOL    O86 7912   0.459   4.778   7.835 -0.1797 -0.2611 -0.3455
   44MOL    O87 7913   0.386   4.856   8.045 -0.5064  0.8103 -0.1462
   44MOL    H88 7914   0.333   4.571   7.901 -1.4165 -0.0023  0.4119
   44MOL    H89 7915   0.519   4.647   0.001 -1.0592  0.6059  1.2871
   44MOL    H90 7916   0.395   4.547   0.046 -1.2781  3.0589  0.4131
   44MOL    H91 7917   0.509   4.499   8.061 -0.7020 -0.6307 -0.0776
   44MOL    C92 7918   0.446   4.986   8.048 -0.5399 -0.5185 -1.0678
   44MOL    C93 7919   0.394   5.041   0.036  0.2278 -0.4696 -0.3049
   44MOL    C94 7920   0.407   5.072   7.926 -0.3479 -0.3929  0.3355
   44MOL    O95 7921   0.488   5.155   7.879  0.0176 -0.3483  0.2583
   44MOL    O96 7922   0.279   5.042   7.878  0.7392 -0.5137 -0.0722
   44MOL    H97 7923   0.555   4.978   8.048 -0.4557 -0.2453  2.8086
   44MOL    H98 7924   0.432   4.988   0.124 -1.6655  0.6008  1.1937
   44MOL    H99 7925   0.444   5.138   0.044 -1.1416 -0.0109  4.1115
   44MOL   H100 7926   0.286   5.047   0.048 -0.1634 -1.0296 -3.2807
   44MOL   C101 7927   0.222   5.112   7.764  0.0948  0.1893 -0.3867
   44MOL   C102 7928   0.082   5.167   7.795 -0.1094 -0.3024  0.3537
   44MOL   C103 7929   0.220   5.026   7.634 -0.3233  0.6382 -0.7595
   44MOL   O104 7930   0.300   5.046   7.544 -0.1201  0.1419 -0.0724
   44MOL   O105 7931   0.114   4.938   7.623  0.1222  0.7666  0.1606
   44MOL   H106 7932   0.278   5.200   7.734 -1.3501  1.0255 -0.6757
   44MOL   H107 7933   0.019   5.105   7.858  2.3119 -0.9243  2.2569
   44MOL   H108 7934   0.089   5.266   7.840  3.1001  1.5754 -3.8653
   44MOL   H109 7935   0.023   5.186   7.706 -0.7594  1.3532  1.1208
   44MOL   C110 7936   0.085   4.868   7.502 -0.6991 -0.3762 -0.3795
   44MOL   C111 7937   0.013   4.963   7.404 -0.1230 -0.3627 -0.2503
   44MOL   C112 7938   0.005   4.746   7.539 -0.0331 -0.1586  0.5898
   44MOL   O113 7939   8.028   4.738   7.526 -0.3777  0.1049  0.1801
   44MOL   O114 7940   0.077   4.649   7.601  0.4963 -0.4539  0.1961
   44MOL   H115 7941   0.178   4.830   7.461 -0.1951  1.8770 -1.3845
   44MOL   H116 7942   0.071   5.049   7.372 -1.6245  0.0020 -2.1361
   44MOL   H117 7943   8.114   4.918   7.316  1.9877 -0.9372 -1.0834
   44MOL   H118 7944   8.083   5.008   7.466 -0.4071 -2.1391  0.7070
   44MOL   C119 7945   0.018   4.521   7.612  0.2465 -0.4463 -0.4327
   44MOL   C120 7946   0.094   4.448   7.727  0.4668  0.5303 -0.8097
   44MOL   C121 7947   0.041   4.440   7.482 -0.1427 -0.3441  0.0064
   44MOL   O122 7948   8.093   4.416   7.402 -0.2492  0.2187  0.0620
   44MOL   O123 7949   0.172   4.408   7.454  0.4412 -0.0231 -0.6153
   44MOL   H124 7950   8.057   4.523   7.627  0.3277  1.2143  0.1026
   44MOL   H125 7951   0.085   4.340   7.719 -0.9556  0.4705  1.1953
   44MOL   H126 7952   0.200   4.474   7.729  1.2767 -2.5520 -1.4777
   44MOL   H127 7953   0.065   4.476   7.829  3.2070 -0.9099  0.4273
   44MOL   C128 7954   0.220   4.376   7.327 -0.2340  0.1382 -0.3484
   44MOL   C129 7955   0.210   4.516   7.252 -0.9664 -0.6222  0.1461
   44MOL   C130 7956   0.145   4.258   7.262  0.4130  0.0162  0.1293
   44MOL   O131 7957   0.105   4.160   7.325  0.5685  0.0956  0.7396
   44MOL   O132 7958   0.144   4.272   7.121 -0.1383  0.4616  0.3144
   44MOL   H133 7959   0.326   4.351   7.327 -0.3608 -0.5411 -2.7111
   44MOL   H134 7960   0.275   4.588   7.303 -0.9774  0.1481 -0.9247
   44MOL   H135 7961   0.238   4.510   7.147 -0.0315  1.4366  0.2612
   44MOL   H136 7962   0.109   4.556   7.262 -1.2627 -1.0936 -0.9168
   44MOL   C137 7963   0.066   4.182   7.031 -0.2666 -0.6829 -0.6385
   44MOL   C138 7964   0.150   4.158   6.902  0.1366 -0.6370  0.1973
   44MOL   C139 7965   8.069   4.232   7.001 -0.0495  0.2096  1.1978
   44MOL   O140 7966   7.990   4.165   6.930  0.9317 -0.1387 -0.1470
   44MOL   O141 7967   8.043   4.335   7.075 -0.2257  0.0300  0.0321
   44MOL   H142 7968   0.046   4.086   7.077  0.6473 -1.0376 -0.9682
   44MOL   H143 7969   0.095   4.109   6.822 -0.7638  0.5066  0.0944
   44MOL   H144 7970   0.178   4.249   6.848  0.5517 -1.0224 -0.2460
   44MOL   H145 7971   0.245   4.108   6.920  0.2774 -0.0540  1.0811
   44MOL   C146 7972   7.911   4.401   7.060 -0.0146 -0.3789  0.6439
   44MOL   C147 7973   7.938   4.548   7.100  0.0478 -0.4375  0.2626
   44MOL   C148 7974   7.802   4.327   7.147 -0.2816 -0.0213 -0.4753
   44MOL   O149 7975   7.700   4.271   7.098 -0.6229 -0.1539 -0.2427
   44MOL   O150 7976   7.833   4.350   7.279 -0.0946  0.5773 -0.0765
   44MOL   H151 7977   7.887   4.405   6.954  1.2379  0.8216  0.3930
   44MOL   H152 7978   8.003   4.566   7.186 -2.0544  4.0899  1.0747
   44MOL   H153 7979   7.999   4.600   7.026 -2.5925 -0.2428 -1.8914
   44MOL   H154 7980   7.850   4.613   7.108  0.4911  0.1899  0.1343
   44MOL   C155 7981   7.743   4.316   7.389  0.0526  0.9776 -0.1390
   44MOL   C156 7982   7.804   4.381   7.511 -0.4207  0.4112  0.3609
   44MOL   C157 7983   7.712   4.163   7.391  0.1338 -0.3620 -0.1909
   44MOL   O158 7984   7.598   4.125   7.433 -0.0634  0.7687  0.3863
   44MOL   O159 7985   7.825   4.080   7.352  0.1328  0.2870  0.2236
   44MOL   H160 7986   7.649   4.370   7.386 -0.1058  0.6638 -2.7080
   44MOL   H161 7987   7.726   4.383   7.588  0.4853  0.0380  1.3085
   44MOL   H162 7988   7.896   4.325   7.529 -1.5509 -2.1385 -1.4877
   44MOL   H163 7989   7.814   4.488   7.493 -4.8322  1.0568  1.1984
   44MOL   C164 7990   7.804   3.935   7.338  0.6884 -0.9310 -0.4959
   44MOL   C165 7991   7.932   3.876   7.286 -0.6278 -0.0117 -0.7547
   44MOL   C166 7992   7.682   3.894   7.248 -0.3015  0.2303 -0.0020
   44MOL   O167 7993   7.604   3.802   7.277 -0.1470 -0.6915 -0.1979
   44MOL   O168 7994   7.683   3.958   7.127 -0.4356 -0.3017  0.2194
   44MOL   H169 7995   7.773   3.888   7.432 -0.2848 -0.2647 -0.4810
   44MOL   H170 7996   7.954   3.904   7.183  2.7710  0.9546  0.1642
   44MOL   H171 7997   8.020   3.914   7.338 -0.6999 -0.9098  0.0377
   44MOL   H172 7998   7.932   3.767   7.297  0.5436  0.1084  0.6648
   44MOL   C173 7999   7.591   3.928   7.023 -0.4029  0.2476 -0.0711
   44MOL   C174 8000   7.648   3.943   6.884 -0.1314  0.3456 -0.0428
   44MOL   C175 8001   7.456   4.012   7.025  0.0477  0.0571 -0.8116
   44MOL   O176 8002   7.344   3.968   7.026 -0.3025 -0.0061  0.0435
   44MOL   O177 8003   7.479   4.142   7.022  0.1683 -0.3335  0.2373
   44MOL   H178 8004   7.552   3.828   7.042 -0.7172  0.0173 -1.8362
   44MOL   H179 8005   7.695   4.041   6.876 -0.3512  0.3779 -0.9490
   44MOL   H180 8006   7.716   3.860   6.863  0.4604  0.4399  1.4734
   44MOL   H181 8007   7.581   3.933   6.799  0.4622  0.6553 -0.5557
   44MOL   H182 8008   7.571   4.148   7.044  0.1966 -1.0355  0.3003
   45MOL     C1 8009   6.874   3.192   3.870 -0.4258  1.0070  0.0095
   45MOL     C2 8010   6.858   3.330   3.815 -0.0715 -0.1469 -0.3263
   45MOL     C3 8011   7.011   3.132   3.841 -0.5860 -0.4694  0.2475
   45MOL     O4 8012   7.084   3.093   3.934  0.0323  0.3189  0.2243
   45MOL     O5 8013   7.038   3.128   3.704 -0.1897 -0.0976 -0.0474
   45MOL     H6 8014   6.860   3.191   3.979  1.5759  1.3371  0.2985
   45MOL     H7 8015   6.755   3.364   3.806  0.0508  0.8565  1.8385
   45MOL     H8 8016   6.906   3.399   3.884  1.6636  1.3191 -2.9163
   45MOL     H9 8017   6.908   3.349   3.720  0.0914 -2.1522 -0.6566
   45MOL    H10 8018   6.795   3.125   3.837  0.8383 -2.6743  3.9561
   45MOL    C11 8019   7.164   3.086   3.654  0.7198  0.3498 -0.9287
   45MOL    C12 8020   7.157   3.080   3.502 -1.0832 -0.2241  0.9859
   45MOL    C13 8021   7.202   2.948   3.713  0.5621  0.2934 -0.1915
   45MOL    O14 8022   7.300   2.925   3.781  0.0558 -0.0605  0.1208
   45MOL    O15 8023   7.113   2.853   3.675  0.5333  0.4935 -0.8389
   45MOL    H16 8024   7.235   3.164   3.685  0.5516  0.8685 -1.8221
   45MOL    H17 8025   7.102   2.992   3.471 -0.3863  0.1054 -1.3095
   45MOL    H18 8026   7.109   3.175   3.476 -0.6115 -0.2868 -0.1519
   45MOL    H19 8027   7.262   3.075   3.472 -0.7787  1.9182  1.5802
   45MOL    C20 8028   7.131   2.715   3.722  0.8059 -0.6554 -0.1930
   45MOL    C21 8029   7.045   2.624   3.629  0.1503 -0.0189 -1.3638
   45MOL    C22 8030   7.095   2.698   3.876 -0.8163  0.1587  0.5579
   45MOL    O23 8031   7.020   2.780   3.932  0.4566 -0.2773  0.1473
   45MOL    O24 8032   7.140   2.582   3.922 -0.1141 -0.1628 -0.6225
   45MOL    H25 8033   7.237   2.693   3.720  1.4474  2.0927  0.7859
   45MOL    H26 8034   6.964   2.575   3.682  0.8037  1.9822  1.5832
   45MOL    H27 8035   6.993   2.687   3.556 -2.2387 -1.8070 -1.2333
   45MOL    H28 8036   7.114   2.569   3.564  3.2812 -2.5458  3.8227
   45MOL    C29 8037   7.118   2.543   4.062  0.8395  0.4542 -0.8625
   45MOL    C30 8038   7.217   2.432   4.097 -0.2958 -0.0613 -0.3622
   45MOL    C31 8039   6.972   2.504   4.081  0.7185 -0.1086 -0.1027
   45MOL    O32 8040   6.900   2.473   3.984  0.1016 -0.3367 -0.8289
   45MOL    O33 8041   6.925   2.517   4.215  0.0589  0.0160 -0.1566
   45MOL    H34 8042   7.138   2.628   4.127  1.4067 -0.3256 -0.0123
   45MOL    H35 8043   7.225   2.360   4.015  2.2857 -0.4610  0.2133
   45MOL    H36 8044   7.320   2.465   4.106 -1.4399  3.3452  0.9440
   45MOL    H37 8045   7.192   2.380   4.189 -0.5826  1.0701  0.2016
   45MOL    C38 8046   6.798   2.479   4.263 -0.2379 -0.4557 -0.6942
   45MOL    C39 8047   6.795   2.328   4.281 -0.2073  0.0485 -0.0014
   45MOL    C40 8048   6.687   2.536   4.172  0.6443 -0.4157  0.3257
   45MOL    O41 8049   6.590   2.471   4.130 -0.4474  0.2963  0.1520
   45MOL    O42 8050   6.698   2.664   4.157  0.1302 -0.2489 -0.4797
   45MOL    H43 8051   6.784   2.528   4.359 -0.2185  1.9274 -1.8792
   45MOL    H44 8052   6.703   2.290   4.326 -1.3378  0.2408 -2.0863
   45MOL    H45 8053   6.808   2.276   4.186  0.8890  2.9317 -1.5007
   45MOL    H46 8054   6.882   2.301   4.341  0.3533  1.3126 -0.2221
   45MOL    C47 8055   6.602   2.741   4.084  0.0345 -0.2586 -0.2905
   45MOL    C48 8056   6.686   2.844   3.999  0.5314  0.5913  0.4988
   45MOL    C49 8057   6.509   2.816   4.185  0.6097  0.1176 -0.2498
   45MOL    O50 8058   6.500   2.935   4.185 -0.1948 -0.3767  0.0603
   45MOL    O51 8059   6.465   2.729   4.285 -0.4004  0.0784 -0.1943
   45MOL    H52 8060   6.532   2.693   4.015 -0.1963 -1.2570  0.6281
   45MOL    H53 8061   6.731   2.928   4.050  1.3965 -0.2377  1.1272
   45MOL    H54 8062   6.771   2.798   3.948 -1.1975  1.1924 -3.0717
   45MOL    H55 8063   6.613   2.884   3.930  0.5999 -0.2183 -0.0594
   45MOL    C56 8064   6.428   2.781   4.416 -0.1711  0.1468  0.7980
   45MOL    C57 8065   6.421   2.664   4.512  0.0161  0.1085  0.5090
   45MOL    C58 8066   6.293   2.856   4.404  0.0037  0.4306  0.1900
   45MOL    O59 8067   6.277   2.974   4.443  0.1156 -0.6177  0.3098
   45MOL    O60 8068   6.197   2.779   4.351 -0.4172 -0.3982 -0.4998
   45MOL    H61 8069   6.508   2.850   4.444  1.8511 -1.6685 -0.2864
   45MOL    H62 8070   6.364   2.695   4.600 -1.9463 -0.4136 -0.5561
   45MOL    H63 8071   6.386   2.569   4.472  0.3244 -0.0086  0.5147
   45MOL    H64 8072   6.518   2.649   4.560  0.8697  0.0335 -1.2093
   45MOL    C65 8073   6.070   2.837   4.309  0.4547  0.2210 -0.1826
   45MOL    C66 8074   5.970   2.716   4.313  0.2650 -0.2915 -0.2776
   45MOL    C67 8075   6.076   2.877   4.160  0.2983 -0.3672  0.2325
   45MOL    O68 8076   6.174   2.851   4.089 -0.1847  0.7571 -0.0166
   45MOL    O69 8077   5.967   2.949   4.118 -0.3919 -0.0046  0.0354
   45MOL    H70 8078   6.041   2.917   4.378  0.0938 -0.6442  0.6878
   45MOL    H71 8079   6.023   2.623   4.291 -1.9191 -1.2008 -1.7940
   45MOL    H72 8080   5.917   2.710   4.408 -0.7963 -1.8881 -0.9553
   45MOL    H73 8081   5.898   2.720   4.232  1.4139 -0.9101 -1.3351
   45MOL    C74 8082   5.963   3.000   3.987 -0.3916  0.0704 -0.2250
   45MOL    C75 8083   5.873   3.123   3.989 -0.0598  0.5498 -0.2299
   45MOL    C76 8084   5.926   2.892   3.883 -0.1064 -0.0977  0.0563
   45MOL    O77 8085   5.892   2.778   3.916  0.3157 -0.1860 -0.0443
   45MOL    O78 8086   5.927   2.945   3.759  0.0435 -0.0132  0.6791
   45MOL    H79 8087   6.055   3.056   3.972 -0.1066  0.1932  1.8303
   45MOL    H80 8088   5.886   3.173   3.893 -0.9292  0.9389 -0.1571
   45MOL    H81 8089   5.767   3.101   4.007 -0.3871  0.7992 -1.7932
   45MOL    H82 8090   5.899   3.194   4.068 -1.5091  0.0515  0.7097
   45MOL    C83 8091   5.865   2.880   3.636 -0.1329  0.2058  0.3552
   45MOL    C84 8092   5.876   2.980   3.516 -0.1742  0.3094 -0.9810
   45MOL    C85 8093   5.714   2.853   3.656  1.0288 -0.6025 -0.7574
   45MOL    O86 8094   5.629   2.948   3.658 -0.0042 -0.3225  0.2034
   45MOL    O87 8095   5.686   2.720   3.691 -0.3143 -0.2219  0.4117
   45MOL    H88 8096   5.921   2.789   3.616  1.5702  1.3049  0.0120
   45MOL    H89 8097   5.806   3.064   3.523  1.3526  1.5026  0.3473
   45MOL    H90 8098   5.977   3.008   3.488  0.2745  2.6930  2.7012
   45MOL    H91 8099   5.830   2.928   3.433 -0.9679  1.0814 -1.0362
   45MOL    C92 8100   5.549   2.676   3.713 -0.2531  0.0438 -0.0998
   45MOL    C93 8101   5.550   2.558   3.807  0.0661  0.4755  0.0024
   45MOL    C94 8102   5.486   2.646   3.575 -0.6496 -0.6838  0.3247
   45MOL    O95 8103   5.537   2.689   3.465 -0.2981  0.2522 -0.3245
   45MOL    O96 8104   5.370   2.574   3.587  0.8193 -0.2051  0.7258
   45MOL    H97 8105   5.498   2.757   3.765  0.4896  0.6675 -0.3242
   45MOL    H98 8106   5.615   2.483   3.762  1.4735  0.9414  1.2061
   45MOL    H99 8107   5.584   2.592   3.905 -1.4149  2.5119 -0.1466
   45MOL   H100 8108   5.447   2.525   3.817 -0.0313  0.8035  0.0723
   45MOL   C101 8109   5.285   2.542   3.470 -0.5045 -0.0518  0.5503
   45MOL   C102 8110   5.150   2.507   3.524 -0.6090 -0.3650 -0.1949
   45MOL   C103 8111   5.358   2.433   3.398  0.6295  0.5472  0.6360
   45MOL   O104 8112   5.370   2.437   3.278  0.2021 -0.0387 -0.2114
   45MOL   O105 8113   5.401   2.332   3.481  0.0542  0.2290 -0.5677
   45MOL   H106 8114   5.283   2.634   3.413  0.0376 -0.5746 -0.3243
   45MOL   H107 8115   5.083   2.484   3.441  0.4653 -2.4721 -0.4923
   45MOL   H108 8116   5.165   2.425   3.594  1.6645  1.2122  1.2618
   45MOL   H109 8117   5.113   2.598   3.571 -1.4846 -0.4703 -0.6664
   45MOL   C110 8118   5.459   2.210   3.426  0.0362  0.6270  0.4851
   45MOL   C111 8119   5.377   2.089   3.473 -1.0013 -0.6300 -0.2705
   45MOL   C112 8120   5.614   2.198   3.465  0.1654 -0.2744 -0.6924
   45MOL   O113 8121   5.662   2.110   3.532  0.4114  0.2482 -0.1263
   45MOL   O114 8122   5.684   2.304   3.427 -0.3527 -0.4871 -0.1835
   45MOL   H115 8123   5.468   2.225   3.318 -2.7469 -1.2955 -0.0558
   45MOL   H116 8124   5.362   2.085   3.581  0.8656  2.1315  0.1317
   45MOL   H117 8125   5.276   2.102   3.433 -1.4849  1.3448  1.4756
   45MOL   H118 8126   5.420   1.997   3.433  1.6193  0.8888 -0.9939
   45MOL   C119 8127   5.828   2.319   3.452  0.4648  0.5095 -0.2189
   45MOL   C120 8128   5.862   2.465   3.435 -1.0468  0.8001  0.3473
   45MOL   C121 8129   5.901   2.229   3.348 -0.0414 -0.0551  0.4588
   45MOL   O122 8130   5.882   2.246   3.227 -0.5916  0.2918  0.2202
   45MOL   O123 8131   6.003   2.152   3.398 -0.6611  0.2139  0.0915
   45MOL   H124 8132   5.855   2.283   3.551  0.2856  0.0454 -0.3381
   45MOL   H125 8133   5.794   2.535   3.484 -0.1736  0.8852  1.4420
   45MOL   H126 8134   5.965   2.484   3.465 -1.2990  0.1031  1.6366
   45MOL   H127 8135   5.866   2.497   3.330  0.4462  2.9856  1.0451
   45MOL   C128 8136   6.096   2.084   3.319 -0.4051  0.0380  0.4301
   45MOL   C129 8137   6.192   2.188   3.261  0.3022 -0.3086 -0.7765
   45MOL   C130 8138   6.031   1.989   3.219 -0.1272 -0.4457  0.1758
   45MOL   O131 8139   6.053   1.996   3.103  0.6438 -0.0438 -0.5686
   45MOL   O132 8140   5.951   1.902   3.284 -0.1662 -0.8942  0.4110
   45MOL   H133 8141   6.159   2.014   3.373 -1.6193 -1.1259  0.3345
   45MOL   H134 8142   6.278   2.147   3.206  1.1592  1.0688 -0.4863
   45MOL   H135 8143   6.148   2.249   3.183  0.0506  0.2521 -0.2048
   45MOL   H136 8144   6.228   2.253   3.341  3.1021  0.8455 -2.8640
   45MOL   C137 8145   5.894   1.783   3.213  0.0081 -0.6709  0.0795
   45MOL   C138 8146   5.794   1.703   3.304  0.2010  0.1644  0.0296
   45MOL   C139 8147   6.011   1.700   3.171 -0.1138  0.0156  0.0288
   45MOL   O140 8148   6.030   1.681   3.050  0.0797 -0.2623  0.0349
   45MOL   O141 8149   6.096   1.651   3.270 -0.0674  0.4026  0.1928
   45MOL   H142 8150   5.838   1.814   3.124 -1.3125  0.3133  1.2262
   45MOL   H143 8151   5.704   1.763   3.313  1.2609  1.7074  0.6362
   45MOL   H144 8152   5.767   1.602   3.272 -0.0273  0.4533 -0.7106
   45MOL   H145 8153   5.833   1.702   3.406 -0.7597 -1.7634  0.3924
   45MOL   C146 8154   6.219   1.582   3.239 -0.3397  0.3267  0.6265
   45MOL   C147 8155   6.194   1.431   3.223  0.1025 -0.6167  0.6248
   45MOL   C148 8156   6.320   1.615   3.351  0.3876 -0.0443 -0.4405
   45MOL   O149 8157   6.327   1.731   3.396  0.0977 -0.6189  0.1085
   45MOL   O150 8158   6.395   1.520   3.395 -0.7021  0.3077 -0.1858
   45MOL   H151 8159   6.261   1.626   3.150  1.2354 -4.7297 -1.3289
   45MOL   H152 8160   6.174   1.365   3.308  2.0922  0.7057  2.1741
   45MOL   H153 8161   6.107   1.416   3.160  0.9760  0.5402 -0.8751
   45MOL   H154 8162   6.283   1.392   3.173 -0.3241 -0.1636 -0.4875
   45MOL   C155 8163   6.494   1.531   3.494  0.1004 -0.2146 -0.1417
   45MOL   C156 8164   6.624   1.564   3.416 -0.2443  0.0194 -0.4033
   45MOL   C157 8165   6.502   1.406   3.576 -0.0160 -0.3691  0.2373
   45MOL   O158 8166   6.402   1.351   3.617  0.1925 -0.2622 -0.6269
   45MOL   O159 8167   6.619   1.351   3.583 -0.6262  0.0812  0.1102
   45MOL   H160 8168   6.471   1.610   3.566 -1.1460  1.9567 -2.8426
   45MOL   H161 8169   6.710   1.568   3.483  0.3274  1.1428 -1.1928
   45MOL   H162 8170   6.643   1.490   3.339  1.1302  0.0528 -0.1106
   45MOL   H163 8171   6.611   1.666   3.378 -0.4529  0.8880  1.8727
   45MOL   C164 8172   6.641   1.216   3.626  0.4706 -0.0739  0.1378
   45MOL   C165 8173   6.789   1.204   3.670  0.2436  0.2003  0.5977
   45MOL   C166 8174   6.608   1.117   3.511 -0.3796 -0.0129 -0.3315
   45MOL   O167 8175   6.524   1.031   3.523  0.1567 -0.0185  0.1767
   45MOL   O168 8176   6.668   1.158   3.389  0.0458  0.2457 -0.1792
   45MOL   H169 8177   6.584   1.196   3.716 -0.8384  4.8643  0.5894
   45MOL   H170 8178   6.851   1.262   3.602  1.1898 -1.0913  0.3431
   45MOL   H171 8179   6.809   1.240   3.771  2.9718  2.3456 -0.6413
   45MOL   H172 8180   6.814   1.099   3.684  0.3309  0.2936  1.1663
   45MOL   C173 8181   6.670   1.076   3.268  0.5278 -0.0409  0.0126
   45MOL   C174 8182   6.764   1.144   3.170  0.5012 -0.8995 -0.2599
   45MOL   C175 8183   6.524   1.059   3.217 -0.0610  0.3580  0.2792
   45MOL   O176 8184   6.479   0.947   3.192 -0.0075  0.2441 -0.3895
   45MOL   O177 8185   6.454   1.170   3.197 -0.2548  0.0010 -0.0601
   45MOL   H178 8186   6.720   0.983   3.296  1.5038  0.0509 -1.3170
   45MOL   H179 8187   6.867   1.147   3.207  0.4767 -1.2318 -0.1647
   45MOL   H180 8188   6.780   1.089   3.078 -0.5669 -0.9652 -0.4029
   45MOL   H181 8189   6.731   1.246   3.149  1.0585 -0.7798 -0.5769
   45MOL   H182 8190   6.363   1.153   3.178 -1.0203  1.7656  1.9009
   46MOL     C1 8191   4.236   1.155   4.704 -0.0527  0.5502  0.5179
   46MOL     C2 8192   4.110   1.093   4.640 -0.0357 -1.0197  1.0277
   46MOL     C3 8193   4.309   1.057   4.800  0.0179 -0.4712 -0.3636
   46MOL     O4 8194   4.258   0.949   4.836 -0.2080 -0.5968  0.6073
   46MOL     O5 8195   4.426   1.123   4.845 -0.2138  0.5189 -0.5281
   46MOL     H6 8196   4.309   1.190   4.631  0.2076 -0.6311  0.2127
   46MOL     H7 8197   4.148   1.031   4.559 -3.8638 -1.3390 -0.5940
   46MOL     H8 8198   4.040   1.046   4.709 -0.1934 -0.3959  1.2959
   46MOL     H9 8199   4.052   1.167   4.585 -0.5989 -1.6275  0.8100
   46MOL    H10 8200   4.207   1.241   4.766  0.1106 -0.0299  1.4000
   46MOL    C11 8201   4.518   1.070   4.942 -0.4462  0.6040 -0.0959
   46MOL    C12 8202   4.598   1.186   4.993 -0.5938 -0.1916  0.3235
   46MOL    C13 8203   4.604   0.954   4.884  0.4693  0.1555  0.0126
   46MOL    O14 8204   4.593   0.914   4.765 -0.2424  0.1080 -0.2406
   46MOL    O15 8205   4.688   0.893   4.977  0.3109 -0.2853 -0.3471
   46MOL    H16 8206   4.467   1.020   5.024 -0.0143 -0.1665 -0.2974
   46MOL    H17 8207   4.539   1.263   5.043  0.7137  0.6732  0.5726
   46MOL    H18 8208   4.679   1.161   5.063 -0.9049  1.7487  1.4209
   46MOL    H19 8209   4.652   1.231   4.910 -1.3183  1.5229  0.7706
   46MOL    C20 8210   4.761   0.773   4.946 -0.0817 -0.7538  0.0668
   46MOL    C21 8211   4.818   0.717   5.079  0.5265  0.6200  0.2570
   46MOL    C22 8212   4.875   0.799   4.846 -0.3706 -0.3341  0.1005
   46MOL    O23 8213   4.944   0.900   4.851  0.0864 -0.2046 -0.3923
   46MOL    O24 8214   4.873   0.695   4.756 -0.1697  0.7193  0.4658
   46MOL    H25 8215   4.694   0.693   4.914  0.6712 -0.9228 -1.0934
   46MOL    H26 8216   4.897   0.779   5.121  3.0290 -0.5058 -2.5653
   46MOL    H27 8217   4.743   0.694   5.155  0.8303  0.1291  0.4115
   46MOL    H28 8218   4.869   0.627   5.046 -1.7593 -0.5842 -0.1130
   46MOL    C29 8219   4.973   0.687   4.655 -0.0207 -0.8998  0.6487
   46MOL    C30 8220   5.113   0.648   4.700  0.6095  1.3384  0.7732
   46MOL    C31 8221   4.984   0.814   4.569  0.2243  0.4183  0.6810
   46MOL    O32 8222   5.084   0.886   4.574  0.2795  0.5361  0.1835
   46MOL    O33 8223   4.877   0.848   4.495 -1.0654  0.6428  0.1134
   46MOL    H34 8224   4.949   0.605   4.588  3.3024  0.0870 -1.9266
   46MOL    H35 8225   5.104   0.550   4.746  0.5315  0.0012 -2.0322
   46MOL    H36 8226   5.182   0.635   4.616 -0.7636  3.3510 -0.7188
   46MOL    H37 8227   5.161   0.716   4.771  1.6236 -0.3315  1.7065
   46MOL    C38 8228   4.856   0.988   4.462 -0.3931 -0.1431 -0.1769
   46MOL    C39 8229   4.709   1.022   4.473  0.6731  0.0113 -0.7099
   46MOL    C40 8230   4.910   1.021   4.322  0.6040 -0.0067 -0.0891
   46MOL    O41 8231   4.897   0.934   4.240  0.0124  0.0979  0.1309
   46MOL    O42 8232   4.954   1.152   4.309 -0.6134  0.0010  0.3327
   46MOL    H43 8233   4.905   1.061   4.527 -0.8602  1.3572 -1.4751
   46MOL    H44 8234   4.678   1.118   4.432 -1.6065  0.7284  2.4992
   46MOL    H45 8235   4.656   0.943   4.422 -1.1093 -1.3283  3.0226
   46MOL    H46 8236   4.679   1.025   4.578  0.5491 -0.0392 -0.7439
   46MOL    C47 8237   4.955   1.206   4.177 -0.5787  0.0456  0.0046
   46MOL    C48 8238   5.042   1.337   4.187  0.3139 -0.3991  0.2453
   46MOL    C49 8239   4.812   1.229   4.129  1.0611  0.6568  0.4045
   46MOL    O50 8240   4.717   1.219   4.204 -0.1980  0.1942 -0.1861
   46MOL    O51 8241   4.808   1.261   4.008 -0.1015  0.2406  0.2491
   46MOL    H52 8242   5.011   1.133   4.118 -2.1724 -1.4901  0.3689
   46MOL    H53 8243   4.990   1.431   4.170  1.4618  0.3701  0.9471
   46MOL    H54 8244   5.093   1.349   4.282 -0.1400 -1.2492  0.5988
   46MOL    H55 8245   5.114   1.338   4.105 -1.6360 -1.0517 -1.5111
   46MOL    C56 8246   4.693   1.292   3.942 -0.5608  0.7160  0.2758
   46MOL    C57 8247   4.711   1.212   3.811  0.5700 -0.5015  0.2622
   46MOL    C58 8248   4.691   1.443   3.918  0.3708  0.1189 -0.4784
   46MOL    O59 8249   4.674   1.501   3.810 -0.9820 -0.1042 -0.0254
   46MOL    O60 8250   4.730   1.515   4.032 -0.5582  0.7132 -0.7833
   46MOL    H61 8251   4.606   1.259   3.999 -1.3804 -0.3952 -1.5926
   46MOL    H62 8252   4.724   1.106   3.835  1.5343 -0.4716 -0.1300
   46MOL    H63 8253   4.629   1.222   3.739  0.2157 -1.2290  0.5571
   46MOL    H64 8254   4.802   1.242   3.759  1.0586  0.2701  1.5566
   46MOL    C65 8255   4.756   1.656   4.015 -0.2568 -0.7560 -0.9097
   46MOL    C66 8256   4.841   1.712   4.135  0.1389 -0.6008 -0.3443
   46MOL    C67 8257   4.623   1.734   4.008 -1.5090 -0.1577  0.4056
   46MOL    O68 8258   4.529   1.698   4.078  0.2717 -0.1285 -0.5823
   46MOL    O69 8259   4.625   1.844   3.935 -0.6056 -0.3398 -0.2925
   46MOL    H70 8260   4.809   1.678   3.922 -1.0758 -0.8243 -1.4035
   46MOL    H71 8261   4.905   1.639   4.185 -0.8624 -0.0528  1.8235
   46MOL    H72 8262   4.887   1.809   4.114 -2.3847  1.3928  2.9035
   46MOL    H73 8263   4.779   1.736   4.222  0.0414 -0.1559 -0.5342
   46MOL    C74 8264   4.515   1.935   3.926  0.3327 -0.6178  0.3665
   46MOL    C75 8265   4.511   2.009   3.794  0.3688 -0.3136  0.0687
   46MOL    C76 8266   4.540   2.030   4.039 -0.4028 -0.6338  0.8873
   46MOL    O77 8267   4.453   2.058   4.121 -0.6080 -0.1111  0.4404
   46MOL    O78 8268   4.663   2.088   4.036 -0.8397 -0.2511  0.1740
   46MOL    H79 8269   4.422   1.879   3.936  0.6084 -1.3349 -0.9567
   46MOL    H80 8270   4.614   2.035   3.767 -0.2618  1.7986 -0.3944
   46MOL    H81 8271   4.479   1.940   3.717  2.0390  0.8266 -1.6990
   46MOL    H82 8272   4.449   2.099   3.788 -1.7380 -1.6698  0.9337
   46MOL    C83 8273   4.711   2.172   4.142 -0.6516 -0.2065 -0.0506
   46MOL    C84 8274   4.840   2.253   4.112 -1.4312  0.6708  0.7213
   46MOL    C85 8275   4.720   2.104   4.278  0.8006  0.1932 -0.7199
   46MOL    O86 8276   4.777   1.996   4.287 -0.6821  0.1213 -0.6430
   46MOL    O87 8277   4.657   2.171   4.380 -0.0912 -0.3538 -0.4287
   46MOL    H88 8278   4.634   2.248   4.150  0.4807  1.0747 -0.9708
   46MOL    H89 8279   4.837   2.282   4.007  1.0235 -0.6381  0.2531
   46MOL    H90 8280   4.842   2.347   4.168  1.6824 -0.6946  3.0990
   46MOL    H91 8281   4.929   2.197   4.143 -1.5758  0.1728  0.2462
   46MOL    C92 8282   4.645   2.118   4.515 -0.0124 -0.0455  0.0122
   46MOL    C93 8283   4.774   2.077   4.589 -0.3301  0.4447  0.8626
   46MOL    C94 8284   4.530   2.019   4.524  0.1840  0.3696 -0.3221
   46MOL    O95 8285   4.524   1.928   4.441 -0.0464 -0.1592 -0.1219
   46MOL    O96 8286   4.462   2.024   4.638 -0.1161 -0.0045 -0.5861
   46MOL    H97 8287   4.604   2.200   4.575 -1.5665 -1.5379  1.0662
   46MOL    H98 8288   4.828   1.998   4.537 -0.8905 -0.5826  1.8114
   46MOL    H99 8289   4.840   2.162   4.603 -0.7522  1.0193 -0.5214
   46MOL   H100 8290   4.740   2.022   4.677 -1.0812  0.7174  0.7427
   46MOL   C101 8291   4.366   1.924   4.675  0.2357  0.8741 -0.6963
   46MOL   C102 8292   4.248   1.984   4.751 -0.4087  0.5608  0.4198
   46MOL   C103 8293   4.435   1.825   4.766 -0.0095  0.2871 -0.2241
   46MOL   O104 8294   4.553   1.842   4.793 -0.2638  0.5238 -0.2382
   46MOL   O105 8295   4.353   1.724   4.810 -0.4717 -0.2540  0.1831
   46MOL   H106 8296   4.333   1.867   4.588  0.7110 -0.2688 -0.1330
   46MOL   H107 8297   4.212   2.065   4.687  0.9554 -0.0002 -1.1111
   46MOL   H108 8298   4.167   1.913   4.765  1.0425 -1.0720  0.6711
   46MOL   H109 8299   4.273   2.025   4.849 -0.4283 -0.7199  0.9663
   46MOL   C110 8300   4.406   1.610   4.886 -0.4978 -0.2012  0.2835
   46MOL   C111 8301   4.401   1.486   4.798  0.9324 -0.2979 -0.5073
   46MOL   C112 8302   4.335   1.596   5.019  0.5461  0.3567 -0.3370
   46MOL   O113 8303   4.265   1.683   5.068 -0.3422 -0.2820  0.6466
   46MOL   O114 8304   4.362   1.480   5.075 -0.0340  0.3567 -0.0432
   46MOL   H115 8305   4.514   1.619   4.903 -0.6058  1.2680  0.2148
   46MOL   H116 8306   4.450   1.501   4.701 -0.6981  0.9340 -1.1576
   46MOL   H117 8307   4.452   1.411   4.859 -0.9479 -1.0364  0.1725
   46MOL   H118 8308   4.298   1.456   4.778  0.3144  0.1504  1.8553
   46MOL   C119 8309   4.302   1.444   5.196  0.5280  0.6523  0.8468
   46MOL   C120 8310   4.383   1.332   5.252 -0.5810  0.2881  0.0915
   46MOL   C121 8311   4.152   1.400   5.184  0.6336  0.4158 -0.5485
   46MOL   O122 8312   4.100   1.369   5.079  0.4207 -0.4019  0.1470
   46MOL   O123 8313   4.085   1.407   5.309  0.4162  0.1490 -0.2381
   46MOL   H124 8314   4.322   1.524   5.267  0.5894  1.5440 -0.1675
   46MOL   H125 8315   4.349   1.286   5.345 -0.6798 -2.3836 -1.2068
   46MOL   H126 8316   4.389   1.246   5.186  2.1360  1.5311 -1.3401
   46MOL   H127 8317   4.490   1.351   5.255 -0.2186 -1.2031 -2.2123
   46MOL   C128 8318   3.953   1.362   5.315 -0.2929 -0.7262 -1.0910
   46MOL   C129 8319   3.914   1.401   5.460 -0.0875  0.7329 -0.0858
   46MOL   C130 8320   3.943   1.205   5.298 -0.2592  0.0088  0.5974
   46MOL   O131 8321   3.849   1.149   5.248  0.8242 -0.2096  0.6075
   46MOL   O132 8322   4.053   1.142   5.342 -0.4359 -0.2898  0.0273
   46MOL   H133 8323   3.878   1.406   5.250 -2.2966 -2.3940  0.0061
   46MOL   H134 8324   3.984   1.358   5.532 -1.5171  0.4161  1.1402
   46MOL   H135 8325   3.907   1.510   5.464  1.1243  0.7726  2.0309
   46MOL   H136 8326   3.818   1.357   5.483  0.0813 -1.8545 -3.8388
   46MOL   C137 8327   4.060   0.999   5.351 -0.0403 -0.0945 -0.0084
   46MOL   C138 8328   4.176   0.989   5.451 -0.1344  0.3672  0.1148
   46MOL   C139 8329   4.094   0.941   5.208  0.0097  0.4772  0.1978
   46MOL   O140 8330   4.147   1.013   5.121  0.5018 -0.5564 -0.2141
   46MOL   O141 8331   4.063   0.803   5.202  0.0725 -0.6439 -0.1880
   46MOL   H142 8332   3.963   0.967   5.389 -0.1629  1.1204  0.7311
   46MOL   H143 8333   4.137   1.014   5.550  0.4691 -2.2993  1.0599
   46MOL   H144 8334   4.210   0.886   5.457  0.6495  0.5510 -0.9085
   46MOL   H145 8335   4.250   1.067   5.437 -0.2121  0.5562  0.7383
   46MOL   C146 8336   4.093   0.741   5.079 -0.7234  0.0523  0.5370
   46MOL   C147 8337   4.019   0.610   5.097  0.7191 -0.0087 -0.2195
   46MOL   C148 8338   4.247   0.709   5.072 -0.3534 -0.6641 -0.3172
   46MOL   O149 8339   4.324   0.774   5.141 -0.5346 -0.1571  0.5663
   46MOL   O150 8340   4.277   0.609   4.986  0.6147 -0.1580 -0.1609
   46MOL   H151 8341   4.058   0.792   4.989 -1.4123  1.0651  1.3671
   46MOL   H152 8342   4.025   0.537   5.017 -0.4264  0.9780 -1.2363
   46MOL   H153 8343   4.053   0.556   5.185 -0.5707  2.4871  1.9073
   46MOL   H154 8344   3.910   0.617   5.093  0.4476 -1.3958  3.0726
   46MOL   C155 8345   4.407   0.554   4.964  0.1711 -0.0652  0.1112
   46MOL   C156 8346   4.406   0.452   4.850 -0.2131  0.4114 -0.0627
   46MOL   C157 8347   4.482   0.515   5.091 -0.2151  0.1317  0.1949
   46MOL   O158 8348   4.606   0.502   5.100  0.1124 -0.3269 -0.0136
   46MOL   O159 8349   4.395   0.474   5.182 -0.4589 -1.0237  0.0341
   46MOL   H160 8350   4.468   0.635   4.924  0.7275 -0.3263  0.4419
   46MOL   H161 8351   4.493   0.386   4.849  0.3504  1.1327 -2.6285
   46MOL   H162 8352   4.316   0.392   4.843  1.0120 -1.3737 -0.8863
   46MOL   H163 8353   4.409   0.505   4.754 -1.2441 -1.9659 -1.4568
   46MOL   C164 8354   4.420   0.422   5.310 -0.0971  0.8445  0.4949
   46MOL   C165 8355   4.451   0.548   5.401 -0.2124  0.3928  0.5309
   46MOL   C166 8356   4.529   0.319   5.312 -0.0962  0.4172  0.7183
   46MOL   O167 8357   4.622   0.326   5.393  0.2919 -0.2540 -0.5771
   46MOL   O168 8358   4.520   0.222   5.216  0.5774 -0.8388  0.0312
   46MOL   H169 8359   4.331   0.376   5.354  0.1613  1.1723  1.3549
   46MOL   H170 8360   4.462   0.510   5.503 -2.2929  1.4716  1.1909
   46MOL   H171 8361   4.545   0.593   5.371 -0.6016  0.3303 -0.8023
   46MOL   H172 8362   4.381   0.632   5.398 -0.3264  0.2932  0.3582
   46MOL   C173 8363   4.615   0.120   5.196 -0.3644  0.2006  0.1093
   46MOL   C174 8364   4.752   0.174   5.131 -0.0019  0.2031 -0.3076
   46MOL   C175 8365   4.551   0.008   5.108  0.3354  0.1982 -0.5820
   46MOL   O176 8366   4.578   8.130   4.992 -0.1402  0.2845  0.4484
   46MOL   O177 8367   4.460   8.086   5.171 -0.7386  0.0299  0.2183
   46MOL   H178 8368   4.653   0.087   5.293  2.2445 -4.3178 -2.3411
   46MOL   H179 8369   4.741   0.202   5.026  1.5041  1.8868 -0.0485
   46MOL   H180 8370   4.787   0.263   5.184  0.3625 -0.9703  1.4528
   46MOL   H181 8371   4.842   0.113   5.130  1.7883  2.7470 -1.8303
   46MOL   H182 8372   4.442   8.030   5.097  2.0894 -2.1300  1.0947
   47MOL     C1 8373   2.242   6.560   7.495 -0.0284  0.2982  0.0924
   47MOL     C2 8374   2.184   6.424   7.507  0.2848 -0.2592 -0.3237
   47MOL     C3 8375   2.262   6.608   7.352  0.0617  0.2405  0.4669
   47MOL     O4 8376   2.177   6.676   7.300 -0.6380  0.1686 -0.1139
   47MOL     O5 8377   2.382   6.571   7.301  0.6324  0.3708 -0.0431
   47MOL     H6 8378   2.190   6.633   7.556  0.5512  1.5996 -0.9380
   47MOL     H7 8379   2.078   6.426   7.485  0.3327  0.9298 -0.4413
   47MOL     H8 8380   2.221   6.358   7.427 -3.4902 -2.1596 -0.5990
   47MOL     H9 8381   2.202   6.372   7.601 -0.4694 -0.1876 -0.1430
   47MOL    H10 8382   2.341   6.557   7.540  0.4672 -0.5453 -1.0259
   47MOL    C11 8383   2.417   6.617   7.173 -0.4039  0.3955  0.5821
   47MOL    C12 8384   2.526   6.526   7.118  0.3328 -0.4460 -0.1417
   47MOL    C13 8385   2.468   6.762   7.186 -0.0789 -0.2279  0.5559
   47MOL    O14 8386   2.431   6.848   7.105 -0.4080 -0.0112 -0.0044
   47MOL    O15 8387   2.556   6.773   7.290 -0.1084 -0.7280  0.1523
   47MOL    H16 8388   2.331   6.606   7.107 -1.2923 -0.4526  1.8567
   47MOL    H17 8389   2.555   6.535   7.013  2.7386 -0.1417  0.5211
   47MOL    H18 8390   2.614   6.549   7.177  0.1601 -2.5823  0.9788
   47MOL    H19 8391   2.497   6.424   7.141 -0.3504 -0.4408 -0.9370
   47MOL    C20 8392   2.631   6.894   7.308 -0.2749 -0.0289  0.2564
   47MOL    C21 8393   2.753   6.887   7.403  0.2641  0.8768  0.5449
   47MOL    C22 8394   2.542   7.008   7.352 -0.1068  0.3897 -1.0261
   47MOL    O23 8395   2.523   7.116   7.294 -0.2495 -0.2530 -0.5794
   47MOL    O24 8396   2.475   6.966   7.448  0.4028 -0.2920 -0.3062
   47MOL    H25 8397   2.669   6.928   7.212  1.2850 -1.6378  0.2629
   47MOL    H26 8398   2.803   6.984   7.398  0.7030  0.5718 -3.2756
   47MOL    H27 8399   2.743   6.847   7.503  0.5791 -0.1998  0.1556
   47MOL    H28 8400   2.823   6.816   7.358  0.4145  1.7009 -0.5365
   47MOL    C29 8401   2.356   7.027   7.495  0.6717 -0.3955 -0.3361
   47MOL    C30 8402   2.382   7.156   7.584  0.1846 -0.6740 -0.7868
   47MOL    C31 8403   2.270   6.924   7.572  0.0389 -0.0272  0.1556
   47MOL    O32 8404   2.315   6.824   7.626 -0.0490  0.4660 -0.0636
   47MOL    O33 8405   2.132   6.955   7.591 -0.1609 -0.2870 -0.2726
   47MOL    H34 8406   2.293   7.061   7.412  0.5841  1.7327  0.5582
   47MOL    H35 8407   2.339   7.156   7.684  0.5352 -3.3952 -0.5960
   47MOL    H36 8408   2.485   7.150   7.620 -0.2849 -0.1355  0.7006
   47MOL    H37 8409   2.366   7.248   7.529 -1.3175  0.3961  1.3774
   47MOL    C38 8410   2.048   6.865   7.669  0.4626 -0.4091 -0.3636
   47MOL    C39 8411   1.908   6.932   7.690 -0.1880  0.1950  0.3531
   47MOL    C40 8412   2.101   6.849   7.818 -0.9313  0.2833 -0.3721
   47MOL    O41 8413   2.121   6.957   7.881  0.0127 -0.3387 -0.9001
   47MOL    O42 8414   2.134   6.724   7.858 -0.0567  0.1083 -0.8231
   47MOL    H43 8415   2.028   6.767   7.625  0.2313 -1.0969  1.2221
   47MOL    H44 8416   1.919   7.036   7.721  0.8947  0.1765  0.0599
   47MOL    H45 8417   1.849   6.919   7.600  2.5194  0.2494 -1.4755
   47MOL    H46 8418   1.849   6.885   7.769 -1.8537  0.4929 -0.6742
   47MOL    C47 8419   2.197   6.706   7.986  1.1126  0.2879  0.6765
   47MOL    C48 8420   2.220   6.553   7.984 -1.4561  0.4991  0.3900
   47MOL    C49 8421   2.093   6.725   8.101  0.0610  0.2942  0.9276
   47MOL    O50 8422   1.981   6.771   8.075 -0.2617 -0.1954  0.5799
   47MOL    O51 8423   2.144   6.700   0.081 -1.0093  0.3466 -0.1455
   47MOL    H52 8424   2.295   6.744   8.013  1.5775 -0.7462  0.4799
   47MOL    H53 8425   2.123   6.503   7.976 -0.9277 -0.4858  0.1482
   47MOL    H54 8426   2.283   6.522   7.901 -0.1617  0.8339  1.2293
   47MOL    H55 8427   2.271   6.521   8.075 -0.3999  1.6183  0.2070
   47MOL    C56 8428   2.057   6.703   0.193 -0.4563 -0.0654 -0.0081
   47MOL    C57 8429   2.127   6.689   0.322  0.4207  0.5449 -0.5917
   47MOL    C58 8430   1.934   6.608   0.184  0.0083 -0.3825  0.0639
   47MOL    O59 8431   1.949   6.508   0.114 -0.2781 -0.1900  0.0334
   47MOL    O60 8432   1.829   6.634   0.268 -0.2082 -0.1815 -0.3415
   47MOL    H61 8433   2.008   6.801   0.190 -1.4707 -0.5866 -0.8125
   47MOL    H62 8434   2.067   6.696   0.412  0.8240 -1.0114 -0.1905
   47MOL    H63 8435   2.171   6.589   0.323 -0.1905  0.2560  2.9671
   47MOL    H64 8436   2.208   6.761   0.332 -0.0476  0.7765  1.6716
   47MOL    C65 8437   1.721   6.551   0.280  0.3743  0.1550  0.1549
   47MOL    C66 8438   1.598   6.637   0.329  0.2299 -0.8468 -0.0847
   47MOL    C67 8439   1.746   6.432   0.381 -0.6595  0.2882  0.5497
   47MOL    O68 8440   1.670   6.420   0.476  0.6251 -0.0202  0.5610
   47MOL    O69 8441   1.853   6.350   0.358 -0.3515  0.0238  0.2511
   47MOL    H70 8442   1.691   6.506   0.185  0.7898  0.0074  0.0958
   47MOL    H71 8443   1.513   6.568   0.339 -0.4133 -0.0494  0.0046
   47MOL    H72 8444   1.623   6.680   0.425 -0.0804  1.2577 -0.9235
   47MOL    H73 8445   1.569   6.708   0.251  1.4589 -0.0126  0.2105
   47MOL    C74 8446   1.891   6.250   0.450 -0.0335  0.1620 -0.7700
   47MOL    C75 8447   2.032   6.293   0.485  0.4017  0.5866 -0.7884
   47MOL    C76 8448   1.876   6.110   0.388 -0.2392  0.0368  0.2381
   47MOL    O77 8449   1.781   6.082   0.316  0.0023 -0.3477 -0.5993
   47MOL    O78 8450   1.977   6.020   0.399  0.1908 -0.5555 -0.6174
   47MOL    H79 8451   1.819   6.255   0.531  0.1003  1.9219 -0.7456
   47MOL    H80 8452   2.025   6.389   0.537 -1.5343  1.5816 -2.7969
   47MOL    H81 8453   2.086   6.213   0.536 -0.1821  1.2844  0.9821
   47MOL    H82 8454   2.077   6.326   0.392  0.7360  0.7281 -0.5769
   47MOL    C83 8455   1.967   5.878   0.371 -0.3327  0.2488  0.2262
   47MOL    C84 8456   1.880   5.823   0.492  0.6995  0.1142  0.3805
   47MOL    C85 8457   2.109   5.833   0.378 -0.7586  0.2985  0.6876
   47MOL    O86 8458   2.207   5.906   0.359  0.1327 -0.2257  0.1453
   47MOL    O87 8459   2.114   5.702   0.424  0.0680 -0.2304 -0.2636
   47MOL    H88 8460   1.927   5.856   0.273 -2.3885 -0.5408  1.2074
   47MOL    H89 8461   1.925   5.833   0.591  0.1003  1.7988  0.5004
   47MOL    H90 8462   1.786   5.875   0.513  0.9480  1.2496 -1.2975
   47MOL    H91 8463   1.870   5.714   0.487  1.3225  0.1081 -0.6722
   47MOL    C92 8464   2.226   5.649   0.492  0.0700 -0.2793  0.2692
   47MOL    C93 8465   2.201   5.501   0.523  0.6423 -0.2989 -0.6095
   47MOL    C94 8466   2.258   5.720   0.625 -0.3388 -0.8468  0.1107
   47MOL    O95 8467   2.169   5.780   0.693 -0.0432 -0.6751 -0.0835
   47MOL    O96 8468   2.391   5.694   0.664 -0.1840 -0.5661  0.6989
   47MOL    H97 8469   2.310   5.666   0.425  1.1102 -0.8053  1.4077
   47MOL    H98 8470   2.182   5.446   0.431  0.8125  0.8443 -1.3282
   47MOL    H99 8471   2.288   5.460   0.576 -0.9249  0.7453  2.9394
   47MOL   H100 8472   2.118   5.490   0.592  2.4731 -0.8493  1.5721
   47MOL   C101 8473   2.441   5.733   0.793  0.3891 -0.3187 -0.4825
   47MOL   C102 8474   2.592   5.715   0.785 -0.0822  0.3969  0.3056
   47MOL   C103 8475   2.380   5.658   0.909  0.0160  0.6762 -0.3211
   47MOL   O104 8476   2.359   5.699   1.023 -0.2021  0.3435 -0.3284
   47MOL   O105 8477   2.339   5.544   0.856  0.0312  0.4979  0.0411
   47MOL   H106 8478   2.414   5.837   0.809 -0.8123 -1.0334  2.3995
   47MOL   H107 8479   2.628   5.736   0.885 -1.5023  2.4081  0.4225
   47MOL   H108 8480   2.624   5.618   0.747 -0.6929 -0.0408  0.9105
   47MOL   H109 8481   2.638   5.792   0.722  2.2402 -0.6705  0.6781
   47MOL   C110 8482   2.333   5.436   0.939 -0.2170  0.3353  0.8077
   47MOL   C111 8483   2.341   5.317   0.843  0.5670 -0.7976  0.1433
   47MOL   C112 8484   2.206   5.432   1.030  0.7699  0.1398 -0.2403
   47MOL   O113 8485   2.214   5.419   1.155  0.7196 -0.5315  0.2111
   47MOL   O114 8486   2.090   5.443   0.962 -0.5437  0.2617  0.0071
   47MOL   H115 8487   2.421   5.421   1.002 -0.3075 -0.7837  0.6872
   47MOL   H116 8488   2.327   5.228   0.906 -1.9592 -0.0714  0.6763
   47MOL   H117 8489   2.258   5.316   0.772 -0.8037 -2.1659  1.7032
   47MOL   H118 8490   2.428   5.325   0.779  0.6773 -0.7545  0.2978
   47MOL   C119 8491   1.967   5.465   1.033 -0.4842 -0.1638  0.2277
   47MOL   C120 8492   1.907   5.337   1.086  0.3152  0.9301 -0.0890
   47MOL   C121 8493   1.878   5.558   0.945  0.1441 -0.1569  0.0291
   47MOL   O122 8494   1.902   5.594   0.830  0.3073 -0.0719  0.1235
   47MOL   O123 8495   1.762   5.583   1.013  0.2058  0.3739  0.6308
   47MOL   H124 8496   1.997   5.524   1.120 -0.7974 -1.9907  1.5902
   47MOL   H125 8497   1.979   5.269   1.131 -1.0187 -0.7216 -0.3866
   47MOL   H126 8498   1.835   5.367   1.161 -1.3062  0.8228 -1.5729
   47MOL   H127 8499   1.855   5.289   1.003  1.6227  1.0401 -0.9824
   47MOL   C128 8500   1.670   5.692   0.991 -0.1895  0.0033  0.5136
   47MOL   C129 8501   1.595   5.668   0.856  0.5049 -0.1913 -0.0937
   47MOL   C130 8502   1.738   5.828   0.996  0.6315 -0.3403 -0.2092
   47MOL   O131 8503   1.844   5.846   1.053 -0.0585  0.3512  0.2247
   47MOL   O132 8504   1.683   5.924   0.916 -0.5268  0.6840  0.0625
   47MOL   H133 8505   1.593   5.684   1.068  0.0865  0.0836  0.7971
   47MOL   H134 8506   1.557   5.567   0.866  1.9154 -0.9720 -2.2408
   47MOL   H135 8507   1.514   5.742   0.856  0.2028 -0.5129  2.1843
   47MOL   H136 8508   1.661   5.679   0.769  0.3612  2.7430  0.1082
   47MOL   C137 8509   1.719   6.062   0.915 -0.4222  0.1815  0.2698
   47MOL   C138 8510   1.608   6.151   0.846  0.6158  0.3221 -0.0951
   47MOL   C139 8511   1.848   6.072   0.835  0.2245 -0.1610 -0.5979
   47MOL   O140 8512   1.849   6.071   0.713  0.1576  0.1483 -0.1902
   47MOL   O141 8513   1.951   6.074   0.908  0.7139 -0.0824  0.1405
   47MOL   H142 8514   1.731   6.107   1.014  0.6662  1.8764 -0.6032
   47MOL   H143 8515   1.583   6.109   0.749  0.1147 -0.7894  0.5090
   47MOL   H144 8516   1.526   6.139   0.916  1.6027  1.6451  1.3115
   47MOL   H145 8517   1.633   6.255   0.864  1.5014 -0.4070  3.2780
   47MOL   C146 8518   2.081   6.111   0.865 -0.2931  0.1957  0.0828
   47MOL   C147 8519   2.179   6.057   0.976 -0.0427 -0.1472 -0.0484
   47MOL   C148 8520   2.088   6.268   0.862  0.3941  0.2757  0.4758
   47MOL   O149 8521   2.171   6.327   0.792 -0.9934 -0.2516  0.0654
   47MOL   O150 8522   1.992   6.334   0.945  0.4181 -0.0877  0.3249
   47MOL   H151 8523   2.104   6.091   0.760  0.0993  3.3592 -0.4888
   47MOL   H152 8524   2.185   5.948   0.981 -2.7154 -0.2866  0.7077
   47MOL   H153 8525   2.279   6.091   0.948  1.3500 -4.1258 -0.2696
   47MOL   H154 8526   2.157   6.091   1.077  0.6584  2.0575 -0.6078
   47MOL   C155 8527   1.978   6.469   0.920 -0.1965  0.1406 -0.5675
   47MOL   C156 8528   1.910   6.517   1.048  0.1172 -0.0907  0.1033
   47MOL   C157 8529   1.883   6.500   0.803  0.3803 -0.2376  0.0652
   47MOL   O158 8530   1.812   6.413   0.752 -0.4737  0.3959  0.5780
   47MOL   O159 8531   1.896   6.627   0.769  0.0784  0.3304 -0.3480
   47MOL   H160 8532   2.072   6.522   0.913  0.1217  0.1341  2.6869
   47MOL   H161 8533   1.820   6.460   1.069 -1.1791  2.4119  1.5809
   47MOL   H162 8534   1.974   6.515   1.137  0.3453  0.7689 -0.0427
   47MOL   H163 8535   1.878   6.621   1.047  0.3230 -0.0327 -0.9744
   47MOL   C164 8536   1.809   6.694   0.677 -0.0773  1.2602 -0.5427
   47MOL   C165 8537   1.886   6.816   0.627  0.5305  0.1245  0.7122
   47MOL   C166 8538   1.674   6.728   0.741 -0.5361 -0.0005 -0.0963
   47MOL   O167 8539   1.652   6.710   0.861  0.0712 -0.3007  0.3590
   47MOL   O168 8540   1.606   6.799   0.641  0.3406  0.2055  0.3871
   47MOL   H169 8541   1.788   6.639   0.585 -0.2443  1.3429 -0.5536
   47MOL   H170 8542   1.990   6.801   0.602 -0.4319 -3.3859 -1.5036
   47MOL   H171 8543   1.842   6.842   0.531 -0.4403 -1.1399  0.8008
   47MOL   H172 8544   1.869   6.907   0.684  1.1162  2.5086 -2.7556
   47MOL   C173 8545   1.488   6.866   0.679  0.2107 -1.1022  0.1258
   47MOL   C174 8546   1.417   6.908   0.551  0.4730 -0.0315  0.4577
   47MOL   C175 8547   1.534   6.996   0.764 -0.5140 -0.4854  0.1878
   47MOL   O176 8548   1.500   7.030   0.879  0.0962 -0.0632  0.5801
   47MOL   O177 8549   1.628   7.060   0.691 -0.0508  0.7123  0.3550
   47MOL   H178 8550   1.420   6.805   0.739 -1.1778  0.5642  0.3029
   47MOL   H179 8551   1.478   6.978   0.493  1.2613 -0.0089  1.2997
   47MOL   H180 8552   1.392   6.815   0.498  1.0510 -0.1662  0.4088
   47MOL   H181 8553   1.322   6.956   0.573  1.3213  1.6488  0.4894
   47MOL   H182 8554   1.638   7.148   0.725 -0.2722  0.3814  1.2974
   48MOL     C1 8555   4.640   3.949   2.832  0.0091  0.1931  0.0719
   48MOL     C2 8556   4.702   3.895   2.955 -0.1349  0.6451  0.3217
   48MOL     C3 8557   4.493   3.998   2.842 -0.2024 -0.1156  0.0724
   48MOL     O4 8558   4.480   4.125   2.858 -0.0228 -0.2420 -0.4008
   48MOL     O5 8559   4.395   3.903   2.834 -0.2273  0.0077  0.6197
   48MOL     H6 8560   4.700   4.037   2.807  0.3255 -0.1677 -0.4453
   48MOL     H7 8561   4.635   3.855   3.031  0.2514 -0.8819 -0.1208
   48MOL     H8 8562   4.777   3.819   2.932  0.6241  1.3869  0.3099
   48MOL     H9 8563   4.745   3.977   3.012 -0.7454  1.3687 -0.2461
   48MOL    H10 8564   4.650   3.881   2.748 -3.9912  0.6992 -0.9122
   48MOL    C11 8565   4.265   3.953   2.826 -0.0148 -0.1467  0.0425
   48MOL    C12 8566   4.166   3.891   2.925  0.1647 -0.0415 -0.3400
   48MOL    C13 8567   4.215   3.962   2.685  0.3552 -0.7551 -0.6011
   48MOL    O14 8568   4.272   3.906   2.596  0.4465  0.2460  0.4523
   48MOL    O15 8569   4.098   4.036   2.677  0.2968  0.4967 -0.5761
   48MOL    H16 8570   4.254   4.056   2.858 -1.5174  0.9990 -3.8544
   48MOL    H17 8571   4.162   3.784   2.902 -0.4807 -0.2731  0.8368
   48MOL    H18 8572   4.204   3.902   3.026  1.0522  0.9294 -0.7765
   48MOL    H19 8573   4.068   3.936   2.909  0.2782  0.8291  1.3444
   48MOL    C20 8574   4.006   4.022   2.567 -0.2687  0.2594  0.4709
   48MOL    C21 8575   3.898   4.135   2.588 -0.4555 -0.2605  0.1363
   48MOL    C22 8576   3.938   3.879   2.570  0.2651 -0.1804  0.4417
   48MOL    O23 8577   3.909   3.819   2.674 -0.1255  0.2591 -0.0628
   48MOL    O24 8578   3.897   3.854   2.447  0.0681  0.3649 -1.0455
   48MOL    H25 8579   4.064   4.044   2.477 -0.2195  1.0251  0.6841
   48MOL    H26 8580   3.844   4.135   2.493 -0.4047  2.0787  0.0690
   48MOL    H27 8581   3.824   4.115   2.666 -0.0663  2.3973  1.2532
   48MOL    H28 8582   3.949   4.231   2.596  1.7363 -1.4536  0.7694
   48MOL    C29 8583   3.814   3.734   2.431  0.1827  0.4694  0.7666
   48MOL    C30 8584   3.815   3.693   2.282  0.8670  0.6396 -0.9119
   48MOL    C31 8585   3.669   3.766   2.471 -0.0574  0.1457 -0.0340
   48MOL    O32 8586   3.592   3.676   2.494 -0.5760  0.0115  0.6371
   48MOL    O33 8587   3.635   3.889   2.446  0.5761  0.2233 -0.0236
   48MOL    H34 8588   3.842   3.648   2.491 -1.3449 -0.2833  0.4284
   48MOL    H35 8589   3.729   3.627   2.266  0.4841  1.3084 -1.7039
   48MOL    H36 8590   3.816   3.778   2.213 -0.8870  1.2549 -0.2216
   48MOL    H37 8591   3.907   3.640   2.257 -0.2714 -2.6831  1.5799
   48MOL    C38 8592   3.498   3.935   2.470 -0.2995 -0.1243  0.3851
   48MOL    C39 8593   3.443   3.990   2.336 -0.1610  0.1966 -0.9203
   48MOL    C40 8594   3.497   4.033   2.586  0.2278  0.9081 -0.1166
   48MOL    O41 8595   3.439   4.138   2.577  0.4062 -0.1323  0.2271
   48MOL    O42 8596   3.571   4.002   2.697 -0.1420  0.0717 -0.7248
   48MOL    H43 8597   3.435   3.851   2.496  1.3443 -0.9343  1.8786
   48MOL    H44 8598   3.344   4.027   2.360 -0.0510 -0.9535  1.3926
   48MOL    H45 8599   3.506   4.076   2.311 -1.4759  1.4826  0.0885
   48MOL    H46 8600   3.457   3.925   2.249  3.2689  1.5495 -1.4819
   48MOL    C47 8601   3.579   4.084   2.814  0.2321  0.0284 -0.1422
   48MOL    C48 8602   3.685   4.031   2.906 -0.4718 -0.3201 -0.0012
   48MOL    C49 8603   3.445   4.094   2.887  0.4474  0.1146  0.7553
   48MOL    O50 8604   3.361   4.007   2.872 -0.7602 -0.3885  0.1756
   48MOL    O51 8605   3.439   4.201   2.970  0.3968 -0.2463 -0.2528
   48MOL    H52 8606   3.598   4.189   2.793 -1.8634  0.7384  1.3877
   48MOL    H53 8607   3.680   4.055   3.012  0.1784  0.4853 -0.1481
   48MOL    H54 8608   3.704   3.925   2.889  2.0872  0.0855  0.1060
   48MOL    H55 8609   3.780   4.076   2.877 -0.4573  0.2287  0.8935
   48MOL    C56 8610   3.327   4.220   3.064  0.3968 -0.4378 -0.2220
   48MOL    C57 8611   3.308   4.372   3.090  0.3619  0.0251  0.0534
   48MOL    C58 8612   3.375   4.146   3.191 -0.1230 -0.1358 -0.4355
   48MOL    O59 8613   3.397   4.202   3.292 -0.4396  0.3502  0.7754
   48MOL    O60 8614   3.393   4.008   3.180  0.2155 -0.0941  0.4997
   48MOL    H61 8615   3.234   4.179   3.026  0.3271 -0.5429  0.0649
   48MOL    H62 8616   3.339   4.425   3.000  1.2396  0.2477  0.4800
   48MOL    H63 8617   3.206   4.397   3.116  0.6196  0.3378  0.7688
   48MOL    H64 8618   3.366   4.406   3.175 -2.5033  1.9773  1.2764
   48MOL    C65 8619   3.455   3.933   3.285 -0.2863  0.0993 -0.5059
   48MOL    C66 8620   3.588   3.884   3.229 -0.0662 -0.0920 -0.0968
   48MOL    C67 8621   3.358   3.816   3.319  0.0344 -0.1464  0.2065
   48MOL    O68 8622   3.388   3.696   3.296  0.6129 -0.2652  0.1570
   48MOL    O69 8623   3.234   3.861   3.358 -0.2648 -0.2927  0.0990
   48MOL    H70 8624   3.470   3.992   3.375 -0.3628  0.6151 -0.8299
   48MOL    H71 8625   3.571   3.823   3.140  1.0585  0.0683 -0.4302
   48MOL    H72 8626   3.656   3.965   3.201  0.0185 -0.0233  0.3016
   48MOL    H73 8627   3.643   3.815   3.293  0.4980  0.4434  0.0090
   48MOL    C74 8628   3.136   3.772   3.410 -0.1837  0.7067  0.6794
   48MOL    C75 8629   3.011   3.861   3.418  0.0709  0.3018 -0.1216
   48MOL    C76 8630   3.178   3.719   3.542 -0.1427 -0.4794 -0.0650
   48MOL    O77 8631   3.264   3.775   3.602  0.7752 -0.2443  0.3542
   48MOL    O78 8632   3.103   3.611   3.590  0.1292  0.3093  0.0652
   48MOL    H79 8633   3.125   3.685   3.345  1.4287  0.9300  0.1001
   48MOL    H80 8634   2.922   3.799   3.430  0.6744 -1.0945 -2.4580
   48MOL    H81 8635   3.015   3.924   3.507 -0.5122  0.3569 -0.1330
   48MOL    H82 8636   2.988   3.929   3.336 -0.5385  0.0868 -0.1330
   48MOL    C83 8637   3.104   3.587   3.735  0.3545 -0.3611  0.0456
   48MOL    C84 8638   3.050   3.453   3.781 -0.0609 -0.3066 -0.4510
   48MOL    C85 8639   3.042   3.705   3.803  0.2261 -0.1569  0.6502
   48MOL    O86 8640   2.958   3.779   3.749  0.0499 -0.0469  0.1832
   48MOL    O87 8641   3.091   3.719   3.930 -0.5637  0.5551  0.7846
   48MOL    H88 8642   3.210   3.590   3.764  1.0917 -0.7369 -2.5256
   48MOL    H89 8643   2.963   3.420   3.723  0.1825  0.5713 -1.3231
   48MOL    H90 8644   3.131   3.382   3.771  0.0905 -0.1147 -0.5883
   48MOL    H91 8645   3.005   3.465   3.880 -1.0669  0.8259 -1.0250
   48MOL    C92 8646   3.040   3.822   4.013  0.0319 -0.3265 -0.0067
   48MOL    C93 8647   3.118   3.791   4.146 -0.0936 -0.6733 -0.4800
   48MOL    C94 8648   2.895   3.803   4.047 -0.0648 -0.5548 -0.1679
   48MOL    O95 8649   2.852   3.700   4.101 -0.2608 -0.6949 -0.0664
   48MOL    O96 8650   2.822   3.915   4.025  0.1106 -0.3085 -0.1522
   48MOL    H97 8651   3.062   3.921   3.972 -1.2805 -0.5111 -1.1676
   48MOL    H98 8652   3.227   3.792   4.143 -0.0819 -0.8797 -0.1773
   48MOL    H99 8653   3.098   3.862   4.226  0.6491  0.4762 -1.3011
   48MOL   H100 8654   3.096   3.688   4.173  0.4815 -1.6537 -3.4835
   48MOL   C101 8655   2.704   3.944   4.103  0.2565  0.3833  0.0518
   48MOL   C102 8656   2.660   4.084   4.057  0.2792  0.2988  0.4201
   48MOL   C103 8657   2.727   3.938   4.257 -1.1655  0.0868 -0.7209
   48MOL   O104 8658   2.830   3.979   4.309 -0.0168 -0.2748 -0.0103
   48MOL   O105 8659   2.619   3.893   4.320 -0.2944 -0.0716  0.2240
   48MOL   H106 8660   2.634   3.864   4.076 -0.3491  0.3604  1.6616
   48MOL   H107 8661   2.622   4.065   3.956  0.6359 -0.6289  0.4566
   48MOL   H108 8662   2.579   4.114   4.123 -0.0279 -1.1418  0.7221
   48MOL   H109 8663   2.742   4.155   4.060  1.0081 -0.5234  0.1453
   48MOL   C110 8664   2.612   3.860   4.455  1.0077 -0.1815 -0.0212
   48MOL   C111 8665   2.653   3.714   4.465 -0.3869 -0.8194  0.3786
   48MOL   C112 8666   2.473   3.886   4.517 -0.3423 -0.0098 -0.1386
   48MOL   O113 8667   2.414   3.811   4.597 -0.5212  0.0674  0.5084
   48MOL   O114 8668   2.419   4.005   4.485  0.5632  0.0370  0.5093
   48MOL   H115 8669   2.686   3.921   4.506  0.8456 -1.4511  1.7745
   48MOL   H116 8670   2.599   3.664   4.385 -0.9447 -1.2844  1.0448
   48MOL   H117 8671   2.761   3.710   4.456 -0.2130  1.9577  0.7211
   48MOL   H118 8672   2.636   3.665   4.561  4.2412  0.2659  1.8723
   48MOL   C119 8673   2.288   4.043   4.536 -0.5876  0.5083  0.1371
   48MOL   C120 8674   2.246   4.166   4.447  0.5408 -0.0193 -0.1446
   48MOL   C121 8675   2.280   4.080   4.679  0.3597 -0.4970 -0.5134
   48MOL   O122 8676   2.210   4.021   4.760 -0.3604  0.2657 -0.5507
   48MOL   O123 8677   2.357   4.177   4.706  0.0493  0.0685 -0.0903
   48MOL   H124 8678   2.218   3.961   4.521 -0.5058 -0.0628  2.5652
   48MOL   H125 8679   2.242   4.143   4.340 -0.5111 -1.7156  0.2287
   48MOL   H126 8680   2.144   4.199   4.467  0.5960  0.7238 -1.0581
   48MOL   H127 8681   2.319   4.246   4.450 -0.5414  1.0398 -1.4636
   48MOL   C128 8682   2.341   4.250   4.826 -0.2318 -0.6678 -0.4757
   48MOL   C129 8683   2.247   4.365   4.792  1.1428 -0.0528  0.5137
   48MOL   C130 8684   2.475   4.300   4.872 -0.0386  0.8360 -0.3143
   48MOL   O131 8685   2.490   4.412   4.915 -0.3971 -1.2849 -0.1848
   48MOL   O132 8686   2.568   4.216   4.859 -0.8514  0.6382  0.8201
   48MOL   H133 8687   2.304   4.190   4.910  0.1048 -1.6994 -1.0506
   48MOL   H134 8688   2.279   4.423   4.705 -1.3940  3.1996  1.6156
   48MOL   H135 8689   2.145   4.326   4.785  1.3351 -0.2247 -1.9733
   48MOL   H136 8690   2.253   4.432   4.877 -0.3365 -0.3689  0.8746
   48MOL   C137 8691   2.704   4.241   4.903  0.0324  0.0234  0.0146
   48MOL   C138 8692   2.790   4.222   4.778 -0.1270  0.2132  1.1879
   48MOL   C139 8693   2.743   4.137   5.011  0.2810 -0.1832  0.3310
   48MOL   O140 8694   2.845   4.069   5.011  0.0317  0.1220  0.1449
   48MOL   O141 8695   2.658   4.144   5.114  0.4905 -0.2503 -0.0175
   48MOL   H142 8696   2.718   4.339   4.948 -0.8590 -0.1411  0.6606
   48MOL   H143 8697   2.894   4.222   4.811  0.2996 -1.2549 -0.1262
   48MOL   H144 8698   2.771   4.128   4.727  2.2809  0.9140 -1.1031
   48MOL   H145 8699   2.767   4.305   4.711  0.4712 -0.5255  0.0650
   48MOL   C146 8700   2.679   4.075   5.237  0.3174  0.0111 -0.5527
   48MOL   C147 8701   2.545   4.080   5.320  0.5596  0.2163 -0.5638
   48MOL   C148 8702   2.793   4.150   5.314 -0.1336 -0.5028  0.7573
   48MOL   O149 8703   2.883   4.088   5.371 -0.0647 -0.5363  0.0525
   48MOL   O150 8704   2.791   4.281   5.289 -0.9246  0.1669 -0.2703
   48MOL   H151 8705   2.709   3.973   5.215  0.0639  0.3261 -2.5410
   48MOL   H152 8706   2.547   4.063   5.428  0.3892  0.1962 -0.5638
   48MOL   H153 8707   2.496   4.178   5.322 -2.6865 -1.3738  0.4299
   48MOL   H154 8708   2.469   4.014   5.280  0.0044  0.6887 -0.2895
   48MOL   C155 8709   2.879   4.366   5.361 -0.0690 -0.8455  0.0949
   48MOL   C156 8710   2.810   4.497   5.403 -0.5363  0.7129 -0.9151
   48MOL   C157 8711   3.001   4.391   5.270 -0.0529  0.4553  0.3722
   48MOL   O158 8712   3.063   4.496   5.268  0.2754  0.1773 -0.1880
   48MOL   O159 8713   3.052   4.274   5.219  0.1425  0.5022 -0.1672
   48MOL   H160 8714   2.914   4.321   5.454  0.6398 -0.2020  0.1501
   48MOL   H161 8715   2.768   4.539   5.312 -1.8085 -1.3990 -1.3340
   48MOL   H162 8716   2.721   4.474   5.461  0.6769 -3.1677 -0.4189
   48MOL   H163 8717   2.875   4.565   5.457  2.0028 -2.1182 -0.2507
   48MOL   C164 8718   3.178   4.267   5.154  0.2650  0.1170 -0.4140
   48MOL   C165 8719   3.192   4.126   5.105 -0.1134 -0.1816 -0.4559
   48MOL   C166 8720   3.302   4.301   5.240 -0.1418  0.7562 -0.0350
   48MOL   O167 8721   3.295   4.303   5.360  0.1132  0.0438 -0.6291
   48MOL   O168 8722   3.401   4.336   5.165 -0.4916  0.5273  0.0099
   48MOL   H169 8723   3.185   4.341   5.074  2.4354 -1.4085 -1.6812
   48MOL   H170 8724   3.180   4.047   5.179 -0.6469 -2.8045 -3.2294
   48MOL   H171 8725   3.113   4.099   5.036  0.8334 -1.4000 -1.0983
   48MOL   H172 8726   3.283   4.099   5.051  0.9334  0.4264  0.9535
   48MOL   C173 8727   3.505   4.414   5.210  0.2229  1.0566 -0.2342
   48MOL   C174 8728   3.455   4.557   5.199  0.6350 -0.0252  0.0570
   48MOL   C175 8729   3.628   4.395   5.122 -0.0589  0.5741  0.3634
   48MOL   O176 8730   3.667   4.482   5.045 -0.1135 -0.3664 -0.0423
   48MOL   O177 8731   3.664   4.265   5.134  0.3619 -0.2674  0.2560
   48MOL   H178 8732   3.526   4.391   5.315  0.1597  0.6669 -0.3029
   48MOL   H179 8733   3.541   4.623   5.206 -0.0503  0.6485  2.5453
   48MOL   H180 8734   3.412   4.585   5.103  2.5582  2.2997 -0.1815
   48MOL   H181 8735   3.386   4.587   5.278  1.6449 -0.8105  1.2603
   48MOL   H182 8736   3.621   4.216   5.203 -1.6074  1.5700  0.3855
   49MOL     C1 8737   0.542   0.916   2.960 -0.6163 -0.4613  0.4014
   49MOL     C2 8738   0.407   0.848   2.944  0.1271 -0.6733  0.6320
   49MOL     C3 8739   0.656   0.877   2.857  0.2844  0.3864 -0.1821
   49MOL     O4 8740   0.736   0.963   2.827  0.1026 -0.2274 -0.1970
   49MOL     O5 8741   0.645   0.751   2.817 -0.5222  0.1951  0.0064
   49MOL     H6 8742   0.531   1.025   2.963 -0.5975 -0.4536  0.2001
   49MOL     H7 8743   0.369   0.825   2.844 -0.1036 -2.7588  1.1819
   49MOL     H8 8744   0.430   0.749   2.984 -3.2505 -1.9382 -0.3519
   49MOL     H9 8745   0.323   0.894   2.995 -0.4825 -0.1291 -0.8148
   49MOL    H10 8746   0.572   0.892   3.062 -1.0882  2.5730  1.2997
   49MOL    C11 8747   0.738   0.674   2.741  0.4343  0.0898  1.0450
   49MOL    C12 8748   0.862   0.648   2.832 -0.2953  0.4553  0.4590
   49MOL    C13 8749   0.778   0.748   2.610  0.1901 -0.1211 -0.2863
   49MOL    O14 8750   0.894   0.746   2.565 -0.3105 -0.0010 -0.6229
   49MOL    O15 8751   0.681   0.809   2.552  0.3744  0.1332 -0.3047
   49MOL    H16 8752   0.696   0.580   2.707  1.8351 -0.2670  0.2519
   49MOL    H17 8753   0.931   0.588   2.772 -1.9469 -1.4897  0.4412
   49MOL    H18 8754   0.913   0.740   2.859 -0.4039  1.2862 -2.0235
   49MOL    H19 8755   0.843   0.585   2.919 -0.5645 -2.9614 -1.9619
   49MOL    C20 8756   0.681   0.848   2.411 -0.6453 -1.0176  0.2208
   49MOL    C21 8757   0.580   0.972   2.404 -0.0019 -0.1311 -0.0119
   49MOL    C22 8758   0.662   0.726   2.312  0.6796 -0.5473 -0.4644
   49MOL    O23 8759   0.674   0.611   2.353 -0.2136  0.4841  0.1652
   49MOL    O24 8760   0.616   0.769   2.194 -0.2187  0.1867  0.0065
   49MOL    H25 8761   0.784   0.884   2.402 -1.2634  0.4149 -1.4390
   49MOL    H26 8762   0.484   0.945   2.449 -0.8165  0.4603 -1.3341
   49MOL    H27 8763   0.615   1.062   2.455 -0.0222 -0.2488  0.2054
   49MOL    H28 8764   0.566   1.010   2.302  2.0865  1.1702  0.1721
   49MOL    C29 8765   0.589   0.672   2.094  0.1643 -0.7053  0.1395
   49MOL    C30 8766   0.621   0.731   1.960 -0.2188  0.2428  0.4341
   49MOL    C31 8767   0.439   0.642   2.103  0.3546 -0.1190 -0.3007
   49MOL    O32 8768   0.356   0.714   2.159 -0.4572 -0.0258  0.1698
   49MOL    O33 8769   0.412   0.514   2.044  0.0998  0.8007 -0.5762
   49MOL    H34 8770   0.646   0.580   2.108  0.7017 -0.3059  0.6317
   49MOL    H35 8771   0.555   0.809   1.921  0.2096  0.7707  0.7508
   49MOL    H36 8772   0.727   0.752   1.948 -0.1266 -0.9294 -0.9481
   49MOL    H37 8773   0.607   0.643   1.897  0.3983 -0.1858  0.8865
   49MOL    C38 8774   0.283   0.450   2.048 -0.4450 -0.1664  0.4539
   49MOL    C39 8775   0.294   0.296   2.090 -0.4262 -0.2665 -0.0470
   49MOL    C40 8776   0.217   0.462   1.910 -0.7511 -0.2453 -0.4070
   49MOL    O41 8777   0.175   0.369   1.843  0.0718  0.1118 -0.1235
   49MOL    O42 8778   0.221   0.592   1.859 -0.2472  0.2637  0.1609
   49MOL    H43 8779   0.222   0.502   2.122 -0.4478  1.1092 -0.4247
   49MOL    H44 8780   0.202   0.239   2.098 -0.2040 -0.5807  0.2869
   49MOL    H45 8781   0.348   0.243   2.012 -0.1202 -1.7148  1.1327
   49MOL    H46 8782   0.347   0.284   2.185  0.7940  1.9864 -0.3924
   49MOL    C47 8783   0.148   0.626   1.748  0.2438  0.0735  1.0198
   49MOL    C48 8784   0.186   0.767   1.709  0.2039 -0.0266 -0.6601
   49MOL    C49 8785   8.143   0.626   1.781  0.5788  0.1361 -0.7608
   49MOL    O50 8786   8.105   0.618   1.897  0.7098  0.3930  0.2265
   49MOL    O51 8787   8.070   0.645   1.668 -0.3826 -0.0058 -0.2928
   49MOL    H52 8788   0.172   0.554   1.670 -1.8682 -0.1756  0.5699
   49MOL    H53 8789   0.145   0.801   1.614  0.3619  0.6224 -0.4992
   49MOL    H54 8790   0.137   0.842   1.770  0.5572 -1.0616  0.9230
   49MOL    H55 8791   0.293   0.788   1.701  0.3199 -0.7986 -1.2079
   49MOL    C56 8792   7.930   0.672   1.677 -0.0613  0.6176  0.3875
   49MOL    C57 8793   7.859   0.639   1.546 -0.3049  0.0794 -0.3399
   49MOL    C58 8794   7.903   0.815   1.731 -0.0109  0.0879  0.2827
   49MOL    O59 8795   7.881   0.829   1.853  0.0726 -0.1420  0.3736
   49MOL    O60 8796   7.908   0.910   1.638 -0.0333  0.0133 -0.3005
   49MOL    H61 8797   7.879   0.605   1.746 -1.7104  1.9365  0.4832
   49MOL    H62 8798   7.756   0.675   1.554  0.1332  1.1370  0.7992
   49MOL    H63 8799   7.895   0.695   1.460 -0.1226 -0.5955 -0.7031
   49MOL    H64 8800   7.857   0.538   1.507 -0.9748 -0.2787  0.5893
   49MOL    C65 8801   7.931   1.046   1.677 -0.1055 -0.2941  0.1287
   49MOL    C66 8802   7.876   1.125   1.559  0.7162 -0.4138  0.1682
   49MOL    C67 8803   8.071   1.068   1.721  0.5144  0.1279  0.0793
   49MOL    O68 8804   0.017   1.097   1.646  0.8310 -0.1032 -0.7311
   49MOL    O69 8805   8.086   1.044   1.856 -0.5713  0.0961 -0.5066
   49MOL    H70 8806   7.878   1.078   1.767 -2.2415 -0.4661 -1.0171
   49MOL    H71 8807   7.767   1.126   1.556  0.7317  1.0353 -0.4841
   49MOL    H72 8808   7.907   1.229   1.565 -1.6641  0.3065  0.3161
   49MOL    H73 8809   7.915   1.080   1.467 -0.3573 -0.8866 -0.0619
   49MOL    C74 8810   0.064   1.068   1.928  0.3017  0.8767 -0.2677
   49MOL    C75 8811   0.067   0.989   2.065 -0.7281  0.0274  0.4497
   49MOL    C76 8812   0.104   1.219   1.943 -0.1723  0.5225  0.5914
   49MOL    O77 8813   0.215   1.253   1.919 -0.1612  0.1276  0.6883
   49MOL    O78 8814   0.000   1.298   1.978  0.0825  0.6243 -0.3091
   49MOL    H79 8815   0.140   1.028   1.860  1.3118 -0.8455  1.8166
   49MOL    H80 8816   0.037   1.054   2.146 -0.4114  1.7800 -0.8214
   49MOL    H81 8817   0.001   0.903   2.058 -3.3717  2.2161 -2.6263
   49MOL    H82 8818   0.171   0.960   2.078 -0.3467  1.4361  0.6110
   49MOL    C83 8819   0.008   1.436   1.950 -0.1433 -0.2591 -0.4394
   49MOL    C84 8820   8.045   1.509   2.030 -0.5212  0.5587 -0.5676
   49MOL    C85 8821   8.136   1.452   1.797 -0.0067 -0.3594 -0.0325
   49MOL    O86 8822   8.062   1.375   1.731  0.2833 -0.1339 -0.4333
   49MOL    O87 8823   0.062   1.553   1.751  0.4552 -0.3953 -0.0921
   49MOL    H88 8824   0.104   1.481   1.977 -1.0099  2.0050 -0.9987
   49MOL    H89 8825   7.949   1.465   2.002  0.1792  0.5371 -3.0498
   49MOL    H90 8826   8.062   1.502   2.137 -1.2443 -2.3245 -0.5766
   49MOL    H91 8827   8.054   1.615   2.009 -5.6808  1.4471  0.9422
   49MOL    C92 8828   0.061   1.572   1.610 -0.7085 -0.1327  0.2677
   49MOL    C93 8829   0.185   1.658   1.585  0.3974 -0.5035  0.5711
   49MOL    C94 8830   8.077   1.647   1.571  0.0344 -0.4226 -0.5133
   49MOL    O95 8831   8.023   1.630   1.459 -0.5035  0.1627  0.4806
   49MOL    O96 8832   8.045   1.726   1.672  0.0562  0.2424  0.0704
   49MOL    H97 8833   0.064   1.479   1.552  0.3216  1.1872 -1.8585
   49MOL    H98 8834   0.180   1.752   1.639 -1.0958 -0.4916  0.4209
   49MOL    H99 8835   0.281   1.610   1.605  1.1251  0.3179 -0.8486
   49MOL   H100 8836   0.178   1.678   1.478  2.8931  1.9422  0.8016
   49MOL   C101 8837   7.920   1.793   1.674 -0.0452  0.9168 -0.1037
   49MOL   C102 8838   7.940   1.940   1.685  0.4212  0.2468 -0.3156
   49MOL   C103 8839   7.812   1.723   1.761 -0.4485  0.2976  1.0420
   49MOL   O104 8840   7.753   1.787   1.840 -0.0416 -0.2198 -0.3864
   49MOL   O105 8841   7.789   1.589   1.733  0.1173 -0.3464 -0.1392
   49MOL   H106 8842   7.877   1.777   1.575  0.9316  0.0028 -0.3927
   49MOL   H107 8843   7.993   1.978   1.599  0.3305 -0.2549 -0.5975
   49MOL   H108 8844   7.849   1.999   1.679  0.6427  0.3901 -2.9073
   49MOL   H109 8845   7.996   1.958   1.777 -2.0373  1.1330  1.0683
   49MOL   C110 8846   7.685   1.514   1.799 -0.3054 -0.3652  0.3251
   49MOL   C111 8847   7.698   1.365   1.769  0.1807  0.3818  0.2834
   49MOL   C112 8848   7.545   1.560   1.741 -0.2948 -0.3745 -0.6624
   49MOL   O113 8849   7.507   1.532   1.630  0.0667  0.4115  0.0857
   49MOL   O114 8850   7.475   1.632   1.826 -0.0559 -0.1731 -0.1248
   49MOL   H115 8851   7.675   1.530   1.906 -1.0552  0.3551  0.1512
   49MOL   H116 8852   7.697   1.350   1.661 -2.7481 -0.9519  0.4670
   49MOL   H117 8853   7.787   1.331   1.823  0.1743 -1.7667 -1.0229
   49MOL   H118 8854   7.614   1.312   1.812 -1.0939  1.0947 -1.3068
   49MOL   C119 8855   7.344   1.678   1.787 -0.1199  0.2862 -0.4762
   49MOL   C120 8856   7.328   1.798   1.874 -0.2370  0.1592 -0.3460
   49MOL   C121 8857   7.232   1.572   1.807 -0.2161 -0.1054  0.1698
   49MOL   O122 8858   7.181   1.509   1.711 -0.1004  0.0947 -0.6023
   49MOL   O123 8859   7.207   1.561   1.938 -0.8598 -0.5715  0.1474
   49MOL   H124 8860   7.329   1.708   1.683 -0.1291  2.4337  0.1224
   49MOL   H125 8861   7.398   1.882   1.869 -0.1774  0.1779  0.6857
   49MOL   H126 8862   7.228   1.840   1.863 -0.9743 -1.5722 -0.4995
   49MOL   H127 8863   7.341   1.778   1.980  1.6569 -0.1549 -0.6245
   49MOL   C128 8864   7.102   1.483   1.985 -0.1530  0.1735  0.5003
   49MOL   C129 8865   7.049   1.547   2.111 -0.1594  0.3445  0.1879
   49MOL   C130 8866   7.144   1.337   2.003 -0.8854 -0.4054  0.6476
   49MOL   O131 8867   7.061   1.250   1.979 -0.1540  0.1385 -0.2859
   49MOL   O132 8868   7.273   1.326   2.044 -0.4685  0.3903 -0.3010
   49MOL   H133 8869   7.021   1.480   1.912  0.3152 -0.7536  0.0153
   49MOL   H134 8870   7.124   1.547   2.190  2.0121 -0.4676 -1.7943
   49MOL   H135 8871   7.022   1.650   2.087  0.7425  0.5521  0.0677
   49MOL   H136 8872   6.950   1.512   2.142  0.3884 -0.7077  0.7644
   49MOL   C137 8873   7.342   1.205   2.082 -0.1036  0.2609 -0.0492
   49MOL   C138 8874   7.476   1.248   2.134  0.2570 -0.4055  0.3170
   49MOL   C139 8875   7.338   1.102   1.975  0.1634  0.8350 -0.6006
   49MOL   O140 8876   7.284   0.997   2.001  0.4038 -0.2433 -1.0210
   49MOL   O141 8877   7.391   1.132   1.858 -0.3269  0.3578 -0.1962
   49MOL   H142 8878   7.290   1.166   2.170 -0.8790 -0.3342 -0.7601
   49MOL   H143 8879   7.544   1.281   2.054 -0.0872 -0.7151 -0.1028
   49MOL   H144 8880   7.465   1.337   2.197  2.0800  2.5597 -3.3438
   49MOL   H145 8881   7.513   1.164   2.192  0.7957 -0.5414 -0.2179
   49MOL   C146 8882   7.394   1.047   1.748 -0.9621 -0.5128 -0.0698
   49MOL   C147 8883   7.531   0.971   1.753 -0.2471  0.4870 -0.1917
   49MOL   C148 8884   7.383   1.129   1.618 -0.6182 -0.4119  0.2860
   49MOL   O149 8885   7.396   1.249   1.622 -0.4397 -0.2902  0.2907
   49MOL   O150 8886   7.343   1.061   1.508  0.1273  0.2651 -0.2524
   49MOL   H151 8887   7.309   0.980   1.735 -1.8260  0.8979 -2.0713
   49MOL   H152 8888   7.539   0.904   1.839 -1.2229  1.8400  0.9855
   49MOL   H153 8889   7.540   0.919   1.658 -1.1387 -2.8898  1.4872
   49MOL   H154 8890   7.612   1.043   1.762  1.4510 -1.4821  0.6944
   49MOL   C155 8891   7.347   1.126   1.375 -0.1368  0.1299  0.1510
   49MOL   C156 8892   7.261   1.042   1.272 -0.4547  0.0518  0.1567
   49MOL   C157 8893   7.491   1.124   1.321 -0.2854 -0.1961 -0.0712
   49MOL   O158 8894   7.582   1.044   1.356  0.0797  0.2649  0.2900
   49MOL   O159 8895   7.512   1.220   1.226 -0.0484 -0.0620 -0.3764
   49MOL   H160 8896   7.331   1.234   1.380  1.2280  0.2995  1.3975
   49MOL   H161 8897   7.156   1.069   1.282 -0.9794 -1.9322  0.3422
   49MOL   H162 8898   7.295   1.049   1.169 -1.8476  0.5304 -0.2707
   49MOL   H163 8899   7.263   0.933   1.282  0.5172  0.0245 -0.2051
   49MOL   C164 8900   7.641   1.269   1.190  0.3066 -0.5424  0.2041
   49MOL   C165 8901   7.688   1.355   1.304  0.7947 -0.5991  0.0217
   49MOL   C166 8902   7.619   1.346   1.055 -0.3628  1.1270 -0.5575
   49MOL   O167 8903   7.618   1.469   1.049  0.1843 -0.4403  0.4076
   49MOL   O168 8904   7.581   1.272   0.950  0.4235  0.0528 -0.0166
   49MOL   H169 8905   7.725   1.201   1.176  0.6528 -0.3164  1.1281
   49MOL   H170 8906   7.722   1.292   1.386 -1.5404 -1.4870  0.3381
   49MOL   H171 8907   7.781   1.401   1.269 -0.4193  1.6376 -0.3974
   49MOL   H172 8908   7.617   1.434   1.329  0.0375 -0.9690 -0.9165
   49MOL   C173 8909   7.548   1.342   0.825  0.1146  0.2665  0.8586
   49MOL   C174 8910   7.394   1.365   0.820 -1.0553  0.0018 -0.1706
   49MOL   C175 8911   7.614   1.264   0.704 -0.4262 -0.3316  0.1139
   49MOL   O176 8912   7.548   1.207   0.616  0.3228 -0.1794 -0.5129
   49MOL   O177 8913   7.750   1.265   0.706  0.1614  0.1146  0.9275
   49MOL   H178 8914   7.602   1.435   0.808 -1.0582  0.5592 -1.3829
   49MOL   H179 8915   7.338   1.272   0.820 -1.1244  0.0236 -1.7635
   49MOL   H180 8916   7.369   1.423   0.909  0.6765  1.5413 -0.6413
   49MOL   H181 8917   7.372   1.427   0.733 -0.5593 -1.6976 -1.5307
   49MOL   H182 8918   7.798   1.254   0.625  0.9592 -0.6475  1.4914
   50MOL     C1 8919   3.382   8.062   6.877  0.1469  0.0777  0.1175
   50MOL     C2 8920   3.298   8.033   6.751  0.0318  0.3477 -0.0991
   50MOL     C3 8921   3.345   0.045   6.947 -0.5068 -0.2498  0.3685
   50MOL     O4 8922   3.250   0.120   6.912 -0.5117  0.1297 -0.3083
   50MOL     O5 8923   3.414   0.065   7.060  0.2255  0.3083 -0.2892
   50MOL     H6 8924   3.371   7.984   6.951 -0.0101 -0.0647 -0.0558
   50MOL     H7 8925   3.209   7.972   6.766  0.4858 -0.3303 -0.1268
   50MOL     H8 8926   3.284   8.108   6.673  0.1859 -2.4687 -2.9544
   50MOL     H9 8927   3.363   7.973   6.687  2.3716  0.9681  1.6141
   50MOL    H10 8928   3.485   8.070   6.840  0.2819  1.9519  0.8249
   50MOL    C11 8929   3.395   0.189   7.142  0.7024 -0.2591 -0.0433
   50MOL    C12 8930   3.510   0.208   7.240  0.5953  0.0458 -0.1644
   50MOL    C13 8931   3.261   0.194   7.222  0.3237  0.2321  0.4241
   50MOL    O14 8932   3.240   0.096   7.295 -0.3093 -0.0503  0.1185
   50MOL    O15 8933   3.177   0.291   7.185 -0.3546 -0.5666 -0.6557
   50MOL    H16 8934   3.405   0.278   7.080 -1.3000  0.2042  0.2731
   50MOL    H17 8935   3.480   0.275   7.321  0.5863  0.8208 -0.8034
   50MOL    H18 8936   3.549   0.114   7.278  0.2536  0.1450  0.4423
   50MOL    H19 8937   3.588   0.258   7.182  0.8483 -0.9095 -0.6534
   50MOL    C20 8938   3.051   0.310   7.251  0.5102 -0.4502 -0.1873
   50MOL    C21 8939   2.966   0.417   7.170  0.0291  0.3654 -0.5176
   50MOL    C22 8940   3.073   0.351   7.396 -0.2491 -0.1889  0.8870
   50MOL    O23 8941   3.021   0.288   7.486 -0.2721 -0.1514  0.1103
   50MOL    O24 8942   3.149   0.467   7.401 -0.6985  0.1156  0.7672
   50MOL    H25 8943   2.984   0.225   7.245 -0.5785  0.4594 -1.3768
   50MOL    H26 8944   2.949   0.383   7.068  0.0996 -0.5161 -0.2430
   50MOL    H27 8945   2.871   0.442   7.217  0.3394 -3.5653  2.4610
   50MOL    H28 8946   3.023   0.510   7.173 -1.2549  1.1916 -1.6480
   50MOL    C29 8947   3.159   0.549   7.510  0.1008  0.1098  0.7963
   50MOL    C30 8948   3.200   0.671   7.440  0.4122  0.0823  0.0233
   50MOL    C31 8949   3.267   0.491   7.602  0.5796  0.2815 -0.0939
   50MOL    O32 8950   3.376   0.545   7.616 -0.0067 -0.3552 -0.2467
   50MOL    O33 8951   3.230   0.376   7.663  0.0523  0.1978 -0.1355
   50MOL    H34 8952   3.066   0.579   7.558  0.0765  0.9743  0.2356
   50MOL    H35 8953   3.141   0.692   7.350 -0.1495 -2.4459 -0.2498
   50MOL    H36 8954   3.189   0.753   7.510 -2.5036 -0.5673  0.4189
   50MOL    H37 8955   3.299   0.661   7.396  0.4606  1.5627 -0.2153
   50MOL    C38 8956   3.329   0.278   7.708 -0.0388 -0.3539  0.3387
   50MOL    C39 8957   3.360   0.170   7.612 -0.2368  0.7754 -0.1432
   50MOL    C40 8958   3.282   0.221   7.844  0.1557  0.3959  0.1850
   50MOL    O41 8959   3.358   0.165   7.923 -0.0628 -0.2121  0.0089
   50MOL    O42 8960   3.147   0.246   7.866  0.0565  0.4339 -0.3570
   50MOL    H43 8961   3.423   0.327   7.734 -0.5560  1.1741 -0.5608
   50MOL    H44 8962   3.405   0.209   7.521  2.3281  2.7626  1.8989
   50MOL    H45 8963   3.437   0.103   7.651 -1.1978  0.9976  2.1920
   50MOL    H46 8964   3.276   0.110   7.575  0.0597 -0.2143  0.7614
   50MOL    C47 8965   3.090   0.205   7.989  0.8849 -0.5954  0.8813
   50MOL    C48 8966   2.936   0.206   7.978  0.0746  0.7525 -0.5777
   50MOL    C49 8967   3.145   0.294   8.102 -0.2656  0.2037 -0.4238
   50MOL    O50 8968   3.221   0.239   0.037  0.5347 -0.2749  0.5729
   50MOL    O51 8969   3.106   0.423   8.095  0.0979 -0.1123 -0.2207
   50MOL    H52 8970   3.123   0.103   8.005  0.7407 -0.7670  0.0800
   50MOL    H53 8971   2.905   0.107   7.944  0.1909  0.4252  0.2621
   50MOL    H54 8972   2.890   0.239   8.071 -1.6612  1.2575 -1.5961
   50MOL    H55 8973   2.918   0.273   7.894 -1.0295  2.0166  0.6496
   50MOL    C56 8974   3.166   0.524   0.024  0.2132 -0.0889  0.3845
   50MOL    C57 8975   3.082   0.653   0.021 -0.0577  0.4140  0.4830
   50MOL    C58 8976   3.300   0.556   8.109 -0.3368  0.5101  0.4168
   50MOL    O59 8977   3.311   0.554   7.986 -0.1797 -0.2024  0.5222
   50MOL    O60 8978   3.401   0.577   0.053 -0.0326  0.3239  0.2806
   50MOL    H61 8979   3.179   0.492   0.128 -0.5842  0.5318  0.6759
   50MOL    H62 8980   3.081   0.687   8.065 -1.4547 -0.7066  0.1244
   50MOL    H63 8981   2.988   0.638   0.073  0.6347  0.3696  1.7486
   50MOL    H64 8982   3.133   0.730   0.079  1.2379 -0.5640  0.6717
   50MOL    C65 8983   3.539   0.580   0.011  0.2606  0.4388 -0.1263
   50MOL    C66 8984   3.593   0.448   0.050 -0.2694  0.0999 -0.2875
   50MOL    C67 8985   3.613   0.702   0.069  0.4647 -0.4133  0.7256
   50MOL    O68 8986   3.556   0.787   0.139  0.3310 -0.1858  0.6417
   50MOL    O69 8987   3.743   0.697   0.041 -0.2262 -0.2618 -0.5271
   50MOL    H70 8988   3.546   0.592   8.051 -0.7213  2.3453  0.0134
   50MOL    H71 8989   3.583   0.428   0.156 -1.1857  1.9061 -0.0199
   50MOL    H72 8990   3.545   0.369   8.140 -2.4728 -0.1855  1.8832
   50MOL    H73 8991   3.698   0.441   0.020  0.0942  1.8718  0.5245
   50MOL    C74 8992   3.832   0.777   0.110 -0.1373  0.1078  0.2605
   50MOL    C75 8993   3.957   0.791   0.014 -0.1900 -0.9434 -0.1201
   50MOL    C76 8994   3.861   0.718   0.251 -1.0045  0.3341 -0.0975
   50MOL    O77 8995   3.803   0.615   0.295  0.6588  0.1698 -0.2943
   50MOL    O78 8996   3.955   0.791   0.322  0.1825 -0.3528  0.5165
   50MOL    H79 8997   3.795   0.879   0.114 -1.8869 -0.4866 -0.4128
   50MOL    H80 8998   3.932   0.837   8.066  0.4658  3.4267  1.6500
   50MOL    H81 8999   4.035   0.859   0.048  1.1247 -0.8961 -3.0944
   50MOL    H82 9000   3.996   0.693   8.136  1.8248 -0.0284 -0.6139
   50MOL    C83 9001   4.001   0.743   0.444  0.4345  0.1524  0.9310
   50MOL    C84 9002   4.066   0.857   0.518  0.2898 -0.3155  0.7510
   50MOL    C85 9003   4.107   0.630   0.420  0.3029  0.1689  0.0286
   50MOL    O86 9004   4.102   0.521   0.477 -0.7642 -0.5578  0.0663
   50MOL    O87 9005   4.204   0.660   0.334 -0.1427 -0.1487 -0.1484
   50MOL    H88 9006   3.917   0.701   0.499  0.7271 -2.0020 -0.1817
   50MOL    H89 9007   4.139   0.913   0.459  0.4311 -0.6782  0.5780
   50MOL    H90 9008   3.994   0.930   0.554  1.1258  1.1574 -0.5072
   50MOL    H91 9009   4.113   0.827   0.611  0.6435  0.3685  0.7901
   50MOL    C92 9010   4.299   0.560   0.294  0.1323  0.9306  0.3410
   50MOL    C93 9011   4.411   0.636   0.221 -0.5561 -0.7752  0.3593
   50MOL    C94 9012   4.233   0.447   0.207  0.7546  0.0871  0.2695
   50MOL    O95 9013   4.118   0.463   0.164  0.5472 -0.2985 -0.6721
   50MOL    O96 9014   4.314   0.344   0.177 -0.2718 -0.6749  0.2708
   50MOL    H97 9015   4.349   0.513   0.379  2.6836 -0.1756 -1.6916
   50MOL    H98 9016   4.447   0.719   0.283  0.7822 -1.2069  0.1882
   50MOL    H99 9017   4.495   0.574   0.189 -0.3105 -1.8052  2.8911
   50MOL   H100 9018   4.376   0.685   0.130  0.7506 -1.0106 -0.2847
   50MOL   C101 9019   4.282   0.243   0.077 -0.2634 -0.2208 -0.3081
   50MOL   C102 9020   4.223   0.117   0.136 -0.0783  0.2635  0.0345
   50MOL   C103 9021   4.413   0.212   8.144  1.3969 -0.6388 -0.6340
   50MOL   O104 9022   4.403   0.224   8.021 -0.0202 -0.4188 -0.4276
   50MOL   O105 9023   4.511   0.161   0.073  0.4620 -0.0442 -0.1479
   50MOL   H106 9024   4.208   0.281   0.007 -0.0033  2.0445  0.5769
   50MOL   H107 9025   4.300   0.049   0.174  0.7114  0.1774 -1.6599
   50MOL   H108 9026   4.147   0.147   0.207 -0.5009  0.3084 -0.4339
   50MOL   H109 9027   4.175   0.056   0.059 -0.0607 -0.3651  0.5236
   50MOL   C110 9028   4.633   0.125   0.019  0.1901  0.1672  0.9040
   50MOL   C111 9029   4.712   0.067   0.142  0.2129 -0.4548  0.7809
   50MOL   C112 9030   4.701   0.244   8.099  0.2646  0.3977  0.2333
   50MOL   O113 9031   4.773   0.320   0.010 -0.0098  0.3247 -0.1722
   50MOL   O114 9032   4.674   0.246   7.968 -0.4178  0.1465 -0.0689
   50MOL   H115 9033   4.624   0.036   8.105  1.4358  1.3231 -1.0103
   50MOL   H116 9034   4.687   0.135   0.223 -0.8725 -0.0413  0.1151
   50MOL   H117 9035   4.692   8.111   0.168  0.2155 -0.3915  1.0351
   50MOL   H118 9036   4.821   0.072   0.138  0.2066 -1.5925 -1.5489
   50MOL   C119 9037   4.708   0.360   7.887 -0.0460  1.0358  0.0361
   50MOL   C120 9038   4.609   0.365   7.769 -0.1542 -0.0922 -0.3304
   50MOL   C121 9039   4.851   0.345   7.833  0.3978 -0.0580  0.1398
   50MOL   O122 9040   4.942   0.427   7.859 -0.3842 -0.3846 -0.7033
   50MOL   O123 9041   4.869   0.237   7.761 -0.4320  0.2343 -0.1338
   50MOL   H124 9042   4.703   0.456   7.937  0.8683  1.3699 -0.5131
   50MOL   H125 9043   4.589   0.267   7.726  1.1918 -0.0710 -1.0497
   50MOL   H126 9044   4.510   0.400   7.798 -0.1154 -0.7110  0.5662
   50MOL   H127 9045   4.650   0.430   7.691  1.7973 -0.6767  0.1706
   50MOL   C128 9046   4.953   0.240   7.644  0.2915  0.5310  0.2141
   50MOL   C129 9047   4.922   0.111   7.568 -0.2400 -0.2763  0.0267
   50MOL   C130 9048   5.100   0.256   7.667 -0.5465  0.1191 -0.6475
   50MOL   O131 9049   5.164   0.199   7.754  0.0765 -0.4700 -0.0436
   50MOL   O132 9050   5.155   0.326   7.571 -0.1058  0.0232  0.0020
   50MOL   H133 9051   4.912   0.315   7.576  1.6169  1.5199  0.4822
   50MOL   H134 9052   4.990   0.031   7.598  0.2418  0.2975  0.4924
   50MOL   H135 9053   4.819   0.077   7.580 -0.2669 -1.4565 -3.1686
   50MOL   H136 9054   4.937   0.123   7.461 -1.6885 -0.0236 -0.1557
   50MOL   C137 9055   5.296   0.319   7.552 -0.2722  0.4193 -0.2651
   50MOL   C138 9056   5.358   0.454   7.605 -0.4496 -0.0619 -0.4576
   50MOL   C139 9057   5.319   0.294   7.410 -0.1781  0.0925  0.6725
   50MOL   O140 9058   5.224   0.286   7.320 -0.4370  0.1144 -0.2973
   50MOL   O141 9059   5.449   0.275   7.376 -0.1562 -0.0335  0.4623
   50MOL   H142 9060   5.342   0.232   7.601 -0.0259  0.5315 -0.2945
   50MOL   H143 9061   5.347   0.460   7.713  0.8539 -1.0821 -0.2589
   50MOL   H144 9062   5.464   0.442   7.584 -0.3398  0.0254  0.0420
   50MOL   H145 9063   5.321   0.549   7.567  0.6437  0.5944  0.1063
   50MOL   C146 9064   5.490   0.244   7.248  0.0243 -0.0126  0.4997
   50MOL   C147 9065   5.643   0.260   7.275 -0.6920  0.7167  0.1501
   50MOL   C148 9066   5.444   0.347   7.144 -0.5442  0.5635 -0.4302
   50MOL   O149 9067   5.357   0.319   7.058  0.2944  0.3721  0.0790
   50MOL   O150 9068   5.507   0.468   7.149  0.2130  0.2050 -0.1852
   50MOL   H151 9069   5.459   0.144   7.221  0.0901 -0.4000  1.8281
   50MOL   H152 9070   5.699   0.254   7.182 -1.4629  0.2331 -0.2879
   50MOL   H153 9071   5.667   0.360   7.311  0.0890 -0.0679  1.8797
   50MOL   H154 9072   5.678   0.179   7.340  2.0122  2.2338  0.6612
   50MOL   C155 9073   5.479   0.573   7.052  0.0396  0.3306 -0.2227
   50MOL   C156 9074   5.595   0.674   7.065  0.5404 -0.7845 -0.4945
   50MOL   C157 9075   5.339   0.634   7.074 -0.1857  0.5766 -0.8851
   50MOL   O158 9076   5.291   0.718   7.000  0.5979 -0.0775 -0.0773
   50MOL   O159 9077   5.283   0.594   7.187  0.3236  0.5320 -0.2968
   50MOL   H160 9078   5.485   0.545   6.947 -1.6158  1.0862 -0.5380
   50MOL   H161 9079   5.563   0.777   7.053 -1.8329 -1.1804  1.8159
   50MOL   H162 9080   5.626   0.671   7.170  0.2758 -0.4453 -0.4051
   50MOL   H163 9081   5.681   0.644   7.006  0.9667 -1.1505  0.3070
   50MOL   C164 9082   5.143   0.639   7.207 -0.7483  1.1883  0.1405
   50MOL   C165 9083   5.095   0.648   7.357  0.0385 -0.6085  0.1156
   50MOL   C166 9084   5.038   0.551   7.135 -0.3631 -0.0646  0.0918
   50MOL   O167 9085   4.926   0.526   7.182 -0.2871  0.6028  0.1392
   50MOL   O168 9086   5.090   0.497   7.023 -0.0420 -0.1823  0.6901
   50MOL   H169 9087   5.127   0.740   7.170 -2.0506  0.7538 -0.4998
   50MOL   H170 9088   4.996   0.691   7.368  1.0274  2.1401 -1.2713
   50MOL   H171 9089   5.091   0.546   7.396 -0.8381 -0.0744  1.4217
   50MOL   H172 9090   5.161   0.717   7.409  1.3250 -2.0695  0.4727
   50MOL   C173 9091   5.020   0.401   6.937  0.2734  0.8052  0.9140
   50MOL   C174 9092   4.901   0.460   6.851  0.5494  0.1398  0.2369
   50MOL   C175 9093   4.987   0.269   7.018 -0.0151  0.6628  0.1157
   50MOL   O176 9094   4.872   0.226   7.051  0.2804 -0.1252  0.1500
   50MOL   O177 9095   5.096   0.210   7.069 -0.2994 -0.0536  0.0089
   50MOL   H178 9096   5.093   0.367   6.864  1.1190  1.0294  1.6414
   50MOL   H179 9097   4.942   0.501   6.759  1.2053 -0.1868  0.3771
   50MOL   H180 9098   4.847   0.374   6.809 -0.6208  0.0204  1.9389
   50MOL   H181 9099   4.841   0.535   6.902  1.6007  0.5794  0.8274
   50MOL   H182 9100   5.168   0.271   7.074 -0.3460  0.0458 -0.4945
   51MOL     C1 9101   2.350   3.909   3.999 -0.1882  0.2509 -0.1274
   51MOL     C2 9102   2.224   3.959   3.934  0.5372  0.1032 -0.7131
   51MOL     C3 9103   2.422   3.811   3.911  0.4078 -0.9268 -0.0456
   51MOL     O4 9104   2.432   3.691   3.942  0.1154  0.0769 -0.4963
   51MOL     O5 9105   2.474   3.869   3.798  0.3378 -0.5880  0.2634
   51MOL     H6 9106   2.420   3.991   4.017 -0.4084 -0.1273  2.6238
   51MOL     H7 9107   2.178   4.033   3.999 -0.2057 -0.9551 -0.0213
   51MOL     H8 9108   2.241   4.015   3.842 -1.6530 -0.0996 -1.2606
   51MOL     H9 9109   2.160   3.874   3.912  1.8452 -0.6679 -1.6440
   51MOL    H10 9110   2.341   3.868   4.099  0.9299  1.0766  0.3217
   51MOL    C11 9111   2.540   3.791   3.694 -0.2572 -0.5960  0.2212
   51MOL    C12 9112   2.646   3.863   3.619 -0.1669 -0.4562  0.2587
   51MOL    C13 9113   2.430   3.733   3.604 -0.6653  0.5018 -0.0643
   51MOL    O14 9114   2.457   3.629   3.540 -0.1425  0.7459  0.1628
   51MOL    O15 9115   2.314   3.803   3.596  0.1609  0.4039  0.5069
   51MOL    H16 9116   2.578   3.697   3.733  2.5225  0.6687  0.7021
   51MOL    H17 9117   2.681   3.812   3.528  0.6363 -0.8914  0.8068
   51MOL    H18 9118   2.620   3.966   3.598 -0.2878 -0.4131  0.6231
   51MOL    H19 9119   2.736   3.864   3.680  0.1134  0.0721 -0.1617
   51MOL    C20 9120   2.196   3.753   3.534  0.3418  0.5170  0.5744
   51MOL    C21 9121   2.134   3.634   3.605 -0.2338  0.2743 -0.6912
   51MOL    C22 9122   2.212   3.725   3.387 -0.4887  0.0134  0.5394
   51MOL    O23 9123   2.179   3.621   3.326  0.0108  1.0409  0.2483
   51MOL    O24 9124   2.282   3.823   3.329 -0.5386 -1.1077 -0.1563
   51MOL    H25 9125   2.129   3.838   3.546  1.0630  1.3791 -1.1801
   51MOL    H26 9126   2.162   3.536   3.567 -0.6210  0.0166 -0.3235
   51MOL    H27 9127   2.155   3.632   3.712  1.1465 -1.7004 -0.9688
   51MOL    H28 9128   2.025   3.645   3.596  0.0027  2.1466 -1.3949
   51MOL    C29 9129   2.289   3.841   3.188 -0.0627 -0.5050 -0.0344
   51MOL    C30 9130   2.396   3.939   3.173  0.2271 -0.2479  0.4023
   51MOL    C31 9131   2.153   3.873   3.124 -0.1981  0.3145  0.4607
   51MOL    O32 9132   2.056   3.903   3.199  0.0947  0.2316  0.4006
   51MOL    O33 9133   2.152   3.880   2.990  0.4116 -0.3946 -0.0201
   51MOL    H34 9134   2.331   3.747   3.154  3.6572  0.4009  1.8011
   51MOL    H35 9135   2.423   3.958   3.069  0.7710  1.9237  0.9134
   51MOL    H36 9136   2.364   4.038   3.204 -1.6818 -0.3111 -1.2546
   51MOL    H37 9137   2.479   3.906   3.236 -0.5591  0.0035  1.5661
   51MOL    C38 9138   2.038   3.944   2.922 -0.2578  0.4104 -0.3492
   51MOL    C39 9139   2.047   3.908   2.772  0.2611  0.2478 -0.6044
   51MOL    C40 9140   2.034   4.104   2.956  0.5603  0.2705  0.7230
   51MOL    O41 9141   2.117   4.156   3.030 -0.3684 -0.0565 -0.1751
   51MOL    O42 9142   1.935   4.173   2.885  0.2977 -0.1903  0.4502
   51MOL    H43 9143   1.945   3.905   2.963 -0.0171  1.9410  1.7247
   51MOL    H44 9144   1.957   3.942   2.720 -1.0552  0.4661  1.7033
   51MOL    H45 9145   2.136   3.950   2.727 -1.0429  2.5171 -1.1821
   51MOL    H46 9146   2.040   3.799   2.764  0.9879  0.1673 -0.1510
   51MOL    C47 9147   1.934   4.312   2.874 -0.7551 -0.2886 -0.0114
   51MOL    C48 9148   1.807   4.367   2.795  0.8158  0.0333 -0.1848
   51MOL    C49 9149   2.055   4.356   2.788 -0.2839 -0.1847  0.7644
   51MOL    O50 9150   2.113   4.288   2.706 -0.2169  0.6795 -0.3483
   51MOL    O51 9151   2.083   4.482   2.812  0.7656 -0.5001 -0.8757
   51MOL    H52 9152   1.942   4.361   2.971  0.5460  1.9936 -1.2367
   51MOL    H53 9153   1.710   4.346   2.841  0.7451  3.5072  1.4222
   51MOL    H54 9154   1.803   4.476   2.791  0.2559 -0.0470 -2.7813
   51MOL    H55 9155   1.799   4.336   2.691 -0.6004 -2.0998  0.5307
   51MOL    C56 9156   2.152   4.568   2.727 -0.3367  0.1832  0.7027
   51MOL    C57 9157   2.269   4.616   2.800 -0.0747 -0.7788 -0.5365
   51MOL    C58 9158   2.062   4.681   2.675  0.0304 -0.4770  0.1944
   51MOL    O59 9159   1.974   4.656   2.595  0.2417 -0.2227  0.1946
   51MOL    O60 9160   2.088   4.803   2.710  1.3149 -0.6965 -0.4455
   51MOL    H61 9161   2.189   4.509   2.643  0.1226  1.2898  0.1131
   51MOL    H62 9162   2.337   4.533   2.820  2.1892  0.8097 -1.4357
   51MOL    H63 9163   2.314   4.698   2.744  0.9668 -0.7167  0.3621
   51MOL    H64 9164   2.244   4.664   2.894  0.4807  0.6871 -1.1206
   51MOL    C65 9165   2.018   4.917   2.657 -0.3833 -0.0619  0.1986
   51MOL    C66 9166   2.101   5.044   2.682  0.1597 -0.8245 -1.0593
   51MOL    C67 9167   1.875   4.925   2.712  0.1408 -0.5875 -0.1408
   51MOL    O68 9168   1.834   4.842   2.800 -0.2256  0.3125  0.1684
   51MOL    O69 9169   1.799   5.027   2.666 -0.0315  0.1317 -0.3023
   51MOL    H70 9170   2.009   4.907   2.549  2.2785 -0.8139  0.0157
   51MOL    H71 9171   2.204   5.009   2.669 -0.3001 -1.8631 -1.9640
   51MOL    H72 9172   2.084   5.113   2.600  1.4905  2.9639  1.7100
   51MOL    H73 9173   2.095   5.099   2.776  1.4272  2.3884 -2.7597
   51MOL    C74 9174   1.666   5.052   2.715  0.0517  0.7217 -0.8838
   51MOL    C75 9175   1.650   5.100   2.859  0.8852 -0.1457 -0.2999
   51MOL    C76 9176   1.570   4.941   2.671  0.0855  0.3184  0.5557
   51MOL    O77 9177   1.510   4.872   2.746 -0.2586 -0.3036 -0.2317
   51MOL    O78 9178   1.569   4.925   2.546 -0.5088 -0.1391  0.0544
   51MOL    H79 9179   1.639   5.135   2.650  2.5699  0.7678 -1.9355
   51MOL    H80 9180   1.696   5.029   2.926  0.7364  0.2245  0.1957
   51MOL    H81 9181   1.704   5.194   2.868 -0.4069  0.4811  1.0574
   51MOL    H82 9182   1.546   5.119   2.885  1.1132  2.1930 -0.9956
   51MOL    C83 9183   1.522   4.807   2.488 -0.7883  0.8267 -0.7136
   51MOL    C84 9184   1.600   4.784   2.363  0.2524  0.0844  0.0406
   51MOL    C85 9185   1.370   4.807   2.457 -0.5903 -0.1692  0.0077
   51MOL    O86 9186   1.295   4.908   2.476 -0.1070  0.2484 -0.1716
   51MOL    O87 9187   1.333   4.677   2.430 -0.0584  0.1476 -0.2714
   51MOL    H88 9188   1.545   4.720   2.548  0.5109  1.7950  0.2350
   51MOL    H89 9189   1.596   4.867   2.293 -0.5062 -0.4643 -0.5736
   51MOL    H90 9190   1.698   4.741   2.383  0.2791 -0.9392 -2.2253
   51MOL    H91 9191   1.543   4.709   2.309  0.8212  0.9888 -1.8576
   51MOL    C92 9192   1.196   4.630   2.426  0.3782 -0.0134 -0.2357
   51MOL    C93 9193   1.089   4.718   2.359  0.2236  0.5325 -0.1884
   51MOL    C94 9194   1.151   4.579   2.566 -0.0870 -0.5091 -0.2301
   51MOL    O95 9195   1.031   4.573   2.594 -0.1707 -0.4591  0.1096
   51MOL    O96 9196   1.250   4.563   2.647  0.2231  0.4247 -0.0420
   51MOL    H97 9197   1.188   4.537   2.369  0.7426  0.1240 -0.5076
   51MOL    H98 9198   1.125   4.760   2.265  2.4949 -0.8070  0.0209
   51MOL    H99 9199   0.995   4.664   2.345  1.6202 -1.9732 -0.2996
   51MOL   H100 9200   1.071   4.804   2.423  1.3550  0.4577  0.2576
   51MOL   C101 9201   1.231   4.554   2.796 -0.9020  0.4105 -0.5397
   51MOL   C102 9202   1.366   4.564   2.872  0.3576 -0.0800  0.0955
   51MOL   C103 9203   1.161   4.420   2.837  0.0842  0.5386  0.0388
   51MOL   O104 9204   1.150   4.325   2.756  0.1980 -0.2566  0.0374
   51MOL   O105 9205   1.122   4.427   2.967  0.9128  0.9678  0.2330
   51MOL   H106 9206   1.170   4.637   2.830  1.7293  1.2385  2.3968
   51MOL   H107 9207   1.351   4.544   2.978 -2.7704 -0.5473 -0.3781
   51MOL   H108 9208   1.444   4.504   2.825 -0.7931 -0.0822 -1.8636
   51MOL   H109 9209   1.401   4.667   2.871  0.7384 -0.2004  0.7912
   51MOL   C110 9210   1.111   4.307   3.045 -0.9857 -0.7042 -0.1255
   51MOL   C111 9211   1.054   4.341   3.183  0.2335 -0.4377 -0.3468
   51MOL   C112 9212   1.247   4.238   3.069 -0.3114 -0.5708  0.3082
   51MOL   O113 9213   1.242   4.118   3.076  0.1571  0.1644 -0.1265
   51MOL   O114 9214   1.363   4.311   3.071 -0.2386 -0.1630  0.3257
   51MOL   H115 9215   1.034   4.243   3.000 -2.2298  0.2247  0.6456
   51MOL   H116 9216   0.946   4.356   3.176  0.2732  1.1390  1.9723
   51MOL   H117 9217   1.076   4.268   3.260  0.3454  0.7289  0.7399
   51MOL   H118 9218   1.092   4.438   3.213  1.4458 -1.0216  0.0205
   51MOL   C119 9219   1.486   4.242   3.082 -0.9356 -0.8011 -0.2441
   51MOL   C120 9220   1.601   4.334   3.108 -0.8711  0.5250  0.8464
   51MOL   C121 9221   1.524   4.158   2.962 -0.9050 -0.4235 -0.7988
   51MOL   O122 9222   1.613   4.077   2.976  0.0012  0.4190  0.3091
   51MOL   O123 9223   1.471   4.194   2.842 -0.1221 -0.3787 -0.1409
   51MOL   H124 9224   1.493   4.175   3.168  0.7098 -1.3492 -0.7804
   51MOL   H125 9225   1.592   4.430   3.056  1.8645  0.1014 -0.5217
   51MOL   H126 9226   1.603   4.356   3.214  1.6794 -1.0777  1.1759
   51MOL   H127 9227   1.697   4.287   3.089 -2.1482 -0.9618 -2.3913
   51MOL   C128 9228   1.497   4.128   2.722 -0.6637  0.3008 -0.3172
   51MOL   C129 9229   1.433   4.214   2.618 -1.3488 -0.0478  0.6634
   51MOL   C130 9230   1.426   4.000   2.725 -0.9748 -0.0340 -0.1091
   51MOL   O131 9231   1.477   3.901   2.679  0.4573  0.5614 -0.4313
   51MOL   O132 9232   1.309   4.006   2.784 -0.0979  0.1618  0.1390
   51MOL   H133 9233   1.604   4.112   2.711 -0.5813  1.0065 -0.5685
   51MOL   H134 9234   1.324   4.219   2.625 -1.5327 -1.3672 -0.7909
   51MOL   H135 9235   1.473   4.315   2.625  0.1360 -0.5308 -0.5741
   51MOL   H136 9236   1.458   4.182   2.517 -3.3489  0.4718 -0.0365
   51MOL   C137 9237   1.208   3.907   2.758  0.2474  0.1396 -0.3499
   51MOL   C138 9238   1.070   3.951   2.820  0.3504 -0.6151  0.1060
   51MOL   C139 9239   1.249   3.773   2.817  0.1771 -0.6946 -0.1485
   51MOL   O140 9240   1.338   3.761   2.901  0.3422 -0.1898 -0.7575
   51MOL   O141 9241   1.171   3.674   2.773 -0.0069  0.2080  0.0011
   51MOL   H142 9242   1.185   3.894   2.652 -2.4227  2.1054 -0.0613
   51MOL   H143 9243   1.030   4.042   2.773  2.1426  1.2844  2.1597
   51MOL   H144 9244   0.995   3.872   2.813 -0.7172  0.2724  1.1565
   51MOL   H145 9245   1.084   3.978   2.925 -0.9719 -1.9386  0.6456
   51MOL   C146 9246   1.181   3.546   2.828 -0.2396 -0.2447  0.6836
   51MOL   C147 9247   1.112   3.439   2.747 -0.0754  0.4184  0.3217
   51MOL   C148 9248   1.123   3.547   2.970 -0.1712  0.4254 -0.0371
   51MOL   O149 9249   1.185   3.501   3.064  0.0952  0.3384 -0.3932
   51MOL   O150 9250   0.996   3.593   2.982 -0.2363 -0.2238  0.0282
   51MOL   H151 9251   1.285   3.517   2.833 -0.1436  0.4212  3.4002
   51MOL   H152 9252   1.184   3.437   2.665  1.9680 -1.9593  2.1036
   51MOL   H153 9253   1.108   3.343   2.799  0.2538  0.4208  0.3497
   51MOL   H154 9254   1.010   3.471   2.725 -0.4703 -0.8234  0.3052
   51MOL   C155 9255   0.926   3.596   3.106  0.0043  0.4506 -0.3690
   51MOL   C156 9256   0.771   3.589   3.073  0.5462 -0.0532  0.3824
   51MOL   C157 9257   0.974   3.719   3.185  0.7317  0.2677 -0.2111
   51MOL   O158 9258   1.072   3.786   3.159  0.4000 -0.0315 -0.1658
   51MOL   O159 9259   0.888   3.746   3.290 -0.0528  0.2799  0.0700
   51MOL   H160 9260   0.961   3.510   3.163  0.0172  1.8901  1.8419
   51MOL   H161 9261   0.744   3.493   3.030  0.9504  0.4011 -0.9053
   51MOL   H162 9262   0.717   3.596   3.168 -1.4313  0.4866 -0.7590
   51MOL   H163 9263   0.735   3.673   3.014  1.4661  0.8475  1.0916
   51MOL   C164 9264   0.891   3.863   3.364 -0.3285 -0.2327  0.2360
   51MOL   C165 9265   0.834   3.830   3.498  0.1393  0.3211 -0.0197
   51MOL   C166 9266   0.803   3.977   3.296 -0.2282  0.2941  0.3058
   51MOL   O167 9267   0.829   4.095   3.327 -0.3606 -0.1779  0.2885
   51MOL   O168 9268   0.711   3.935   3.210 -0.2059  0.2548 -0.0552
   51MOL   H169 9269   0.990   3.907   3.361 -0.1865 -0.6463 -1.2842
   51MOL   H170 9270   0.873   3.735   3.536  0.8531  0.5148 -0.2530
   51MOL   H171 9271   0.862   3.906   3.571 -0.9497 -0.2271  0.9779
   51MOL   H172 9272   0.726   3.819   3.492  0.5244 -2.8542 -2.6191
   51MOL   C173 9273   0.626   4.026   3.142 -0.2198  0.1914  0.0545
   51MOL   C174 9274   0.486   4.029   3.206  0.3126  0.2437  0.3406
   51MOL   C175 9275   0.633   3.986   2.993 -0.3051 -0.0795  0.4007
   51MOL   O176 9276   0.534   3.975   2.920  0.4622 -0.0238  0.0107
   51MOL   O177 9277   0.758   3.984   2.946  0.5056 -0.4622  0.3741
   51MOL   H178 9278   0.661   4.127   3.161  0.6750 -0.3330  1.2391
   51MOL   H179 9279   0.428   4.118   3.185  0.1093 -0.0074 -0.1721
   51MOL   H180 9280   0.429   3.942   3.173  0.7788  1.1360 -2.9218
   51MOL   H181 9281   0.500   4.037   3.314  0.5852  0.7857  0.2600
   51MOL   H182 9282   0.749   3.983   2.852  0.7054  1.7521  0.3027
   52MOL     C1 9283   3.432   7.215   7.484  0.7199 -0.7057 -0.5072
   52MOL     C2 9284   3.433   7.077   7.423 -0.5683  0.1119  0.1731
   52MOL     C3 9285   3.538   7.315   7.440  0.3525  0.5761  0.2068
   52MOL     O4 9286   3.626   7.359   7.512 -0.3363 -0.3772  0.2354
   52MOL     O5 9287   3.509   7.351   7.312 -0.2295  0.6362  0.3422
   52MOL     H6 9288   3.340   7.271   7.474  1.2099  0.4103  0.9837
   52MOL     H7 9289   3.360   7.005   7.459  2.7865 -2.5376  1.9133
   52MOL     H8 9290   3.426   7.092   7.315  2.6822  2.3458  0.2020
   52MOL     H9 9291   3.522   7.025   7.458 -0.5849 -0.7753 -1.0558
   52MOL    H10 9292   3.435   7.195   7.592  0.3479  0.6673 -0.2357
   52MOL    C11 9293   3.580   7.447   7.238 -0.8708  0.2950 -0.3664
   52MOL    C12 9294   3.468   7.522   7.158  0.4354 -0.0415 -0.0108
   52MOL    C13 9295   3.683   7.383   7.143  0.1403  0.1812  0.8639
   52MOL    O14 9296   3.804   7.372   7.174 -0.5112  0.7383  0.1784
   52MOL    O15 9297   3.629   7.305   7.038 -0.3627 -0.3602 -0.3027
   52MOL    H16 9298   3.628   7.523   7.301  1.3597 -1.3939  0.0152
   52MOL    H17 9299   3.509   7.612   7.112 -2.2087 -0.1688 -2.7782
   52MOL    H18 9300   3.429   7.456   7.081  1.8304 -0.9492  0.0540
   52MOL    H19 9301   3.391   7.554   7.228  1.9023  0.2593  1.4875
   52MOL    C20 9302   3.715   7.227   6.956  0.1146 -0.2927  0.6846
   52MOL    C21 9303   3.628   7.176   6.842 -0.1761 -0.9265 -0.3046
   52MOL    C22 9304   3.786   7.111   7.021 -0.5910  0.4656  0.2012
   52MOL    O23 9305   3.742   7.040   7.108 -0.6124  0.2025 -0.0392
   52MOL    O24 9306   3.903   7.092   6.954  0.0782  0.1762  0.4119
   52MOL    H25 9307   3.795   7.288   6.915 -0.3321 -0.4339 -0.4014
   52MOL    H26 9308   3.544   7.122   6.888 -0.8326 -0.5455 -1.0469
   52MOL    H27 9309   3.608   7.262   6.778  2.2038  0.0791  0.2836
   52MOL    H28 9310   3.679   7.107   6.775 -0.9109  0.7327 -2.6301
   52MOL    C29 9311   4.009   7.008   7.000 -0.3176 -0.2944 -0.6558
   52MOL    C30 9312   4.141   7.088   7.015 -0.4249 -0.0564  0.3752
   52MOL    C31 9313   4.030   6.900   6.893  0.0076 -0.1453  0.4043
   52MOL    O32 9314   4.037   6.931   6.780 -0.0477 -0.1211  0.8073
   52MOL    O33 9315   4.007   6.778   6.934  0.0285 -0.0093 -0.2603
   52MOL    H34 9316   3.992   6.948   7.089 -0.1942 -2.0848 -1.8156
   52MOL    H35 9317   4.231   7.034   7.044 -1.2969 -0.0751  3.2716
   52MOL    H36 9318   4.155   7.157   6.932  0.7873  0.6081  1.1168
   52MOL    H37 9319   4.128   7.162   7.094  0.6918  1.7696 -1.1210
   52MOL    C38 9320   4.020   6.665   6.845 -0.3967  0.0225  0.1647
   52MOL    C39 9321   3.936   6.552   6.913 -0.1551 -0.5687 -0.5340
   52MOL    C40 9322   4.163   6.628   6.821  0.3219  0.4232  0.0819
   52MOL    O41 9323   4.259   6.690   6.864 -0.5919  0.0379 -0.2105
   52MOL    O42 9324   4.175   6.516   6.745 -0.7020 -0.1476  0.3058
   52MOL    H43 9325   3.963   6.684   6.754  0.4632 -0.5211 -0.4965
   52MOL    H44 9326   3.919   6.458   6.859 -0.3386 -1.4558  1.0410
   52MOL    H45 9327   3.992   6.516   7.000 -1.4953 -1.1516  0.1039
   52MOL    H46 9328   3.835   6.582   6.942 -0.7736 -1.3266 -1.8314
   52MOL    C47 9329   4.302   6.446   6.741 -0.7480 -0.7187  0.3161
   52MOL    C48 9330   4.312   6.375   6.607  0.3657 -0.1354 -0.2661
   52MOL    C49 9331   4.319   6.345   6.851  0.3733 -0.1904  0.5251
   52MOL    O50 9332   4.424   6.336   6.916  0.0220  0.6602 -0.2454
   52MOL    O51 9333   4.206   6.269   6.874 -0.0030 -0.0373 -0.2701
   52MOL    H52 9334   4.392   6.507   6.746 -0.6892 -0.7381 -0.4457
   52MOL    H53 9335   4.247   6.289   6.595 -1.4727  1.5768 -3.3549
   52MOL    H54 9336   4.287   6.443   6.526 -1.3304 -1.6800 -1.0548
   52MOL    H55 9337   4.417   6.344   6.598  0.6192 -0.1814  2.3916
   52MOL    C56 9338   4.207   6.170   6.975 -0.2489  0.5618 -0.2433
   52MOL    C57 9339   4.083   6.076   6.945  0.0323 -0.2625  0.0938
   52MOL    C58 9340   4.191   6.219   7.118 -0.8200 -0.7311  0.1621
   52MOL    O59 9341   4.267   6.187   7.212 -0.3564  0.5789 -0.4024
   52MOL    O60 9342   4.093   6.308   7.136 -0.1719  0.2479 -0.0489
   52MOL    H61 9343   4.301   6.117   6.965  0.2098  1.6516 -2.0756
   52MOL    H62 9344   4.043   6.012   7.025  2.6486 -1.9833  0.0914
   52MOL    H63 9345   3.999   6.141   6.921  0.2533 -0.4186 -1.0997
   52MOL    H64 9346   4.109   6.016   6.858 -1.4695  0.0290 -0.5647
   52MOL    C65 9347   4.077   6.388   7.257  0.3911  0.2936 -0.2375
   52MOL    C66 9348   3.931   6.355   7.287  0.3701  0.1348 -0.2099
   52MOL    C67 9349   4.114   6.531   7.231 -0.6199  0.1306  0.6774
   52MOL    O68 9350   4.035   6.622   7.237 -0.1006  0.4879 -0.1075
   52MOL    O69 9351   4.246   6.552   7.221 -0.3066 -0.0762  0.3648
   52MOL    H70 9352   4.135   6.343   7.337 -2.6931 -2.6678  0.4549
   52MOL    H71 9353   3.914   6.251   7.316  0.2122 -0.9275 -3.9359
   52MOL    H72 9354   3.885   6.405   7.372  0.4682 -1.8542  1.0611
   52MOL    H73 9355   3.875   6.384   7.199  2.8088  3.2113 -0.8191
   52MOL    C74 9356   4.304   6.685   7.206  0.3592  0.8510 -0.2920
   52MOL    C75 9357   4.445   6.657   7.166 -0.0505 -0.5492 -0.4748
   52MOL    C76 9358   4.284   6.756   7.346  0.5578 -0.8630  0.4788
   52MOL    O77 9359   4.239   6.702   7.444 -0.4188  0.0498 -0.3032
   52MOL    O78 9360   4.322   6.891   7.334  0.1460  0.0656 -0.0922
   52MOL    H79 9361   4.245   6.732   7.128 -0.6785 -0.4202 -0.2808
   52MOL    H80 9362   4.512   6.623   7.245  0.2528 -0.6469 -0.7677
   52MOL    H81 9363   4.439   6.587   7.082 -1.8747 -0.5073 -0.3817
   52MOL    H82 9364   4.476   6.746   7.110  0.8742 -0.1469  0.6572
   52MOL    C83 9365   4.297   6.989   7.438  0.3319  0.4772  0.2745
   52MOL    C84 9366   4.406   6.993   7.546 -0.4180  0.1876 -0.5435
   52MOL    C85 9367   4.147   6.986   7.488  0.7937 -0.0199  0.4897
   52MOL    O86 9368   4.123   6.994   7.608 -0.4812  0.2835 -0.1534
   52MOL    O87 9369   4.049   6.970   7.397  0.4813  0.7874  0.2195
   52MOL    H88 9370   4.300   7.089   7.393 -0.5137  0.5721  0.4132
   52MOL    H89 9371   4.481   7.066   7.516  0.5996 -1.4138 -2.0093
   52MOL    H90 9372   4.372   7.048   7.634  0.4549  0.3214 -0.2873
   52MOL    H91 9373   4.458   6.901   7.572  1.7622  1.1629 -1.3844
   52MOL    C92 9374   3.902   6.969   7.418 -0.9148 -0.4207  0.7406
   52MOL    C93 9375   3.849   7.114   7.426 -0.1510 -1.0818 -0.5469
   52MOL    C94 9376   3.856   6.874   7.532 -0.4148  0.3498  0.5052
   52MOL    O95 9377   3.781   6.916   7.623  0.5318  0.0449  0.0141
   52MOL    O96 9378   3.916   6.758   7.522 -0.2630  0.1446  0.5026
   52MOL    H97 9379   3.859   6.926   7.328  0.2175 -1.0721  0.5008
   52MOL    H98 9380   3.901   7.170   7.504 -0.2878 -0.7450 -0.6958
   52MOL    H99 9381   3.859   7.157   7.326 -1.5440 -1.6484 -0.9380
   52MOL   H100 9382   3.741   7.118   7.439 -0.1787  2.2837 -1.1665
   52MOL   C101 9383   3.896   6.656   7.618  0.4037 -0.0462 -0.3844
   52MOL   C102 9384   4.000   6.552   7.609 -1.0225 -0.0452  0.2154
   52MOL   C103 9385   3.751   6.594   7.605  0.0564  0.3996 -0.1892
   52MOL   O104 9386   3.667   6.634   7.524  0.3059  0.3727 -0.3817
   52MOL   O105 9387   3.722   6.495   7.700  0.2932 -0.1989 -0.4078
   52MOL   H106 9388   3.904   6.695   7.719  0.6240  1.1885 -0.8697
   52MOL   H107 9389   3.970   6.465   7.667 -0.2239 -0.8905 -0.6098
   52MOL   H108 9390   4.026   6.509   7.512  1.4542  0.4617  0.6074
   52MOL   H109 9391   4.095   6.584   7.653  0.4018 -0.4537 -2.4581
   52MOL   C110 9392   3.603   6.417   7.668  0.2525 -0.2009 -0.0823
   52MOL   C111 9393   3.537   6.364   7.803 -0.1709  0.0658  0.7931
   52MOL   C112 9394   3.653   6.296   7.580 -0.6176 -0.3800 -1.3597
   52MOL   O113 9395   3.772   6.259   7.574  0.1568  0.1907  0.1220
   52MOL   O114 9396   3.538   6.235   7.530 -0.9842  0.1796  0.0400
   52MOL   H115 9397   3.539   6.484   7.612  0.0909 -1.2752 -1.1997
   52MOL   H116 9398   3.535   6.445   7.876  1.5378  0.9500 -0.1090
   52MOL   H117 9399   3.441   6.322   7.772 -0.0325 -0.3295  0.9153
   52MOL   H118 9400   3.605   6.287   7.839 -1.8081 -1.1412  1.3675
   52MOL   C119 9401   3.557   6.107   7.478  0.4890 -0.7578  0.1283
   52MOL   C120 9402   3.436   6.075   7.385  0.9596  0.0381 -0.2010
   52MOL   C121 9403   3.584   5.989   7.577  0.0996 -0.6824 -0.3325
   52MOL   O122 9404   3.598   6.013   7.696  0.6199  0.1068 -0.8208
   52MOL   O123 9405   3.592   5.866   7.518  0.6340 -0.0682  0.2103
   52MOL   H124 9406   3.641   6.108   7.408  0.7238  4.5963  0.2789
   52MOL   H125 9407   3.427   5.989   7.318  1.7392 -1.6048  1.7289
   52MOL   H126 9408   3.347   6.073   7.449  0.3884  1.3952 -0.9552
   52MOL   H127 9409   3.415   6.155   7.315 -1.4058  1.5502  2.1534
   52MOL   C128 9410   3.624   5.753   7.608  0.8777  0.4680 -0.3493
   52MOL   C129 9411   3.710   5.652   7.527 -0.2164  0.1594 -0.7309
   52MOL   C130 9412   3.504   5.698   7.673 -0.7206 -0.3791 -0.3109
   52MOL   O131 9413   3.500   5.695   7.795 -0.5468  0.0505 -0.4279
   52MOL   O132 9414   3.414   5.649   7.584  0.5158 -0.1427  0.1690
   52MOL   H133 9415   3.690   5.787   7.687 -0.2548 -0.4134  1.0103
   52MOL   H134 9416   3.650   5.620   7.441 -0.1958  1.8959 -1.4311
   52MOL   H135 9417   3.801   5.707   7.500 -0.2774  1.5880  1.8099
   52MOL   H136 9418   3.732   5.570   7.595 -1.6013  0.0099 -0.4602
   52MOL   C137 9419   3.285   5.602   7.627  0.3032  0.0278 -0.0482
   52MOL   C138 9420   3.193   5.582   7.505 -0.0183  0.5283 -0.6390
   52MOL   C139 9421   3.214   5.701   7.726  0.3697  0.5650 -0.1892
   52MOL   O140 9422   3.208   5.660   7.846  0.1192  0.1214  0.2482
   52MOL   O141 9423   3.155   5.820   7.670  0.0925  0.4653 -0.6394
   52MOL   H142 9424   3.302   5.505   7.673 -1.5577  0.1507  0.9467
   52MOL   H143 9425   3.232   5.515   7.428  0.4235  0.8570 -0.7016
   52MOL   H144 9426   3.093   5.544   7.526  0.3233 -1.0875 -1.8294
   52MOL   H145 9427   3.180   5.682   7.462  3.0242  1.1600 -0.1933
   52MOL   C146 9428   3.068   5.899   7.750 -0.2613 -0.1800 -0.1830
   52MOL   C147 9429   2.928   5.870   7.683  0.3867  0.7832  0.2716
   52MOL   C148 9430   3.107   6.049   7.725  0.0080 -0.3184 -0.4157
   52MOL   O149 9431   3.212   6.076   7.670  0.3789 -0.4815 -0.2029
   52MOL   O150 9432   3.021   6.140   7.780  0.4058  0.2999  0.0197
   52MOL   H151 9433   3.058   5.870   7.855 -3.1641 -0.7765 -0.5946
   52MOL   H152 9434   2.946   5.868   7.575 -0.6545  2.5404  0.0444
   52MOL   H153 9435   2.910   5.768   7.718  0.3771  1.2159  1.5448
   52MOL   H154 9436   2.842   5.933   7.702 -1.0337 -1.4950  1.6400
   52MOL   C155 9437   3.041   6.283   7.776 -0.2549  0.4261 -0.2731
   52MOL   C156 9438   2.954   6.349   7.885  0.3663  0.1071  0.1358
   52MOL   C157 9439   3.010   6.343   7.638  0.0520  0.6176  0.1755
   52MOL   O158 9440   2.990   6.275   7.541  0.0146  1.0302 -0.1812
   52MOL   O159 9441   3.020   6.481   7.630  0.1919  0.6956  0.1704
   52MOL   H160 9442   3.147   6.308   7.787 -0.5604  1.5614  0.1463
   52MOL   H161 9443   2.951   6.290   7.977  1.9074  1.5862  1.1714
   52MOL   H162 9444   2.992   6.449   7.907  0.8113 -0.0789  0.2331
   52MOL   H163 9445   2.851   6.337   7.852 -0.0770 -0.0859  1.5506
   52MOL   C164 9446   2.992   6.547   7.510 -0.7299  0.5114  0.4515
   52MOL   C165 9447   3.020   6.693   7.532 -0.4620  0.8227  0.0340
   52MOL   C166 9448   2.845   6.536   7.480  0.8928 -1.0908 -0.6280
   52MOL   O167 9449   2.804   6.534   7.364 -0.3517  0.0877  0.0595
   52MOL   O168 9450   2.762   6.539   7.584 -0.2776 -0.3313  0.1399
   52MOL   H169 9451   3.060   6.511   7.433 -0.1555  1.5918  0.4442
   52MOL   H170 9452   3.122   6.707   7.567 -0.9246  0.9219  1.3762
   52MOL   H171 9453   3.016   6.743   7.435  1.7195 -2.1317 -1.6653
   52MOL   H172 9454   2.949   6.736   7.602 -0.5877  2.7669 -1.2544
   52MOL   C173 9455   2.622   6.507   7.573  0.0541  0.0574 -0.0428
   52MOL   C174 9456   2.547   6.557   7.696 -0.3702  0.3529  0.8134
   52MOL   C175 9457   2.609   6.353   7.548  0.5215 -0.0896  0.9024
   52MOL   O176 9458   2.559   6.308   7.440 -0.5495 -0.3727  0.3052
   52MOL   O177 9459   2.666   6.283   7.648 -0.0014 -0.1314 -0.3237
   52MOL   H178 9460   2.582   6.569   7.492  3.4666  3.3376  0.6477
   52MOL   H179 9461   2.533   6.665   7.693 -2.8005  0.0332 -2.3525
   52MOL   H180 9462   2.446   6.516   7.693 -0.5055  0.7193  0.3445
   52MOL   H181 9463   2.599   6.519   7.784 -1.4378 -0.5007  1.0859
   52MOL   H182 9464   2.670   6.191   7.626  0.0999 -0.1953 -0.0492
   53MOL     C1 9465   7.191   1.156   7.176  0.3375 -0.5733  0.3298
   53MOL     C2 9466   7.342   1.144   7.180  0.1989  0.3179  0.0001
   53MOL     C3 9467   7.128   1.029   7.239 -0.1584  0.2350  0.8661
   53MOL     O4 9468   7.114   1.014   7.359 -0.5894  0.4040  0.1406
   53MOL     O5 9469   7.107   0.936   7.153  0.3913 -0.1345  0.4643
   53MOL     H6 9470   7.149   1.242   7.227 -1.1522 -0.2753 -1.3522
   53MOL     H7 9471   7.371   1.046   7.141  1.9009  0.4843  0.8228
   53MOL     H8 9472   7.389   1.211   7.109  0.1487  1.1745  0.7725
   53MOL     H9 9473   7.387   1.162   7.278  2.5156 -1.8804 -0.6196
   53MOL    H10 9474   7.155   1.178   7.075  1.9339  0.7961  0.0212
   53MOL    C11 9475   7.053   0.811   7.201 -0.5851  0.6306  0.3171
   53MOL    C12 9476   7.165   0.732   7.268 -0.1540 -0.2912 -0.8645
   53MOL    C13 9477   6.998   0.740   7.078 -0.3248  0.9085 -0.2859
   53MOL    O14 9478   6.878   0.716   7.070  0.3127 -0.1850 -0.7393
   53MOL    O15 9479   7.096   0.705   6.991  0.2867  0.3596 -0.3053
   53MOL    H16 9480   6.977   0.822   7.278  0.4452 -1.1453  1.6252
   53MOL    H17 9481   7.125   0.650   7.328  1.4001  1.5562  2.8477
   53MOL    H18 9482   7.247   0.706   7.201  0.7224  0.4141 -0.0744
   53MOL    H19 9483   7.218   0.794   7.339 -1.2850  0.4859 -0.6867
   53MOL    C20 9484   7.065   0.641   6.871  0.5565  0.0553 -0.0319
   53MOL    C21 9485   7.138   0.507   6.853  0.3709  0.5590  0.1170
   53MOL    C22 9486   7.083   0.735   6.756 -0.3319 -0.3625 -0.3066
   53MOL    O23 9487   7.123   0.699   6.648  0.2119 -0.2224 -0.4945
   53MOL    O24 9488   7.032   0.860   6.780  0.3158 -0.2978 -0.0057
   53MOL    H25 9489   6.960   0.614   6.864  0.4156  0.8868 -1.3521
   53MOL    H26 9490   7.244   0.532   6.847  0.7717 -1.4520 -1.6801
   53MOL    H27 9491   7.144   0.445   6.942  3.4386  1.3020  0.4759
   53MOL    H28 9492   7.105   0.450   6.766 -0.0683  0.5153  0.3095
   53MOL    C29 9493   7.041   0.961   6.682 -0.4067  0.0899  0.0301
   53MOL    C30 9494   7.036   1.100   6.752 -0.3051  0.9731  0.7418
   53MOL    C31 9495   6.933   0.951   6.580  0.3454  0.2488 -0.1739
   53MOL    O32 9496   6.827   0.897   6.612  0.6182  0.0789  0.1772
   53MOL    O33 9497   6.964   1.008   6.456 -0.0458 -0.4529  0.3372
   53MOL    H34 9498   7.137   0.955   6.631 -0.9138 -0.0373 -0.9155
   53MOL    H35 9499   6.931   1.123   6.769 -0.9056 -0.1604 -1.2703
   53MOL    H36 9500   7.077   1.079   6.851 -2.7017 -0.5644  1.4453
   53MOL    H37 9501   7.086   1.172   6.688  0.5488 -0.6969 -0.5298
   53MOL    C38 9502   6.860   1.023   6.367  0.2341  0.5612 -0.3396
   53MOL    C39 9503   6.914   1.008   6.222  0.0848 -0.3907 -0.5923
   53MOL    C40 9504   6.776   1.146   6.402 -0.2489  0.7525  0.2220
   53MOL    O41 9505   6.657   1.130   6.423  0.9547 -0.2496 -0.3697
   53MOL    O42 9506   6.848   1.256   6.399  0.0449 -0.4024 -0.3654
   53MOL    H43 9507   6.785   0.944   6.371  0.8674 -0.0966 -1.2772
   53MOL    H44 9508   6.965   0.912   6.221  1.9307  0.5670 -2.1503
   53MOL    H45 9509   6.828   1.000   6.156 -0.0933 -1.1769 -0.2720
   53MOL    H46 9510   6.966   1.093   6.179 -0.4399  0.5183  0.5463
   53MOL    C47 9511   6.785   1.376   6.425 -0.3590 -0.7066  0.8206
   53MOL    C48 9512   6.888   1.485   6.385 -1.0047  0.3661  0.4030
   53MOL    C49 9513   6.741   1.393   6.568  0.3762 -0.3115 -0.0931
   53MOL    O50 9514   6.782   1.324   6.662  0.2464  0.3441 -0.1855
   53MOL    O51 9515   6.649   1.490   6.570 -0.2380 -0.6917 -0.0608
   53MOL    H52 9516   6.701   1.375   6.355 -0.4965 -2.2905  1.0015
   53MOL    H53 9517   6.948   1.439   6.307  0.3209  0.6988  1.2035
   53MOL    H54 9518   6.836   1.571   6.344  2.3316  1.0575 -2.6282
   53MOL    H55 9519   6.953   1.511   6.469  1.7716 -2.3827 -0.8163
   53MOL    C56 9520   6.580   1.534   6.691 -0.2906  0.3310 -0.3911
   53MOL    C57 9521   6.475   1.643   6.645 -0.0090  0.4695 -0.6915
   53MOL    C58 9522   6.681   1.583   6.795  0.7556  0.1360 -0.1032
   53MOL    O59 9523   6.802   1.616   6.766  0.0529  0.5064  0.6126
   53MOL    O60 9524   6.631   1.584   6.920  0.6579  0.3926  0.3650
   53MOL    H61 9525   6.529   1.449   6.736 -1.5486  1.5600  0.5566
   53MOL    H62 9526   6.448   1.633   6.540 -0.1356 -0.6235 -0.5618
   53MOL    H63 9527   6.389   1.625   6.708  1.1877  0.1625  0.8861
   53MOL    H64 9528   6.504   1.747   6.664  1.5023 -0.1040  0.2992
   53MOL    C65 9529   6.703   1.586   7.043  0.0651 -0.8104  0.1730
   53MOL    C66 9530   6.774   1.723   7.056 -0.2552 -0.1904  0.4235
   53MOL    C67 9531   6.793   1.465   7.049 -0.4522 -1.0783 -0.1672
   53MOL    O68 9532   6.905   1.465   7.094 -0.5364 -0.3157  0.7641
   53MOL    O69 9533   6.722   1.356   7.021 -0.0753  0.3539 -0.7510
   53MOL    H70 9534   6.630   1.581   7.123 -0.0492 -2.1002  0.0126
   53MOL    H71 9535   6.732   1.818   7.023  0.2151 -0.5606 -1.3149
   53MOL    H72 9536   6.799   1.722   7.162  0.7232  0.2900  0.2127
   53MOL    H73 9537   6.866   1.723   6.997 -0.2916 -0.1460  0.3683
   53MOL    C74 9538   6.776   1.223   7.037 -0.2275 -0.3833 -0.6967
   53MOL    C75 9539   6.679   1.125   6.957 -0.0990 -0.1462  0.5904
   53MOL    C76 9540   6.773   1.180   7.188  0.4731 -0.2811  0.1018
   53MOL    O77 9541   6.807   1.068   7.225 -0.2441  0.5231 -0.0636
   53MOL    O78 9542   6.715   1.277   7.266  0.4344  0.0115 -0.0338
   53MOL    H79 9543   6.876   1.208   6.995 -0.8696 -0.2592 -2.3394
   53MOL    H80 9544   6.703   1.019   6.956 -2.0779 -0.5910 -0.7623
   53MOL    H81 9545   6.581   1.154   6.995  0.1363  0.5276  0.7001
   53MOL    H82 9546   6.675   1.154   6.852 -2.0628  0.2890  0.7721
   53MOL    C83 9547   6.707   1.249   7.403 -0.4331 -0.1355  0.2217
   53MOL    C84 9548   6.626   1.356   7.468  0.1092 -0.1006 -0.5478
   53MOL    C85 9549   6.850   1.252   7.479  0.7574 -0.1671 -0.4636
   53MOL    O86 9550   6.949   1.295   7.426  0.2715  0.0088  0.0964
   53MOL    O87 9551   6.839   1.211   7.606  0.8741  0.1303  0.1454
   53MOL    H88 9552   6.656   1.154   7.422  0.6318 -0.6700  0.4130
   53MOL    H89 9553   6.659   1.458   7.450  0.2071  0.2382  1.3831
   53MOL    H90 9554   6.524   1.361   7.430  0.4568 -0.5968 -1.5452
   53MOL    H91 9555   6.603   1.336   7.573  0.5774 -1.7409 -0.7558
   53MOL    C92 9556   6.922   1.263   7.710  0.4523  0.4906  0.2943
   53MOL    C93 9557   6.901   1.203   7.853  0.0541  0.7219  0.1692
   53MOL    C94 9558   6.882   1.410   7.726  0.7405 -0.3926 -0.3091
   53MOL    O95 9559   6.774   1.455   7.707  0.4225 -0.5236 -0.7034
   53MOL    O96 9560   6.988   1.483   7.780  1.0210 -0.1491 -0.4925
   53MOL    H97 9561   7.026   1.254   7.680 -0.0588 -3.0120 -0.6725
   53MOL    H98 9562   6.936   1.269   7.932  0.3840  1.5030 -0.6237
   53MOL    H99 9563   6.796   1.184   7.871  0.1064  0.1349 -0.1059
   53MOL   H100 9564   6.950   1.107   7.872  0.0942  0.5311 -0.8521
   53MOL   C101 9565   6.968   1.616   7.825 -0.6517 -0.3744 -0.1174
   53MOL   C102 9566   7.111   1.677   7.815  0.0506 -0.0517 -0.0941
   53MOL   C103 9567   6.912   1.617   7.971 -0.4271  0.3725  0.1135
   53MOL   O104 9568   6.884   1.730   8.020 -0.0317  0.2132  0.0488
   53MOL   O105 9569   6.911   1.493   8.031  0.2546  0.1176  0.0176
   53MOL   H106 9570   6.906   1.670   7.753  0.0877 -1.4420 -1.5814
   53MOL   H107 9571   7.146   1.680   7.712  1.5848 -0.8843  0.3965
   53MOL   H108 9572   7.095   1.772   7.866 -3.0941 -0.8457  0.5661
   53MOL   H109 9573   7.184   1.618   7.871  1.4379  1.0505 -0.7169
   53MOL   C110 9574   6.864   1.475   0.011 -0.1309 -0.5084  0.4461
   53MOL   C111 9575   6.950   1.363   0.071  0.2296  0.4347 -0.2120
   53MOL   C112 9576   6.714   1.448   0.006 -0.0135 -0.1151 -0.1035
   53MOL   O113 9577   6.670   1.346   0.053  0.6680 -0.7963 -0.3544
   53MOL   O114 9578   6.644   1.560   8.115  0.1566 -0.0023  0.1847
   53MOL   H115 9579   6.874   1.562   0.076  1.9887 -1.6983  1.8084
   53MOL   H116 9580   6.956   1.279   0.002 -1.8060 -0.3396  0.4894
   53MOL   H117 9581   7.051   1.400   0.083 -0.6799  2.6058  1.0076
   53MOL   H118 9582   6.915   1.320   0.165 -0.1271 -0.9790 -0.9691
   53MOL   C119 9583   6.503   1.556   0.000 -0.6863  0.2941  0.6214
   53MOL   C120 9584   6.444   1.666   8.057  0.4843  0.3881 -0.4556
   53MOL   C121 9585   6.487   1.584   0.151  0.4140 -0.3354  0.0772
   53MOL   O122 9586   6.457   1.501   0.235  0.0784  0.5474  0.1849
   53MOL   O123 9587   6.513   1.710   0.192 -0.0611  0.2269  0.7455
   53MOL   H124 9588   6.457   1.461   8.119  0.1661 -0.0477  0.3798
   53MOL   H125 9589   6.495   1.761   8.073  1.8772 -0.6235  1.3704
   53MOL   H126 9590   6.442   1.643   7.950 -1.7954 -0.0616 -0.3287
   53MOL   H127 9591   6.338   1.681   8.075  0.9388  1.5283  1.4636
   53MOL   C128 9592   6.501   1.749   0.330 -0.0253  0.0016  0.3788
   53MOL   C129 9593   6.351   1.744   0.369 -0.1503 -0.6740 -0.5140
   53MOL   C130 9594   6.554   1.892   0.343 -0.1944 -0.4450  0.0793
   53MOL   O131 9595   6.469   1.982   0.338 -1.0467 -0.2512 -0.0676
   53MOL   O132 9596   6.688   1.896   0.365  0.2714 -0.3399 -0.2362
   53MOL   H133 9597   6.558   1.678   0.391  1.4831  2.1889  1.5804
   53MOL   H134 9598   6.324   1.785   0.466  0.2665  2.0702 -1.5355
   53MOL   H135 9599   6.281   1.787   0.297 -0.2608 -1.6549 -1.0144
   53MOL   H136 9600   6.321   1.642   0.394  1.3342 -0.6236  1.5802
   53MOL   C137 9601   6.753   2.015   0.407 -0.1823 -0.9351  0.0013
   53MOL   C138 9602   6.898   1.983   0.397  0.4453 -0.6577 -0.1664
   53MOL   C139 9603   6.714   2.047   0.551  0.5872  0.5470 -0.1253
   53MOL   O140 9604   6.683   2.160   0.575 -0.0743 -0.3029 -0.6512
   53MOL   O141 9605   6.724   1.946   0.640 -0.4685 -0.3335  0.2053
   53MOL   H142 9606   6.729   2.096   0.338 -0.0295 -1.0908 -0.2341
   53MOL   H143 9607   6.927   1.904   0.467  1.9068 -0.7544 -0.8675
   53MOL   H144 9608   6.921   1.938   0.301 -2.4992  1.5710 -1.9899
   53MOL   H145 9609   6.965   2.064   0.425 -0.1833 -0.1541 -0.1137
   53MOL   C146 9610   6.655   1.959   0.765 -0.1187  0.3839 -0.7595
   53MOL   C147 9611   6.725   1.868   0.863  0.1262 -0.4363  0.6036
   53MOL   C148 9612   6.508   1.926   0.735 -0.0007 -0.5742 -0.4661
   53MOL   O149 9613   6.468   1.817   0.702 -0.2414  0.3501 -0.2020
   53MOL   O150 9614   6.434   2.030   0.756 -0.1343  0.2349 -0.5580
   53MOL   H151 9615   6.677   2.062   0.794 -1.8996  0.8919 -1.1305
   53MOL   H152 9616   6.751   1.778   0.806 -0.3079 -1.3319  1.8049
   53MOL   H153 9617   6.814   1.919   0.899 -0.7679  2.3337 -0.9633
   53MOL   H154 9618   6.663   1.854   0.951  1.0631  1.4526  1.5826
   53MOL   C155 9619   6.294   2.027   0.737 -0.1789  0.3137  0.2137
   53MOL   C156 9620   6.253   2.118   0.612 -0.2654  0.6668  0.5579
   53MOL   C157 9621   6.233   2.083   0.872  0.2208  0.3697  0.4484
   53MOL   O158 9622   6.145   2.165   0.876  0.0441 -0.6310  0.3851
   53MOL   O159 9623   6.297   2.019   0.977 -0.2275 -0.0553  0.3443
   53MOL   H160 9624   6.266   1.923   0.722  0.0264  0.1105  1.2193
   53MOL   H161 9625   6.325   2.097   0.533  0.2672  2.1446  0.6310
   53MOL   H162 9626   6.148   2.109   0.581  0.6888 -3.0899 -2.0136
   53MOL   H163 9627   6.272   2.224   0.629 -3.8367  1.8629 -2.1303
   53MOL   C164 9628   6.246   2.055   1.107 -0.1887 -0.2601  0.2815
   53MOL   C165 9629   6.379   2.035   1.190  0.2935 -0.9395  0.4590
   53MOL   C166 9630   6.119   1.966   1.137 -0.2999  0.5168 -0.8582
   53MOL   O167 9631   6.029   1.939   1.057 -0.2618  0.1904  0.5804
   53MOL   O168 9632   6.120   1.922   1.270  0.5155  0.3477  0.8663
   53MOL   H169 9633   6.204   2.156   1.107 -1.0035 -0.5961 -0.0166
   53MOL   H170 9634   6.353   2.055   1.294  0.9914  1.6218  0.1647
   53MOL   H171 9635   6.425   1.936   1.196  0.9513 -0.5163  2.9448
   53MOL   H172 9636   6.454   2.108   1.160 -0.5180 -0.3517 -0.1335
   53MOL   C173 9637   6.009   1.851   1.318  0.2612  0.4055  0.1079
   53MOL   C174 9638   5.934   1.921   1.434  0.9917  0.6274 -0.2331
   53MOL   C175 9639   6.066   1.716   1.352 -0.0111 -0.5956 -0.1031
   53MOL   O176 9640   6.055   1.653   1.461 -0.6096 -0.3369  0.0282
   53MOL   O177 9641   6.121   1.667   1.246  0.4942  0.1211  0.4447
   53MOL   H178 9642   5.940   1.835   1.235  0.9970  1.1814 -0.6696
   53MOL   H179 9643   5.988   1.917   1.529  2.0479 -0.2187 -0.8501
   53MOL   H180 9644   5.909   2.022   1.402 -0.0910  0.7524  0.9770
   53MOL   H181 9645   5.837   1.872   1.443  0.3889  1.5189 -1.7061
   53MOL   H182 9646   6.142   1.575   1.252 -0.2984 -0.1469 -0.6633
   54MOL     C1 9647   4.595   1.939   8.101  0.2779  0.1693 -0.0092
   54MOL     C2 9648   4.473   1.847   8.101  0.6801 -0.4487 -0.2577
   54MOL     C3 9649   4.551   2.083   8.054  0.0546 -0.4066 -0.5420
   54MOL     O4 9650   4.456   2.139   8.103 -0.7212  0.7197  0.1688
   54MOL     O5 9651   4.621   2.125   7.948 -0.5384  0.0822 -0.3298
   54MOL     H6 9652   4.629   1.949   0.056 -2.4344 -1.6759  1.1183
   54MOL     H7 9653   4.381   1.898   8.130  0.4061 -0.2671 -1.4165
   54MOL     H8 9654   4.466   1.820   7.995  2.2608 -1.7737 -0.0586
   54MOL     H9 9655   4.475   1.762   0.022 -0.7203  1.7479  2.5852
   54MOL    H10 9656   4.679   1.895   8.047  1.0527 -0.0716  1.3684
   54MOL    C11 9657   4.589   2.253   7.888  0.3143 -0.5436  0.6150
   54MOL    C12 9658   4.669   2.255   7.758  0.1222 -0.2310  0.2499
   54MOL    C13 9659   4.641   2.372   7.973 -0.0660  0.6211  0.0111
   54MOL    O14 9660   4.581   2.481   7.966  0.1019  0.0399 -0.3737
   54MOL    O15 9661   4.747   2.348   8.045 -0.3088  0.0078  0.1783
   54MOL    H16 9662   4.481   2.267   7.875  0.4062  1.8706  2.2091
   54MOL    H17 9663   4.776   2.271   7.775  0.3597 -0.9914 -0.4833
   54MOL    H18 9664   4.655   2.163   7.702  1.4413 -0.7690  0.7746
   54MOL    H19 9665   4.639   2.337   7.693 -0.3159 -0.7830 -0.2431
   54MOL    C20 9666   4.794   2.440   8.137  0.7197 -0.0474 -0.3613
   54MOL    C21 9667   4.940   2.465   8.086 -0.1382  0.4634  0.0367
   54MOL    C22 9668   4.790   2.384   0.128  0.4466 -0.6895 -0.1070
   54MOL    O23 9669   4.777   2.261   0.144 -0.1239 -0.6126 -0.0950
   54MOL    O24 9670   4.788   2.475   0.225  0.3148 -0.1633  0.3395
   54MOL    H25 9671   4.735   2.531   8.133  0.5101 -0.2408 -2.1558
   54MOL    H26 9672   4.933   2.479   7.978  1.0250 -1.0136 -0.2444
   54MOL    H27 9673   4.984   2.554   8.131 -0.2914 -0.3173  1.7415
   54MOL    H28 9674   4.998   2.377   8.112 -1.1084 -0.7391 -1.6972
   54MOL    C29 9675   4.793   2.433   0.363  0.0594 -0.2945  0.0923
   54MOL    C30 9676   4.754   2.564   0.436  0.1845  0.0227  0.3077
   54MOL    C31 9677   4.927   2.370   0.396 -0.0963 -0.1878 -0.1602
   54MOL    O32 9678   4.939   2.250   0.419  0.2030  0.1622 -0.1262
   54MOL    O33 9679   5.026   2.470   0.389 -0.2758  0.2387 -0.0383
   54MOL    H34 9680   4.715   2.357   0.372 -0.1689  0.0239  0.7769
   54MOL    H35 9681   4.729   2.546   0.540  0.0307 -2.6664 -0.1634
   54MOL    H36 9682   4.824   2.644   0.410 -1.8317  1.7820  0.0845
   54MOL    H37 9683   4.655   2.594   0.401 -0.2445 -1.4435  0.2256
   54MOL    C38 9684   5.165   2.440   0.405 -0.2649 -0.2471  0.2191
   54MOL    C39 9685   5.242   2.573   0.416  0.3427 -0.0315  0.6454
   54MOL    C40 9686   5.218   2.369   0.281  0.6494 -0.5962 -0.9379
   54MOL    O41 9687   5.194   2.412   0.172 -0.8016 -0.6986  0.2871
   54MOL    O42 9688   5.294   2.259   0.313  0.0575 -0.5278  0.3263
   54MOL    H43 9689   5.164   2.374   0.493 -0.6875  0.6555  0.8967
   54MOL    H44 9690   5.345   2.565   0.450  0.7704  2.9227  0.1522
   54MOL    H45 9691   5.238   2.609   0.313  1.9401 -0.0013  0.5905
   54MOL    H46 9692   5.198   2.644   0.486 -0.8020 -0.6607  0.5899
   54MOL    C47 9693   5.371   2.199   0.209 -0.0866  0.7470  0.1835
   54MOL    C48 9694   5.417   2.070   0.268 -0.0138 -0.2614  0.0061
   54MOL    C49 9695   5.492   2.290   0.173 -0.2428 -1.0533 -0.7815
   54MOL    O50 9696   5.520   2.385   0.240 -0.6423  0.2060 -0.3477
   54MOL    O51 9697   5.552   2.245   0.059  0.0371 -0.1477 -0.3906
   54MOL    H52 9698   5.316   2.185   0.116  0.7212 -1.0710 -0.0309
   54MOL    H53 9699   5.493   2.023   0.205 -0.8962 -1.2901 -0.3036
   54MOL    H54 9700   5.470   2.081   0.363  0.8839 -0.2188 -0.4953
   54MOL    H55 9701   5.336   1.999   0.285  1.3210 -1.3618  2.0581
   54MOL    C56 9702   5.667   2.317   0.009 -0.1360  0.0960 -0.0107
   54MOL    C57 9703   5.664   2.297   8.008  0.1971  0.4044 -0.0292
   54MOL    C58 9704   5.797   2.282   0.083 -1.0921 -0.4124  0.4221
   54MOL    O59 9705   5.909   2.286   0.031 -0.0467 -0.1835 -0.2201
   54MOL    O60 9706   5.773   2.228   0.201  0.3509  0.4723  0.1504
   54MOL    H61 9707   5.664   2.424   0.026 -0.4552  0.2597 -1.0435
   54MOL    H62 9708   5.652   2.192   7.982  1.3738  0.0628  0.7683
   54MOL    H63 9709   5.578   2.345   7.961  1.0282  1.9481 -0.0053
   54MOL    H64 9710   5.751   2.330   7.951  2.0443 -3.0034  0.7311
   54MOL    C65 9711   5.876   2.194   0.295  0.6852 -0.2021 -0.1435
   54MOL    C66 9712   5.809   2.101   0.393  0.0196 -0.2339 -0.4145
   54MOL    C67 9713   5.919   2.324   0.365  0.2577 -0.7896  0.2034
   54MOL    O68 9714   5.957   2.321   0.484 -0.7673  0.2143 -0.3639
   54MOL    O69 9715   5.941   2.427   0.282 -0.3146  0.2583 -0.0073
   54MOL    H70 9716   5.962   2.152   0.242  1.0269 -1.4094  1.3305
   54MOL    H71 9717   5.732   2.153   0.450 -1.0814 -0.9651 -1.2135
   54MOL    H72 9718   5.756   2.018   0.346  0.5194 -1.3486  0.9446
   54MOL    H73 9719   5.884   2.069   0.465 -0.5210 -0.3284  0.1142
   54MOL    C74 9720   6.020   2.541   0.323 -0.0955  0.6338  0.5597
   54MOL    C75 9721   5.928   2.641   0.397  0.1084  1.0487 -0.0152
   54MOL    C76 9722   6.062   2.601   0.188  0.0592 -0.2421 -0.4780
   54MOL    O77 9723   6.041   2.721   0.167 -0.5800  0.1989 -0.0509
   54MOL    O78 9724   6.145   2.512   0.120  0.3246  0.0794 -0.8558
   54MOL    H79 9725   6.107   2.516   0.383  1.8609  0.7072 -2.1659
   54MOL    H80 9726   5.990   2.721   0.437  0.9573  1.1045 -1.3940
   54MOL    H81 9727   5.843   2.680   0.341 -0.5808 -0.2590  0.0949
   54MOL    H82 9728   5.889   2.586   0.482 -1.9877  2.6374  0.0841
   54MOL    C83 9729   6.226   2.569   0.014  1.0428  0.7559 -0.2399
   54MOL    C84 9730   6.188   2.488   8.033  0.1167 -0.2323  0.3493
   54MOL    C85 9731   6.374   2.576   0.041  0.3139 -0.1313  0.5065
   54MOL    O86 9732   6.452   2.637   8.111  1.2044 -0.3548  0.2463
   54MOL    O87 9733   6.410   2.496   0.149  0.4308 -0.5713  0.6638
   54MOL    H88 9734   6.195   2.671   8.137  0.3928  0.3646 -1.0328
   54MOL    H89 9735   6.195   2.379   8.042 -0.1846 -0.3269 -0.4676
   54MOL    H90 9736   6.086   2.495   7.997  0.1737 -0.5275  0.1224
   54MOL    H91 9737   6.264   2.515   7.959 -1.0379  1.6518 -0.1689
   54MOL    C92 9738   6.541   2.506   0.215 -0.0270  1.0350  0.7695
   54MOL    C93 9739   6.548   2.401   0.329 -0.4735 -0.8371  0.5702
   54MOL    C94 9740   6.568   2.643   0.271  0.0701  0.0569 -0.2341
   54MOL    O95 9741   6.683   2.690   0.272  0.9307  0.0961 -0.2553
   54MOL    O96 9742   6.462   2.701   0.331  0.3868 -0.0720 -0.0676
   54MOL    H97 9743   6.617   2.481   0.141 -0.8376 -0.9995  0.6018
   54MOL    H98 9744   6.448   2.402   0.373  0.0716  1.6218  1.8574
   54MOL    H99 9745   6.584   2.305   0.292  3.0112 -0.0795  1.7549
   54MOL   H100 9746   6.630   2.435   0.393 -0.4023  2.0568 -0.9811
   54MOL   C101 9747   6.473   2.832   0.387 -0.2439  0.2776 -0.4199
   54MOL   C102 9748   6.361   2.842   0.494 -0.3136  0.5291 -0.1090
   54MOL   C103 9749   6.461   2.937   0.276  0.0860  0.8510 -0.0879
   54MOL   O104 9750   6.542   3.031   0.286 -0.2005  0.2397 -0.2280
   54MOL   O105 9751   6.367   2.915   0.186 -0.1885 -0.1871 -0.4670
   54MOL   H106 9752   6.573   2.843   0.429 -0.0053  0.0126 -0.9139
   54MOL   H107 9753   6.269   2.826   0.437  1.1979 -1.6195 -2.0201
   54MOL   H108 9754   6.379   2.758   0.561  0.1172  2.1306  1.8177
   54MOL   H109 9755   6.350   2.940   0.540 -0.1866  1.1730 -1.4341
   54MOL   C110 9756   6.350   3.006   0.079  0.2512  0.3554 -0.2101
   54MOL   C111 9757   6.193   2.981   0.042 -0.2373 -0.3182  0.2385
   54MOL   C112 9758   6.440   2.971   8.111 -0.1239  0.1882 -0.0394
   54MOL   O113 9759   6.391   2.917   8.005  0.1318 -0.4741 -0.2430
   54MOL   O114 9760   6.569   2.978   8.133  0.4787 -0.4682 -0.1223
   54MOL   H115 9761   6.362   3.109   0.113 -0.9382  0.4454 -0.0334
   54MOL   H116 9762   6.182   2.878   0.008  0.9974  0.1165 -1.5299
   54MOL   H117 9763   6.121   2.995   0.123  1.1612 -2.3594  1.9142
   54MOL   H118 9764   6.174   3.051   8.109  0.1645 -1.0088 -0.4617
   54MOL   C119 9765   6.662   2.935   8.039 -0.1252 -0.1453  1.5556
   54MOL   C120 9766   6.791   2.893   8.123  0.2029  0.2721  0.4585
   54MOL   C121 9767   6.700   3.048   7.929  0.2276  0.4847 -0.1879
   54MOL   O122 9768   6.788   3.131   7.941  0.4718  0.1009  0.2327
   54MOL   O123 9769   6.598   3.058   7.841 -0.4683 -0.6912  0.2780
   54MOL   H124 9770   6.624   2.841   8.000  1.5320 -2.1258  4.4947
   54MOL   H125 9771   6.787   2.802   0.036 -1.1570 -1.2122 -1.7479
   54MOL   H126 9772   6.875   2.860   8.060 -1.8932 -0.0350 -2.2801
   54MOL   H127 9773   6.826   2.980   0.029 -2.0876  0.9840  0.8456
   54MOL   C128 9774   6.595   3.159   7.739 -0.5360 -0.2874  0.6000
   54MOL   C129 9775   6.455   3.172   7.670 -0.6634  0.1219 -0.5044
   54MOL   C130 9776   6.700   3.135   7.628 -0.0858  0.4967 -0.1793
   54MOL   O131 9777   6.774   3.231   7.598 -0.3457  0.1000 -0.0247
   54MOL   O132 9778   6.695   3.018   7.566 -0.6233  0.4732 -0.4270
   54MOL   H133 9779   6.613   3.255   7.787 -2.4807  0.5948 -0.3862
   54MOL   H134 9780   6.445   3.231   7.579 -0.3474  0.3296 -0.4072
   54MOL   H135 9781   6.403   3.079   7.648  1.2261 -0.7664 -1.3281
   54MOL   H136 9782   6.393   3.235   7.734  1.1428 -1.7003  3.2389
   54MOL   C137 9783   6.786   2.999   7.454  0.0965  0.5913 -0.2554
   54MOL   C138 9784   6.711   2.883   7.382 -0.1452 -0.3718 -0.3195
   54MOL   C139 9785   6.926   2.940   7.493 -0.4389  0.0007  0.1546
   54MOL   O140 9786   7.030   2.958   7.434  1.1655 -0.4092 -0.3520
   54MOL   O141 9787   6.917   2.873   7.607 -0.1523  0.2398  0.2718
   54MOL   H142 9788   6.792   3.082   7.383  1.9305 -0.2272 -1.0979
   54MOL   H143 9789   6.706   2.791   7.440 -3.0095 -0.7876 -1.1780
   54MOL   H144 9790   6.612   2.908   7.345 -0.8338  0.8351  2.2530
   54MOL   H145 9791   6.772   2.862   7.293  0.9142 -0.9437  0.5266
   54MOL   C146 9792   7.032   2.803   7.663 -0.5000  0.8908  0.1601
   54MOL   C147 9793   6.983   2.702   7.772 -0.3152  0.0133  0.0491
   54MOL   C148 9794   7.135   2.909   7.714 -0.8703  0.2860 -0.0616
   54MOL   O149 9795   7.253   2.916   7.677  0.3154 -0.0314 -0.1754
   54MOL   O150 9796   7.079   2.988   7.807  0.0312 -0.1887 -0.2162
   54MOL   H151 9797   7.077   2.751   7.579  1.4591  1.5370  0.7840
   54MOL   H152 9798   6.917   2.634   7.719 -1.9409  1.9604 -0.4847
   54MOL   H153 9799   7.055   2.652   7.837  0.8739  3.8841  1.8918
   54MOL   H154 9800   6.913   2.761   7.831 -1.5838 -1.3026 -0.1202
   54MOL   C155 9801   7.159   3.094   7.851  0.3659 -0.1817  0.0021
   54MOL   C156 9802   7.138   3.125   8.002 -0.1622 -0.0958  0.0880
   54MOL   C157 9803   7.129   3.219   7.762 -0.1838 -0.1316  0.9727
   54MOL   O158 9804   7.070   3.318   7.806  0.2634  0.6298  0.2772
   54MOL   O159 9805   7.183   3.207   7.643  0.6357 -0.1921  0.1499
   54MOL   H160 9806   7.265   3.072   7.845  0.1680 -0.6860 -2.6012
   54MOL   H161 9807   7.217   3.178   8.054 -1.1464  0.3589  1.1347
   54MOL   H162 9808   7.042   3.169   8.028  0.5704  0.6086  1.6583
   54MOL   H163 9809   7.129   3.029   8.053  1.2636  0.0576  0.6507
   54MOL   C164 9810   7.174   3.304   7.533  0.0207 -0.0630  0.2393
   54MOL   C165 9811   7.231   3.239   7.402 -0.5720  0.2004  0.2302
   54MOL   C166 9812   7.241   3.432   7.573 -0.0477  0.1035  0.0652
   54MOL   O167 9813   7.175   3.539   7.566 -0.3843  0.2445  0.0788
   54MOL   O168 9814   7.371   3.429   7.627  0.0831  0.2289  0.3131
   54MOL   H169 9815   7.065   3.312   7.524  0.0254  0.2082  0.4436
   54MOL   H170 9816   7.252   3.135   7.429 -1.4508 -0.3106 -0.9746
   54MOL   H171 9817   7.172   3.226   7.311 -1.3661 -1.5276  0.9530
   54MOL   H172 9818   7.326   3.281   7.370 -0.7475 -0.2464 -0.9010
   54MOL   C173 9819   7.435   3.553   7.670  0.3006 -0.3774 -0.6213
   54MOL   C174 9820   7.372   3.601   7.806 -0.7614 -0.8061  0.1598
   54MOL   C175 9821   7.442   3.655   7.555  0.4939 -0.3666  1.1095
   54MOL   O176 9822   7.402   3.774   7.560 -0.3625 -0.2339  0.2061
   54MOL   O177 9823   7.512   3.601   7.448 -0.1736  0.2631 -0.1764
   54MOL   H178 9824   7.540   3.528   7.687  0.3688  0.6558  0.4995
   54MOL   H179 9825   7.263   3.601   7.804 -0.7585 -0.2766 -0.0754
   54MOL   H180 9826   7.409   3.541   7.889  1.7197 -0.2733 -0.4983
   54MOL   H181 9827   7.409   3.702   7.822 -0.7008 -1.1263  2.1961
   54MOL   H182 9828   7.533   3.661   7.379 -0.9615  0.8148  0.0580
   55MOL     C1 9829   7.764   1.867   7.713 -0.2162 -0.0825 -0.1671
   55MOL     C2 9830   7.857   1.752   7.695 -0.4263  0.2028 -0.4407
   55MOL     C3 9831   7.636   1.830   7.785  0.0406 -0.0999 -0.1755
   55MOL     O4 9832   7.556   1.757   7.731 -0.6472  0.6270  0.3653
   55MOL     O5 9833   7.620   1.894   7.906  0.5463  0.3598  0.3108
   55MOL     H6 9834   7.800   1.949   7.774  2.5711 -0.1396 -1.6517
   55MOL     H7 9835   7.931   1.761   7.616 -1.0791  0.6102 -1.0036
   55MOL     H8 9836   7.914   1.724   7.784 -0.5166 -0.8483 -0.7023
   55MOL     H9 9837   7.803   1.657   7.681  0.3925 -0.5139  1.1471
   55MOL    H10 9838   7.738   1.900   7.612 -2.5969 -1.4179 -0.0304
   55MOL    C11 9839   7.495   1.898   7.979 -0.7833 -0.5163  0.0915
   55MOL    C12 9840   7.436   1.759   8.009 -0.2961 -0.1985  0.0765
   55MOL    C13 9841   7.400   1.995   7.903  0.1543  0.2526  0.6846
   55MOL    O14 9842   7.443   2.072   7.813 -0.3890 -0.2625 -0.4500
   55MOL    O15 9843   7.270   1.989   7.946 -0.9753 -0.0789  0.5349
   55MOL    H16 9844   7.520   1.937   8.078  0.1035 -1.6682  0.3337
   55MOL    H17 9845   7.505   1.698   8.068  0.9496 -1.4097 -2.5559
   55MOL    H18 9846   7.342   1.758   8.064  0.2194 -0.5373  0.9698
   55MOL    H19 9847   7.404   1.699   7.923 -0.4606  0.4840 -0.3422
   55MOL    C20 9848   7.175   2.084   7.901 -0.0296 -0.3532 -0.5805
   55MOL    C21 9849   7.044   2.075   7.977 -0.3633  0.4985  0.3756
   55MOL    C22 9850   7.148   2.072   7.749  0.7229  0.0140 -0.5826
   55MOL    O23 9851   7.162   1.965   7.689  0.1434 -0.5750 -0.3475
   55MOL    O24 9852   7.106   2.192   7.707 -0.1968 -0.1610  0.4102
   55MOL    H25 9853   7.207   2.187   7.918 -0.6363 -0.1780 -0.4916
   55MOL    H26 9854   7.072   2.042   8.077 -0.5631  0.4570  0.4191
   55MOL    H27 9855   6.979   2.163   7.981 -0.8302  0.1347  1.0247
   55MOL    H28 9856   6.991   1.990   7.934  1.2325  0.0333 -0.6845
   55MOL    C29 9857   7.105   2.231   7.568 -0.7626 -0.2982  0.1154
   55MOL    C30 9858   7.100   2.385   7.545  0.3085 -0.2754  0.8596
   55MOL    C31 9859   7.018   2.150   7.473  0.2066 -0.1037 -0.4490
   55MOL    O32 9860   6.918   2.098   7.519 -0.2538 -0.4372  0.1826
   55MOL    O33 9861   7.059   2.151   7.342 -0.3546 -0.8114 -0.2034
   55MOL    H34 9862   7.209   2.214   7.540 -1.0029 -0.1293 -0.8828
   55MOL    H35 9863   7.157   2.433   7.624 -0.8634  3.2399 -0.3585
   55MOL    H36 9864   7.128   2.400   7.441 -0.4408  0.3494  0.7438
   55MOL    H37 9865   6.995   2.412   7.551 -0.0018 -0.4919 -2.5292
   55MOL    C38 9866   6.986   2.084   7.241 -0.7775 -0.6621  0.1745
   55MOL    C39 9867   7.095   2.056   7.132 -0.6076 -0.0776 -0.7080
   55MOL    C40 9868   6.875   2.175   7.182  0.0545 -0.3531  0.3858
   55MOL    O41 9869   6.831   2.275   7.242 -0.1940  0.2162 -0.0410
   55MOL    O42 9870   6.834   2.134   7.059  0.2625  0.5040  0.2251
   55MOL    H43 9871   6.928   1.999   7.275 -0.3692 -0.6783  0.8504
   55MOL    H44 9872   7.053   1.996   7.051 -0.2845 -2.9053  1.1486
   55MOL    H45 9873   7.139   2.146   7.090 -1.7587 -0.1467 -2.1174
   55MOL    H46 9874   7.173   1.994   7.177 -1.4254 -0.5578  0.0680
   55MOL    C47 9875   6.732   2.202   6.985 -0.8675  0.1911  0.2360
   55MOL    C48 9876   6.607   2.124   6.995  0.5514  0.3263  0.4372
   55MOL    C49 9877   6.779   2.238   6.841 -0.2895  0.4198 -0.1823
   55MOL    O50 9878   6.710   2.222   6.740  0.3762 -0.4129 -0.0737
   55MOL    O51 9879   6.894   2.298   6.843  0.7003  0.6398  0.1051
   55MOL    H52 9880   6.707   2.299   7.027 -1.1199  0.3115 -0.1860
   55MOL    H53 9881   6.519   2.182   6.966 -0.3386 -0.8938  0.7009
   55MOL    H54 9882   6.614   2.050   6.915 -0.2297  3.6431 -2.8691
   55MOL    H55 9883   6.603   2.085   7.097  2.1634  0.9474  0.7577
   55MOL    C56 9884   6.945   2.367   6.726 -0.1303  0.3366 -0.0867
   55MOL    C57 9885   7.087   2.418   6.764  0.1926 -0.0375  0.4683
   55MOL    C58 9886   6.855   2.484   6.680  0.2498 -0.5728 -0.3252
   55MOL    O59 9887   6.785   2.548   6.762 -0.5993  0.0644  0.4775
   55MOL    O60 9888   6.871   2.523   6.548  0.1562 -0.1560 -0.3083
   55MOL    H61 9889   6.952   2.301   6.639 -1.0543  0.5528 -0.3362
   55MOL    H62 9890   7.077   2.456   6.866  0.2771 -0.7609  0.7449
   55MOL    H63 9891   7.155   2.334   6.759  0.1307  0.0093 -1.1748
   55MOL    H64 9892   7.117   2.500   6.699  1.6893 -0.3646  0.7277
   55MOL    C65 9893   6.799   2.632   6.493  0.2685 -0.3698 -0.4001
   55MOL    C66 9894   6.821   2.631   6.349 -0.1982  0.2677  0.3158
   55MOL    C67 9895   6.854   2.754   6.557 -0.0433 -1.1468 -0.2536
   55MOL    O68 9896   6.976   2.769   6.595  0.0984  0.1558 -0.0438
   55MOL    O69 9897   6.762   2.852   6.566 -0.6514 -0.5226  0.8441
   55MOL    H70 9898   6.691   2.628   6.513  0.3799  0.3292  0.3897
   55MOL    H71 9899   6.807   2.544   6.285 -0.5586  0.7378 -0.2512
   55MOL    H72 9900   6.758   2.713   6.313  2.7827  2.6748  0.3172
   55MOL    H73 9901   6.920   2.670   6.329 -0.2424 -0.2041 -0.8642
   55MOL    C74 9902   6.776   2.953   6.666 -0.1239 -0.0371 -0.0258
   55MOL    C75 9903   6.635   2.994   6.704  0.2585  0.1335  0.7121
   55MOL    C76 9904   6.871   3.059   6.602  0.1544  0.6444  0.3600
   55MOL    O77 9905   6.983   3.086   6.648  0.2549 -0.4846  0.1175
   55MOL    O78 9906   6.823   3.116   6.487 -0.6865 -0.0871  0.4192
   55MOL    H79 9907   6.828   2.908   6.751  0.5454  0.7572 -0.0094
   55MOL    H80 9908   6.637   3.074   6.779  0.6802 -0.4304  1.3104
   55MOL    H81 9909   6.571   3.036   6.627  0.8017  0.0004  0.1856
   55MOL    H82 9910   6.583   2.910   6.751  0.3151 -0.6672 -0.6357
   55MOL    C83 9911   6.895   3.216   6.414 -0.1381 -0.0775  0.2093
   55MOL    C84 9912   6.792   3.312   6.368  0.3323  0.3943 -0.6058
   55MOL    C85 9913   6.983   3.156   6.308 -0.4026  0.3649  0.6878
   55MOL    O86 9914   6.979   3.036   6.281  0.0826 -0.7081  0.5755
   55MOL    O87 9915   7.063   3.247   6.244  0.0038 -0.0085 -0.4941
   55MOL    H88 9916   6.970   3.267   6.474  1.0311 -0.1057 -1.1976
   55MOL    H89 9917   6.729   3.275   6.287  1.2829 -1.2254 -0.6141
   55MOL    H90 9918   6.742   3.351   6.457 -0.0513 -2.3158  0.4027
   55MOL    H91 9919   6.844   3.393   6.317 -0.6001  0.9967 -0.6137
   55MOL    C92 9920   7.154   3.200   6.143  1.1188  0.8376 -0.2975
   55MOL    C93 9921   7.292   3.161   6.203 -0.2353  0.2226  0.6297
   55MOL    C94 9922   7.166   3.306   6.035  0.0853  0.5298 -0.3227
   55MOL    O95 9923   7.123   3.280   5.923  0.3218 -0.3783  0.2739
   55MOL    O96 9924   7.220   3.422   6.079  0.1211 -0.1643 -0.3279
   55MOL    H97 9925   7.119   3.110   6.093 -1.9387  0.7397  1.8288
   55MOL    H98 9926   7.343   3.247   6.245 -1.0946  0.7309  0.6437
   55MOL    H99 9927   7.276   3.081   6.275  0.1746 -1.1270 -0.7463
   55MOL   H100 9928   7.352   3.120   6.122  0.0443  0.3995  0.7461
   55MOL   C101 9929   7.197   3.546   6.005  0.6998  0.3803  0.3295
   55MOL   C102 9930   7.324   3.635   6.025  0.2595  0.0808 -0.2968
   55MOL   C103 9931   7.065   3.616   6.054 -0.4791  0.5827  0.2729
   55MOL   O104 9932   7.000   3.570   6.141  0.0024 -0.5375  0.3552
   55MOL   O105 9933   7.027   3.721   5.977  0.0293  0.2645  0.0932
   55MOL   H106 9934   7.188   3.531   5.897  1.2630 -0.4870  0.3886
   55MOL   H107 9935   7.352   3.684   5.932  0.5762  0.6686  0.1029
   55MOL   H108 9936   7.327   3.701   6.112  0.7089 -1.2552  0.7044
   55MOL   H109 9937   7.410   3.569   6.038 -1.5558 -2.0442  1.2294
   55MOL   C110 9938   6.900   3.790   5.986 -0.7892  1.0017  0.0107
   55MOL   C111 9939   6.885   3.862   6.113 -0.3427  0.3933  0.6504
   55MOL   C112 9940   6.789   3.694   5.960 -0.4178  0.0371 -0.2259
   55MOL   O113 9941   6.710   3.660   6.047 -0.3707  0.0127 -0.6787
   55MOL   O114 9942   6.804   3.638   5.833 -0.5595  0.6910  0.2539
   55MOL   H115 9943   6.913   3.858   5.902  0.3978  2.4531  1.3225
   55MOL   H116 9944   6.880   3.793   6.197  0.6791 -2.9289 -1.8988
   55MOL   H117 9945   6.973   3.922   6.137 -0.3164  0.7033 -0.2075
   55MOL   H118 9946   6.801   3.932   6.114 -1.3739 -0.8246 -0.2688
   55MOL   C119 9947   6.722   3.529   5.792  0.6388  0.1175  0.1073
   55MOL   C120 9948   6.820   3.447   5.705  0.4948 -0.0262 -0.2510
   55MOL   C121 9949   6.603   3.583   5.711 -0.1679 -0.0242  0.2143
   55MOL   O122 9950   6.531   3.673   5.750  0.5831  0.7244  0.2797
   55MOL   O123 9951   6.588   3.525   5.586  0.2734  0.0104 -0.0057
   55MOL   H124 9952   6.690   3.462   5.872  1.3307 -0.5636 -0.1773
   55MOL   H125 9953   6.787   3.345   5.688  1.3352 -0.3184 -0.1371
   55MOL   H126 9954   6.834   3.502   5.612  1.9809  2.1477  1.2140
   55MOL   H127 9955   6.920   3.455   5.746  0.0199  2.6842  0.4708
   55MOL   C128 9956   6.494   3.578   5.498 -0.0850  0.1995 -0.0479
   55MOL   C129 9957   6.468   3.501   5.372 -0.3313  0.4734 -0.7888
   55MOL   C130 9958   6.532   3.726   5.464 -0.0788 -0.2470  0.3574
   55MOL   O131 9959   6.460   3.826   5.484 -0.6927 -0.7306  0.3849
   55MOL   O132 9960   6.652   3.721   5.411  0.2972  0.2718  0.0364
   55MOL   H133 9961   6.401   3.578   5.555  0.4460  1.7001  0.8574
   55MOL   H134 9962   6.378   3.542   5.326 -0.3091  1.2957 -0.1101
   55MOL   H135 9963   6.552   3.504   5.302  0.2009 -1.7614 -0.2891
   55MOL   H136 9964   6.437   3.399   5.396 -0.3960  0.7675  0.4207
   55MOL   C137 9965   6.729   3.836   5.381 -0.1232  0.1163 -0.4151
   55MOL   C138 9966   6.853   3.808   5.292  0.4197 -0.2422  0.0481
   55MOL   C139 9967   6.763   3.905   5.514  0.2609  0.9232 -0.5156
   55MOL   O140 9968   6.772   3.837   5.616 -0.0358 -0.6929 -0.3578
   55MOL   O141 9969   6.803   4.033   5.492 -0.4273  0.2723  0.1829
   55MOL   H142 9970   6.672   3.901   5.315 -2.5654  0.4419  1.9557
   55MOL   H143 9971   6.856   3.891   5.222 -0.2233  0.0743  0.3942
   55MOL   H144 9972   6.939   3.798   5.359 -1.0132 -0.3285  1.9147
   55MOL   H145 9973   6.834   3.720   5.231 -2.1258  0.9234 -0.8807
   55MOL   C146 9974   6.833   4.120   5.613 -0.3727  0.3307 -0.7128
   55MOL   C147 9975   6.980   4.092   5.658 -0.1507  0.5358  0.1334
   55MOL   C148 9976   6.729   4.115   5.728 -0.2146  0.0548 -0.2439
   55MOL   O149 9977   6.753   4.082   5.844  0.1227 -0.3343  0.0045
   55MOL   O150 9978   6.609   4.170   5.687 -0.0817 -0.4246 -0.1756
   55MOL   H151 9979   6.845   4.223   5.579  0.7804 -0.0013 -1.3466
   55MOL   H152 9980   6.982   3.985   5.676  2.1599  0.2041 -2.0235
   55MOL   H153 9981   7.034   4.113   5.566 -1.3992  0.0970 -0.7118
   55MOL   H154 9982   7.018   4.138   5.750 -0.9849 -0.2942  0.9065
   55MOL   C155 9983   6.504   4.204   5.773  0.3667 -0.5674  0.0397
   55MOL   C156 9984   6.373   4.139   5.715 -0.0671  0.0083 -0.1024
   55MOL   C157 9985   6.496   4.351   5.794  0.3830 -0.1864  0.4999
   55MOL   O158 9986   6.533   4.431   5.707  0.1090 -0.1864  0.0956
   55MOL   O159 9987   6.457   4.389   5.919 -0.2404 -0.6754 -0.1756
   55MOL   H160 9988   6.529   4.165   5.872 -1.4687 -0.7059  0.4669
   55MOL   H161 9989   6.282   4.179   5.761  0.7719 -0.2159  1.7763
   55MOL   H162 9990   6.368   4.150   5.606  0.0852 -0.3764 -0.1465
   55MOL   H163 9991   6.377   4.034   5.743  0.5576 -0.5608 -2.2343
   55MOL   C164 9992   6.464   4.519   5.973  0.1130  0.1460  0.1163
   55MOL   C165 9993   6.613   4.560   6.002  0.0486 -0.5516 -0.0675
   55MOL   C166 9994   6.382   4.515   6.097  0.0869 -0.1562  0.7238
   55MOL   O167 9995   6.281   4.442   6.107 -0.0534  0.1529 -0.3218
   55MOL   O168 9996   6.420   4.601   6.190  0.3303 -0.3312  0.4359
   55MOL   H169 9997   6.420   4.595   5.908 -1.3209 -1.5173 -0.9097
   55MOL   H170 9998   6.620   4.660   6.046 -0.6186  0.4315 -2.1244
   55MOL   H171 9999   6.649   4.492   6.079 -0.9163  0.3402  1.2002
   55MOL   H17210000   6.678   4.546   5.916  2.2622 -1.6112  1.7161
   55MOL   C17310001   6.339   4.629   6.305  0.5831  0.0891  0.3272
   55MOL   C17410002   6.306   4.780   6.330 -0.1274 -0.8930 -0.7532
   55MOL   C17510003   6.387   4.555   6.436 -0.1601  0.0565 -0.1295
   55MOL   O17610004   6.425   4.605   6.542 -0.1524 -0.2085 -0.4955
   55MOL   O17710005   6.372   4.423   6.426 -0.3695 -0.3602  0.4125
   55MOL   H17810006   6.241   4.582   6.299  1.0163 -0.7333 -0.5849
   55MOL   H17910007   6.395   4.843   6.326 -1.5894  1.3314  0.8448
   55MOL   H18010008   6.241   4.809   6.248 -0.9018 -2.7282 -0.7964
   55MOL   H18110009   6.259   4.787   6.428  2.0720  2.8041  0.1384
   55MOL   H18210010   6.378   4.366   6.501  1.6460 -2.1690 -1.0507
   56MOL     C110011   4.827   5.495   4.268 -0.1896 -0.4185 -0.4172
   56MOL     C210012   4.830   5.601   4.155  0.4993 -0.5746  0.3612
   56MOL     C310013   4.888   5.369   4.210  0.8818  0.9913 -0.1785
   56MOL     O410014   5.004   5.335   4.221 -0.4050 -0.4335  0.1673
   56MOL     O510015   4.791   5.288   4.163  0.4901 -0.2755  0.0577
   56MOL     H610016   4.884   5.522   4.357 -1.0721  3.0992 -0.8625
   56MOL     H710017   4.936   5.616   4.134  1.3501 -3.6053  2.0819
   56MOL     H810018   4.776   5.561   4.068 -0.9025  1.7295  0.1398
   56MOL     H910019   4.776   5.690   4.186 -0.5355 -1.4332  1.1000
   56MOL    H1010020   4.723   5.483   4.296 -0.9487  0.5962 -2.6904
   56MOL    C1110021   4.823   5.171   4.086 -0.0601  0.2983  0.8808
   56MOL    C1210022   4.704   5.119   4.008  0.1073  0.2167  0.5039
   56MOL    C1310023   4.876   5.058   4.190  0.7511 -0.1541 -0.7599
   56MOL    O1410024   4.809   5.014   4.279 -0.3756 -0.1127  0.2545
   56MOL    O1510025   4.998   5.021   4.154 -0.4761  0.0546 -0.0453
   56MOL    H1610026   4.906   5.184   4.016 -0.7517  0.1757  0.0426
   56MOL    H1710027   4.722   5.026   3.954  0.8947  0.6188  0.0558
   56MOL    H1810028   4.623   5.097   4.077 -1.4638 -0.4865 -1.5306
   56MOL    H1910029   4.677   5.189   3.930  2.2683 -1.3379 -1.7104
   56MOL    C2010030   5.062   4.906   4.217 -0.4000 -0.4259  0.4077
   56MOL    C2110031   5.200   4.957   4.253  0.2119 -0.0640  0.4158
   56MOL    C2210032   5.065   4.788   4.124  0.2919  0.2122  1.0659
   56MOL    O2310033   5.012   4.801   4.014  0.0441 -0.2890  0.3056
   56MOL    O2410034   5.121   4.668   4.169 -0.4453 -0.3132  0.4698
   56MOL    H2510035   5.009   4.865   4.303  0.6681 -0.1009  1.2297
   56MOL    H2610036   5.265   4.879   4.293 -1.0125 -1.3136  0.0177
   56MOL    H2710037   5.264   4.999   4.176 -0.8364  0.9874  0.1097
   56MOL    H2810038   5.194   5.029   4.335  1.6993  0.6470 -0.0796
   56MOL    C2910039   5.119   4.550   4.086 -0.9575  0.1365 -0.1847
   56MOL    C3010040   5.147   4.419   4.165 -0.5762 -0.5901 -0.2439
   56MOL    C3110041   5.232   4.564   3.980  0.3617  0.0433  0.0654
   56MOL    O3210042   5.226   4.532   3.862 -0.5017 -0.0127 -0.1312
   56MOL    O3310043   5.346   4.602   4.044 -0.0094  0.9986  0.2209
   56MOL    H3410044   5.024   4.545   4.031  0.3109 -1.8227 -2.3222
   56MOL    H3510045   5.054   4.386   4.212 -0.2296  0.5871  1.2903
   56MOL    H3610046   5.183   4.340   4.098 -1.2885 -0.4193 -0.8312
   56MOL    H3710047   5.225   4.440   4.239 -1.4523  0.1964  0.4736
   56MOL    C3810048   5.472   4.621   3.967 -0.0828 -0.5015  0.3767
   56MOL    C3910049   5.588   4.603   4.066  0.5248 -0.2060  0.9332
   56MOL    C4010050   5.462   4.759   3.891 -0.7843 -0.2198  1.0554
   56MOL    O4110051   5.366   4.826   3.898 -0.0047 -0.2568  0.2276
   56MOL    O4210052   5.567   4.779   3.811 -0.2324 -0.4031  0.1067
   56MOL    H4310053   5.483   4.539   3.896 -0.1005  0.3515 -0.6247
   56MOL    H4410054   5.667   4.554   4.009 -1.2514 -1.6922 -0.2825
   56MOL    H4510055   5.619   4.695   4.116  0.4989  0.1933  0.2265
   56MOL    H4610056   5.565   4.527   4.141  3.7571 -0.6768  1.5091
   56MOL    C4710057   5.597   4.901   3.746  0.0872  0.0703 -0.0143
   56MOL    C4810058   5.708   4.872   3.644 -0.0473 -0.3721  0.5156
   56MOL    C4910059   5.631   5.009   3.850  0.0225 -0.0038  0.2228
   56MOL    O5010060   5.585   5.124   3.839  0.4436  0.3188 -0.4280
   56MOL    O5110061   5.699   4.963   3.951  0.5156 -0.1126 -0.3824
   56MOL    H5210062   5.501   4.925   3.699 -0.1793  0.4432  0.7278
   56MOL    H5310063   5.675   4.862   3.540  0.6882 -0.3263  0.2710
   56MOL    H5410064   5.778   4.956   3.643 -0.2997 -0.1587 -0.4923
   56MOL    H5510065   5.771   4.792   3.682 -0.0999  0.0239  1.4445
   56MOL    C5610066   5.745   5.040   4.063  0.4025  0.5033  0.1507
   56MOL    C5710067   5.855   4.963   4.133  0.5351 -0.5635 -0.1335
   56MOL    C5810068   5.638   5.061   4.164 -0.6301 -0.0208  0.3261
   56MOL    O5910069   5.565   4.977   4.212  0.3100 -0.4670 -0.1560
   56MOL    O6010070   5.647   5.183   4.219 -0.1384  0.1952 -0.0059
   56MOL    H6110071   5.801   5.129   4.034  0.4315 -0.0183 -1.4696
   56MOL    H6210072   5.827   4.870   4.184 -3.2702  0.3777 -0.3384
   56MOL    H6310073   5.921   4.926   4.055 -1.8923  0.2182 -2.6557
   56MOL    H6410074   5.912   5.025   4.201  0.4446 -1.0173  0.3637
   56MOL    C6510075   5.579   5.212   4.343  0.2351  0.2790  0.8019
   56MOL    C6610076   5.539   5.353   4.355 -0.8601 -0.2696 -0.2073
   56MOL    C6710077   5.664   5.175   4.470  0.0988 -0.0870 -0.3378
   56MOL    O6810078   5.620   5.129   4.573 -0.8260 -0.0336 -0.0558
   56MOL    O6910079   5.790   5.209   4.460  0.2625  0.0832 -0.4546
   56MOL    H7010080   5.485   5.156   4.343 -0.1288  0.8601 -0.6081
   56MOL    H7110081   5.625   5.419   4.339 -0.4681 -0.4963  0.9408
   56MOL    H7210082   5.472   5.372   4.271  1.0381  2.5971 -1.1774
   56MOL    H7310083   5.509   5.386   4.455 -1.7032 -1.8191  0.0653
   56MOL    C7410084   5.887   5.184   4.559  0.1197 -0.0382  0.6169
   56MOL    C7510085   5.999   5.286   4.527  0.0727  0.1266 -0.5363
   56MOL    C7610086   5.942   5.041   4.550  0.0042  0.1547 -0.2975
   56MOL    O7710087   5.912   4.965   4.452  0.5916 -0.5363 -0.0410
   56MOL    O7810088   6.020   5.011   4.653  0.2370 -0.7408  0.1088
   56MOL    H7910089   5.856   5.208   4.661 -0.3241 -0.2987  0.5448
   56MOL    H8010090   5.969   5.357   4.449  0.1322 -0.5831 -1.2128
   56MOL    H8110091   6.020   5.343   4.617 -3.2111  0.7434 -0.0998
   56MOL    H8210092   6.088   5.234   4.491 -0.5873 -1.0170 -0.5526
   56MOL    C8310093   6.080   4.882   4.661 -0.1617  0.2551 -0.7051
   56MOL    C8410094   6.157   4.873   4.792 -0.6231  1.0251  0.3343
   56MOL    C8510095   6.179   4.867   4.546 -0.2709 -0.2697 -0.2432
   56MOL    O8610096   6.158   4.786   4.459 -0.0261 -0.2251 -0.6632
   56MOL    O8710097   6.275   4.959   4.558 -0.4064  0.0817  0.0029
   56MOL    H8810098   6.000   4.809   4.647  0.8251 -1.4531  2.0553
   56MOL    H8910099   6.205   4.778   4.815  0.3948  1.8406  1.6448
   56MOL    H9010100   6.239   4.944   4.782 -0.2734  0.7993  1.4355
   56MOL    H9110101   6.098   4.907   4.877  1.1883  1.6764  1.3472
   56MOL    C9210102   6.373   4.979   4.454 -0.5921  0.8483 -0.3776
   56MOL    C9310103   6.318   5.039   4.328 -0.0997  0.5397  0.4961
   56MOL    C9410104   6.450   4.844   4.434 -1.0277 -0.2892  0.1551
   56MOL    O9510105   6.500   4.826   4.322 -0.2193  0.1012  0.1274
   56MOL    O9610106   6.465   4.764   4.543  0.2679 -0.6153 -0.0173
   56MOL    H9710107   6.442   5.056   4.490 -0.4431  1.9042 -2.8019
   56MOL    H9810108   6.277   5.138   4.349  0.1451  0.6680  0.3808
   56MOL    H9910109   6.398   5.034   4.254 -1.3650 -1.1629 -0.7885
   56MOL   H10010110   6.234   4.989   4.282 -0.4488  2.2356 -0.7542
   56MOL   C10110111   6.507   4.629   4.530 -0.2054 -0.5268 -0.3840
   56MOL   C10210112   6.395   4.540   4.487  0.1234 -0.1952 -0.2074
   56MOL   C10310113   6.575   4.591   4.660 -0.0568 -0.2140 -0.5604
   56MOL   O10410114   6.547   4.490   4.722 -0.3259  0.1991  0.1027
   56MOL   O10510115   6.670   4.683   4.697  0.0798 -0.0241  0.1116
   56MOL   H10610116   6.586   4.620   4.455  2.5562  0.7545  2.2325
   56MOL   H10710117   6.328   4.509   4.567 -0.6623 -0.9066 -1.1261
   56MOL   H10810118   6.339   4.590   4.407 -0.3385 -2.1992 -1.1820
   56MOL   H10910119   6.441   4.453   4.439  2.6155  0.0209  1.7271
   56MOL   C11010120   6.741   4.670   4.825  0.4008  0.5121 -0.6690
   56MOL   C11110121   6.674   4.767   4.929 -0.5650  0.4710 -1.3847
   56MOL   C11210122   6.890   4.688   4.814  0.5892  0.1672 -0.1910
   56MOL   O11310123   6.950   4.789   4.852  0.6022 -0.0763 -0.6138
   56MOL   O11410124   6.947   4.567   4.772 -0.0363 -0.5025  0.1051
   56MOL   H11510125   6.727   4.573   4.872  1.0122  0.9228  0.3844
   56MOL   H11610126   6.578   4.727   4.961 -0.3773  1.4808  0.4556
   56MOL   H11710127   6.741   4.784   5.013 -0.2308 -1.9449 -1.1354
   56MOL   H11810128   6.658   4.863   4.879  0.8831  1.3349 -0.2173
   56MOL   C11910129   7.093   4.546   4.772  0.0044  0.0597  0.2406
   56MOL   C12010130   7.118   4.422   4.702 -0.5814  0.1109  0.6733
   56MOL   C12110131   7.137   4.537   4.917 -0.6765  0.1215  0.4660
   56MOL   O12210132   7.055   4.527   5.008  0.1394  0.1027  0.5361
   56MOL   O12310133   7.267   4.548   4.942  0.3272  0.4323 -0.3010
   56MOL   H12410134   7.152   4.622   4.721 -1.6136 -0.3660 -2.3808
   56MOL   H12510135   7.111   4.433   4.594  0.4280 -3.1046  0.2356
   56MOL   H12610136   7.220   4.392   4.727 -0.5791 -1.2198 -0.8338
   56MOL   H12710137   7.052   4.339   4.728 -3.1783  1.3651 -1.6305
   56MOL   C12810138   7.329   4.552   5.070  0.1261  0.4123  0.3146
   56MOL   C12910139   7.284   4.452   5.178 -0.5680  0.1156  0.1394
   56MOL   C13010140   7.338   4.697   5.123 -0.0237  0.2023 -0.3844
   56MOL   O13110141   7.316   4.791   5.049 -0.4072  0.4758 -0.4083
   56MOL   O13210142   7.378   4.699   5.253 -0.5508  0.3917 -0.0323
   56MOL   H13310143   7.436   4.533   5.057  0.0297 -0.5755  0.9213
   56MOL   H13410144   7.346   4.456   5.267  0.8880  0.3785 -0.8769
   56MOL   H13510145   7.190   4.478   5.227  0.2834 -1.9597  2.9944
   56MOL   H13610146   7.280   4.350   5.139  1.4618  0.5234 -1.1986
   56MOL   C13710147   7.413   4.813   5.320  0.2102 -0.9006 -0.2867
   56MOL   C13810148   7.529   4.781   5.419  0.3211  0.2008  0.0454
   56MOL   C13910149   7.287   4.859   5.393  0.8860 -0.0768  0.0963
   56MOL   O14010150   7.250   4.812   5.501  0.7409  0.0552 -0.1469
   56MOL   O14110151   7.219   4.943   5.320 -0.0465  0.3042  0.0742
   56MOL   H14210152   7.457   4.891   5.258  0.4580  1.1569  2.3895
   56MOL   H14310153   7.504   4.715   5.502  0.2356 -1.5608 -1.3569
   56MOL   H14410154   7.599   4.721   5.361  0.3886 -2.3128  2.6674
   56MOL   H14510155   7.564   4.871   5.468 -1.6851  0.2766  1.3881
   56MOL   C14610156   7.104   5.009   5.364  0.7172 -0.3286  0.5992
   56MOL   C14710157   7.045   5.089   5.246 -0.0646  0.1210 -0.1201
   56MOL   C14810158   7.129   5.111   5.481 -0.1655  0.2637 -0.4618
   56MOL   O14910159   7.244   5.144   5.515  0.2508  0.0078 -0.8026
   56MOL   O15010160   7.015   5.162   5.538 -0.1938 -0.0957 -0.4070
   56MOL   H15110161   7.021   4.946   5.393 -0.2739  0.5633 -0.2572
   56MOL   H15210162   7.043   5.040   5.149 -0.2281  1.7381 -0.9609
   56MOL   H15310163   6.944   5.123   5.271  0.4687  0.9957  0.9105
   56MOL   H15410164   7.102   5.178   5.220  1.3662 -0.0284  2.2654
   56MOL   C15510165   7.022   5.245   5.654 -0.7585 -0.2267  0.2814
   56MOL   C15610166   6.903   5.231   5.744 -0.4534  0.6464 -0.3264
   56MOL   C15710167   7.040   5.389   5.607  0.0142 -0.3520 -0.2620
   56MOL   O15810168   7.145   5.448   5.630  0.1621 -0.0135 -0.3389
   56MOL   O15910169   6.931   5.432   5.538 -0.1973 -0.1248 -0.9936
   56MOL   H16010170   7.108   5.221   5.718 -0.3487 -1.0041 -0.5414
   56MOL   H16110171   6.815   5.246   5.682 -0.2769  0.0005 -0.7330
   56MOL   H16210172   6.899   5.132   5.791  0.5450  0.6584 -0.1886
   56MOL   H16310173   6.904   5.304   5.825  0.0307 -0.5004  0.7257
   56MOL   C16410174   6.934   5.550   5.460 -0.8595 -0.7335  0.1251
   56MOL   C16510175   7.031   5.543   5.341 -0.2618  0.1719  0.0746
   56MOL   C16610176   6.960   5.676   5.551 -1.2978 -0.7884  0.3448
   56MOL   O16710177   6.943   5.668   5.676 -0.0404 -0.5009 -0.0417
   56MOL   O16810178   6.988   5.787   5.483  0.2192  0.0390 -0.0225
   56MOL   H16910179   6.836   5.557   5.412 -0.8723 -0.8307  0.1398
   56MOL   H17010180   7.044   5.437   5.318  2.2398  0.7821 -1.5138
   56MOL   H17110181   6.996   5.592   5.250  0.7692  1.6359  0.4417
   56MOL   H17210182   7.135   5.572   5.360  0.3347 -2.3041  0.7827
   56MOL   C17310183   7.030   5.902   5.562 -0.0778  0.1581 -0.6457
   56MOL   C17410184   6.967   6.022   5.484  0.1202  0.6115 -0.3096
   56MOL   C17510185   7.184   5.903   5.560  0.1957 -0.0734 -0.4781
   56MOL   O17610186   7.252   5.903   5.665 -0.5404  0.1282  0.0607
   56MOL   O17710187   7.231   5.905   5.435  0.6913  0.3809 -0.1137
   56MOL   H17810188   6.998   5.900   5.666  2.5269 -1.2588  0.1640
   56MOL   H17910189   6.972   6.122   5.527 -0.5861 -0.0186  1.2579
   56MOL   H18010190   7.013   6.034   5.386 -2.1749  1.1732 -1.3512
   56MOL   H18110191   6.863   5.993   5.467  0.8357 -1.8132 -0.7628
   56MOL   H18210192   7.325   5.910   5.427  0.7014  1.9235  0.7921
   57MOL     C110193   2.975   3.677   6.038  0.4081  0.3000 -0.4508
   57MOL     C210194   3.020   3.529   6.042 -0.1596  0.1120  1.0552
   57MOL     C310195   3.028   3.759   6.149 -0.3655  0.1397 -0.4810
   57MOL     O410196   3.127   3.732   6.220  0.2322  0.9620 -0.5360
   57MOL     O510197   2.966   3.871   6.159 -0.3773  0.2951  0.0630
   57MOL     H610198   3.014   3.714   5.943  0.7164 -1.3291 -0.9637
   57MOL     H710199   3.126   3.523   6.018 -0.4171  0.3938 -0.2277
   57MOL     H810200   2.998   3.474   6.133 -3.9895  0.8430  0.6624
   57MOL     H910201   2.979   3.477   5.956 -0.9673 -0.0290  1.5159
   57MOL    H1010202   2.867   3.691   6.036  0.4195  0.3886 -3.2107
   57MOL    C1110203   3.006   3.986   6.234 -0.2654 -0.0189 -0.1193
   57MOL    C1210204   2.874   4.057   6.262 -0.6901 -0.0156  0.7947
   57MOL    C1310205   3.111   4.072   6.163 -0.5426  0.1495  0.0806
   57MOL    O1410206   3.108   4.095   6.042  0.0536  0.1115  0.8777
   57MOL    O1510207   3.202   4.128   6.250 -0.3401 -0.7708 -0.4129
   57MOL    H1610208   3.045   3.939   6.324 -0.2654  0.4246  0.1096
   57MOL    H1710209   2.840   4.099   6.168 -1.7218 -0.8795  0.7681
   57MOL    H1810210   2.796   3.991   6.299 -2.2660  2.4881  2.0493
   57MOL    H1910211   2.886   4.129   6.343  0.7431 -2.1949  2.5949
   57MOL    C2010212   3.297   4.228   6.216 -0.1297 -0.3618  0.0059
   57MOL    C2110213   3.378   4.256   6.343 -0.3533  0.1123  0.0067
   57MOL    C2210214   3.241   4.362   6.171  0.0413 -0.0756  0.3314
   57MOL    O2310215   3.124   4.394   6.181  0.1073 -0.0381  0.0028
   57MOL    O2410216   3.335   4.444   6.126 -0.5404 -0.3621 -0.0026
   57MOL    H2510217   3.365   4.192   6.139  1.2820 -0.7958  1.4236
   57MOL    H2610218   3.477   4.295   6.320  1.6112 -3.3660  2.0208
   57MOL    H2710219   3.322   4.320   6.410  0.2016  1.8824 -1.1805
   57MOL    H2810220   3.395   4.162   6.397 -0.3090  0.1354  0.0328
   57MOL    C2910221   3.300   4.578   6.080  0.1330  0.1133  0.0436
   57MOL    C3010222   3.436   4.621   6.029 -0.2744 -0.4063  0.5754
   57MOL    C3110223   3.254   4.675   6.190 -0.2558 -0.3112 -0.2007
   57MOL    O3210224   3.160   4.749   6.170 -0.2546 -0.0894  0.3859
   57MOL    O3310225   3.347   4.678   6.293  0.0369  0.2848  0.1964
   57MOL    H3410226   3.233   4.580   5.995  1.5746 -0.6426 -1.1242
   57MOL    H3510227   3.456   4.572   5.934 -0.8591  0.5305 -0.0378
   57MOL    H3610228   3.432   4.728   6.007 -0.9453 -0.3911  0.7603
   57MOL    H3710229   3.515   4.600   6.102  0.2074  0.5222  0.3416
   57MOL    C3810230   3.327   4.747   6.415 -0.0812 -0.0155  0.2746
   57MOL    C3910231   3.448   4.711   6.505  0.4995  0.0672  0.3394
   57MOL    C4010232   3.193   4.693   6.481  0.7752  0.1679  0.5556
   57MOL    O4110233   3.192   4.597   6.558  0.1436 -0.1104  0.1988
   57MOL    O4210234   3.083   4.753   6.445 -0.2134  0.0490  0.5058
   57MOL    H4310235   3.313   4.854   6.405 -3.1468 -0.3064  0.9631
   57MOL    H4410236   3.443   4.611   6.548  2.1215  1.1457  3.1693
   57MOL    H4510237   3.541   4.745   6.461  1.2942 -1.7823  0.5319
   57MOL    H4610238   3.445   4.783   6.587 -1.3183  1.3111 -0.7758
   57MOL    C4710239   2.957   4.711   6.505 -0.2286 -0.4396 -0.5098
   57MOL    C4810240   2.907   4.621   6.396 -0.4099 -0.0076 -0.0399
   57MOL    C4910241   2.875   4.843   6.520 -0.2527 -0.4337 -0.7227
   57MOL    O5010242   2.862   4.897   6.627  0.2193  0.1102 -0.4399
   57MOL    O5110243   2.852   4.912   6.402  0.0832 -0.4039 -0.8066
   57MOL    H5210244   2.971   4.667   6.603 -1.2129  1.0583  0.3269
   57MOL    H5310245   2.830   4.567   6.452  1.6256  0.6351  3.4828
   57MOL    H5410246   2.852   4.669   6.315 -1.4912 -1.5707 -0.2525
   57MOL    H5510247   2.963   4.532   6.368 -2.1060 -0.6318 -1.5904
   57MOL    C5610248   2.809   5.049   6.401  0.2231 -0.2149  0.3683
   57MOL    C5710249   2.745   5.087   6.266 -0.6284  0.8330  0.2615
   57MOL    C5810250   2.916   5.150   6.438  0.5770  0.6723  0.3818
   57MOL    O5910251   3.032   5.118   6.408  0.5598 -0.0355  0.7327
   57MOL    O6010252   2.867   5.268   6.492 -0.5247 -0.1897  0.1193
   57MOL    H6110253   2.730   5.063   6.475 -0.4485 -2.7983  0.1986
   57MOL    H6210254   2.817   5.061   6.188 -0.9415 -0.2183  0.3149
   57MOL    H6310255   2.647   5.042   6.250 -1.0914  0.6922  3.1872
   57MOL    H6410256   2.742   5.196   6.260  0.6044  0.8798  0.2280
   57MOL    C6510257   2.947   5.385   6.512  0.1935  0.8593  1.1055
   57MOL    C6610258   2.909   5.452   6.643 -0.1081 -0.1588 -0.2381
   57MOL    C6710259   2.920   5.482   6.395 -0.7226  0.0374 -0.4546
   57MOL    O6810260   2.903   5.601   6.416 -0.2092  0.6388 -0.5337
   57MOL    O6910261   2.918   5.409   6.277  0.7890  0.3545 -0.0778
   57MOL    H7010262   3.050   5.352   6.511 -0.2802 -0.7437  2.4558
   57MOL    H7110263   2.803   5.475   6.645 -0.1597 -0.4833  1.2335
   57MOL    H7210264   2.913   5.382   6.726  0.5305  0.9733  0.7072
   57MOL    H7310265   2.965   5.544   6.661 -1.2165  0.7340 -1.3304
   57MOL    C7410266   2.900   5.473   6.146  0.6298 -0.6267 -0.4758
   57MOL    C7510267   2.862   5.363   6.042  0.0052  0.2234  0.3374
   57MOL    C7610268   3.028   5.556   6.106  0.4382 -0.0305  0.1090
   57MOL    O7710269   3.017   5.664   6.049 -0.3889 -0.2850  0.0247
   57MOL    O7810270   3.144   5.492   6.133  0.4256  0.7446 -0.4151
   57MOL    H7910271   2.823   5.548   6.162  1.9073  0.7109 -0.4354
   57MOL    H8010272   2.860   5.408   5.943  1.2323 -0.0904  0.1602
   57MOL    H8110273   2.937   5.285   6.032 -1.0818 -0.9999  1.5371
   57MOL    H8210274   2.761   5.328   6.061 -1.0658  1.6052 -2.4930
   57MOL    C8310275   3.267   5.561   6.133  0.3752 -0.4153  0.1234
   57MOL    C8410276   3.389   5.468   6.165 -0.2317  0.0579  0.0670
   57MOL    C8510277   3.261   5.687   6.224  0.5512  0.7863 -0.3245
   57MOL    O8610278   3.253   5.803   6.178 -0.0764 -0.0160 -0.3998
   57MOL    O8710279   3.264   5.655   6.350 -0.1986 -0.2854 -0.0470
   57MOL    H8810280   3.286   5.605   6.035  2.5691  3.0062  1.9789
   57MOL    H8910281   3.381   5.373   6.112  0.2864 -0.1256  0.3108
   57MOL    H9010282   3.488   5.511   6.148  0.1582 -1.4361 -1.7796
   57MOL    H9110283   3.376   5.439   6.269 -0.1100 -0.5990 -0.0955
   57MOL    C9210284   3.321   5.744   6.447  0.4778 -0.1664 -0.0090
   57MOL    C9310285   3.469   5.757   6.439 -0.2483 -0.4293  0.0649
   57MOL    C9410286   3.283   5.691   6.588 -0.4968 -0.1150 -0.5402
   57MOL    O9510287   3.243   5.580   6.609  0.2897 -0.3092  0.2821
   57MOL    O9610288   3.311   5.786   6.686 -0.0419 -0.2331 -0.0877
   57MOL    H9710289   3.263   5.836   6.438  0.6072 -0.3083 -2.8475
   57MOL    H9810290   3.511   5.806   6.527  0.4700 -0.7006 -0.1304
   57MOL    H9910291   3.501   5.653   6.443  2.7300  0.4642  0.1023
   57MOL   H10010292   3.513   5.814   6.357 -1.7255  1.7878  0.7554
   57MOL   C10110293   3.294   5.752   6.826 -0.0420 -0.2683 -0.6867
   57MOL   C10210294   3.291   5.888   6.900 -0.3061  0.3478  0.3071
   57MOL   C10310295   3.406   5.659   6.882  0.5506  0.2466 -0.2407
   57MOL   O10410296   3.494   5.608   6.816  0.2404 -0.1064  0.2465
   57MOL   O10510297   3.394   5.649   7.021 -0.1246  0.2847  0.7242
   57MOL   H10610298   3.201   5.699   6.849 -0.4751 -0.1880 -2.2275
   57MOL   H10710299   3.283   5.969   6.827 -0.8561 -1.6645 -1.9560
   57MOL   H10810300   3.221   5.892   6.983  0.6580  0.2301  1.1340
   57MOL   H10910301   3.387   5.911   6.945 -0.9465  0.3048  1.7229
   57MOL   C11010302   3.490   5.587   7.105 -0.7435 -0.0063  0.0605
   57MOL   C11110303   3.422   5.562   7.237  0.1490  0.3241  0.7244
   57MOL   C11210304   3.626   5.666   7.119  0.1118  0.4587 -0.0963
   57MOL   O11310305   3.738   5.608   7.123 -0.2751  0.4560  0.1109
   57MOL   O11410306   3.620   5.798   7.111 -0.4450 -0.4527 -0.0162
   57MOL   H11510307   3.508   5.487   7.065  1.4956  1.1643 -1.9503
   57MOL   H11610308   3.484   5.506   7.308  0.7647  0.4819  0.3118
   57MOL   H11710309   3.399   5.656   7.286  1.0895  1.3867 -0.8452
   57MOL   H11810310   3.337   5.496   7.219  0.2634  0.4688 -0.3590
   57MOL   C11910311   3.727   5.887   7.083 -0.4523 -0.4751  0.4943
   57MOL   C12010312   3.801   5.912   7.215  0.3050  0.5388 -0.4026
   57MOL   C12110313   3.670   6.017   7.022 -0.4348  0.1644 -0.4265
   57MOL   O12210314   3.617   6.102   7.088  0.3089 -0.3471 -0.9353
   57MOL   O12310315   3.693   6.026   6.890  0.0241  0.1874  0.0721
   57MOL   H12410316   3.792   5.839   7.011 -2.2539 -2.6614  0.2818
   57MOL   H12510317   3.853   5.823   7.251  0.6901  0.7186 -0.5116
   57MOL   H12610318   3.877   5.990   7.213 -0.9122  1.7394 -0.1230
   57MOL   H12710319   3.723   5.944   7.283  0.8127 -0.1343  0.5085
   57MOL   C12810320   3.605   6.098   6.799 -0.2864 -0.3995  1.0363
   57MOL   C12910321   3.641   6.058   6.655  0.4593 -0.1458  0.8430
   57MOL   C13010322   3.614   6.247   6.824  0.0771 -0.5753  0.3907
   57MOL   O13110323   3.723   6.302   6.856 -0.7184  0.6027 -0.1988
   57MOL   O13210324   3.501   6.306   6.792  0.1908 -0.2554  0.1567
   57MOL   H13310325   3.506   6.062   6.826  0.6149 -2.0226  2.2575
   57MOL   H13410326   3.745   6.087   6.642  0.0845  1.1550  0.6046
   57MOL   H13510327   3.622   5.956   6.622 -0.3843  0.9847 -2.3780
   57MOL   H13610328   3.590   6.126   6.586  1.8670  0.5950  0.5192
   57MOL   C13710329   3.494   6.448   6.790  0.0424 -0.8724 -0.1149
   57MOL   C13810330   3.354   6.501   6.832 -0.2290 -0.2239 -0.1360
   57MOL   C13910331   3.541   6.509   6.657  0.0303  0.5991  0.3165
   57MOL   O14010332   3.589   6.438   6.569  0.2884  0.0824 -0.0864
   57MOL   O14110333   3.514   6.646   6.642 -0.0858  0.0934  0.3557
   57MOL   H14210334   3.561   6.491   6.864 -0.8499  0.3616 -0.0017
   57MOL   H14310335   3.356   6.608   6.854 -0.2801 -0.0022 -1.1785
   57MOL   H14410336   3.270   6.482   6.765  0.1581 -0.2855 -0.5983
   57MOL   H14510337   3.323   6.462   6.929  0.6223  1.3512  0.8015
   57MOL   C14610338   3.542   6.717   6.524 -0.0507  0.0303  0.1642
   57MOL   C14710339   3.498   6.854   6.559 -0.3642  0.2231  0.0760
   57MOL   C14810340   3.459   6.661   6.412 -0.4221  0.4284 -0.2993
   57MOL   O14910341   3.511   6.622   6.303  0.4077 -0.3273  0.3820
   57MOL   O15010342   3.328   6.669   6.442 -0.7869 -0.5563 -0.4585
   57MOL   H15110343   3.644   6.707   6.486  0.1564  2.1308  0.1189
   57MOL   H15210344   3.502   6.857   6.668  0.0328 -3.7336  0.2512
   57MOL   H15310345   3.568   6.926   6.516 -1.7258  1.3696 -0.2488
   57MOL   H15410346   3.397   6.885   6.533 -0.2965  1.5567  1.3342
   57MOL   C15510347   3.224   6.624   6.355  0.3054  0.4804 -0.4669
   57MOL   C15610348   3.089   6.646   6.426 -0.5244 -0.1838  0.1729
   57MOL   C15710349   3.228   6.473   6.324  1.1361 -0.3121  0.5994
   57MOL   O15810350   3.207   6.425   6.212 -0.1539  0.0542 -0.6379
   57MOL   O15910351   3.244   6.390   6.435 -0.0992 -0.1001  0.5091
   57MOL   H16010352   3.218   6.674   6.258  1.4416 -0.1468 -0.8723
   57MOL   H16110353   3.084   6.755   6.430 -0.7236 -0.1072 -1.4918
   57MOL   H16210354   3.007   6.603   6.368 -2.8432  2.2232  1.5964
   57MOL   H16310355   3.099   6.599   6.523  1.1707 -0.6044 -0.1834
   57MOL   C16410356   3.237   6.247   6.430  0.0287  0.9710 -0.0195
   57MOL   C16510357   3.210   6.212   6.576 -0.7976 -0.5871  0.3929
   57MOL   C16610358   3.358   6.172   6.367  0.0569  0.1675 -0.1017
   57MOL   O16710359   3.410   6.070   6.416  0.3323 -0.9191 -0.1754
   57MOL   O16810360   3.377   6.215   6.241  0.5848 -0.0943 -0.0879
   57MOL   H16910361   3.150   6.214   6.373  0.0873  0.2580  0.2940
   57MOL   H17010362   3.107   6.234   6.603 -1.2831 -0.5101 -1.4703
   57MOL   H17110363   3.226   6.108   6.605 -0.8500 -1.1416 -1.5032
   57MOL   H17210364   3.263   6.280   6.643 -2.4412 -1.5713  2.7810
   57MOL   C17310365   3.458   6.137   6.151 -0.5227 -0.2872  0.2322
   57MOL   C17410366   3.612   6.160   6.165  1.1628  0.4956  0.1822
   57MOL   C17510367   3.396   6.173   6.015  0.5540  0.0975 -0.4539
   57MOL   O17610368   3.390   6.092   5.926 -0.3122  0.2627  0.3229
   57MOL   O17710369   3.365   6.302   6.008  0.1960  0.0492 -0.6932
   57MOL   H17810370   3.436   6.030   6.147 -0.6324 -0.3172  1.4564
   57MOL   H17910371   3.677   6.083   6.125 -0.3870 -0.1506 -1.1381
   57MOL   H18010372   3.635   6.259   6.125  1.4169 -0.3176 -1.7172
   57MOL   H18110373   3.627   6.175   6.272 -1.2701  1.6552  0.3991
   57MOL   H18210374   3.336   6.331   6.093 -1.4772  1.0268 -1.5644
   58MOL     C110375   7.576   4.658   5.975 -0.5010 -0.0634 -0.2245
   58MOL     C210376   7.615   4.529   5.899 -0.3027 -0.3263  0.3697
   58MOL     C310377   7.469   4.732   5.900  0.1189  0.2623 -0.3126
   58MOL     O410378   7.352   4.698   5.889 -0.2710  0.2972 -0.0442
   58MOL     O510379   7.516   4.852   5.846  0.2149 -0.2151 -0.7909
   58MOL     H610380   7.527   4.630   6.068 -1.6473 -3.0172 -1.6667
   58MOL     H710381   7.669   4.550   5.807  0.7164 -1.2723  0.7416
   58MOL     H810382   7.691   4.476   5.957  1.4034 -0.0515 -1.5519
   58MOL     H910383   7.535   4.465   5.861 -0.3160  0.0279 -0.2080
   58MOL    H1010384   7.661   4.723   5.997 -0.7577  0.7598 -1.6482
   58MOL    C1110385   7.437   4.949   5.769  0.0282  0.3717 -0.2651
   58MOL    C1210386   7.520   5.073   5.747  0.0848 -0.1822  0.5581
   58MOL    C1310387   7.298   4.972   5.824 -0.3704  0.3867 -0.3329
   58MOL    O1410388   7.198   4.965   5.756  0.2632  0.5776  0.3359
   58MOL    O1510389   7.299   5.017   5.950 -0.6996  0.0836  0.0776
   58MOL    H1610390   7.427   4.910   5.668 -1.0358 -0.4371  0.1416
   58MOL    H1710391   7.558   5.117   5.839 -1.6669  1.7348  0.4061
   58MOL    H1810392   7.614   5.039   5.704  0.5674 -0.4961  1.8738
   58MOL    H1910393   7.469   5.151   5.689 -0.8172 -1.7570 -0.8143
   58MOL    C2010394   7.183   5.057   6.023 -0.2216  0.2106 -0.0344
   58MOL    C2110395   7.175   5.206   6.024  0.4298 -0.5816  0.2242
   58MOL    C2210396   7.194   4.999   6.165 -0.6554 -0.8106 -0.0689
   58MOL    O2310397   7.100   4.933   6.209  0.3563 -0.3109 -0.0074
   58MOL    O2410398   7.308   5.028   6.227 -0.8452 -0.6809  0.0729
   58MOL    H2510399   7.088   5.018   5.987 -0.0681 -0.2973  0.0961
   58MOL    H2610400   7.116   5.231   5.936  0.4907  1.5103  0.7512
   58MOL    H2710401   7.123   5.242   6.113 -2.2774 -0.0533 -1.5075
   58MOL    H2810402   7.271   5.255   6.038  0.3150 -0.6141  1.1943
   58MOL    C2910403   7.340   4.962   6.347 -0.3062 -0.2470 -0.1113
   58MOL    C3010404   7.393   5.073   6.442 -0.5071 -0.3378  0.2802
   58MOL    C3110405   7.432   4.846   6.317  1.1403 -1.0335 -0.0347
   58MOL    O3210406   7.494   4.840   6.214  0.2573  0.2823  0.1955
   58MOL    O3310407   7.422   4.746   6.418 -0.5163 -0.1150  0.5985
   58MOL    H3410408   7.249   4.925   6.394 -2.0901  2.1742 -1.5745
   58MOL    H3510409   7.338   5.167   6.434 -0.5463 -0.5572 -2.2295
   58MOL    H3610410   7.394   5.044   6.547 -3.0036 -0.2935  0.3483
   58MOL    H3710411   7.496   5.099   6.419  0.1161 -1.2991  1.8874
   58MOL    C3810412   7.482   4.620   6.399  0.3000 -0.4578 -0.8561
   58MOL    C3910413   7.372   4.524   6.348  0.6485  0.6267 -0.1491
   58MOL    C4010414   7.528   4.570   6.536 -0.3150  0.1453 -0.5100
   58MOL    O4110415   7.530   4.649   6.633 -0.0571 -0.2157  0.3789
   58MOL    O4210416   7.575   4.450   6.538 -0.3734 -0.0965 -0.2636
   58MOL    H4310417   7.572   4.621   6.338  1.1889 -0.3266  0.4399
   58MOL    H4410418   7.383   4.509   6.240  0.7754 -0.2702 -0.0111
   58MOL    H4510419   7.365   4.426   6.394 -0.1123  0.7591  0.0333
   58MOL    H4610420   7.275   4.574   6.353  1.0157  1.3843 -0.4909
   58MOL    C4710421   7.626   4.395   6.661 -0.3851 -0.5391  0.0041
   58MOL    C4810422   7.701   4.261   6.640 -0.5260 -0.0480  0.0698
   58MOL    C4910423   7.514   4.382   6.770  0.1728  0.1629  0.2013
   58MOL    O5010424   7.431   4.291   6.760  0.3091  0.7072 -0.8505
   58MOL    O5110425   7.507   4.480   6.871 -0.6760 -0.4732  0.7555
   58MOL    H5210426   7.700   4.466   6.698 -2.5740  1.0537  1.4485
   58MOL    H5310427   7.787   4.273   6.575 -0.9413  1.7651 -0.1493
   58MOL    H5410428   7.744   4.228   6.735  1.2387 -0.7816 -0.9712
   58MOL    H5510429   7.646   4.174   6.602  1.9890 -1.4678 -0.4160
   58MOL    C5610430   7.397   4.496   6.963 -0.1626 -0.8192  0.2531
   58MOL    C5710431   7.371   4.648   6.958  0.3329 -0.4945 -0.3723
   58MOL    C5810432   7.436   4.443   7.099 -0.1261 -0.2360  0.0867
   58MOL    O5910433   7.541   4.485   7.148  0.7921  0.2287  0.0933
   58MOL    O6010434   7.338   4.376   7.162  0.9590 -0.0297  0.5522
   58MOL    H6110435   7.302   4.453   6.932 -1.5568  2.4094 -0.0722
   58MOL    H6210436   7.309   4.672   7.044 -0.5861 -0.0655 -1.1509
   58MOL    H6310437   7.461   4.709   6.959 -2.0179  3.0748 -0.5712
   58MOL    H6410438   7.322   4.674   6.864  1.2590 -0.9139 -0.9779
   58MOL    C6510439   7.348   4.346   7.300  0.6494 -0.7479  0.5719
   58MOL    C6610440   7.230   4.257   7.350  0.4962 -0.4291  0.9380
   58MOL    C6710441   7.329   4.479   7.380 -0.4688  0.1864  0.4989
   58MOL    O6810442   7.250   4.570   7.342 -0.8727  0.0522 -0.0461
   58MOL    O6910443   7.403   4.476   7.478 -0.2193  0.2522 -0.3086
   58MOL    H7010444   7.444   4.300   7.323  0.7748  0.0979  1.7691
   58MOL    H7110445   7.220   4.264   7.458 -0.0728  0.6840  0.8187
   58MOL    H7210446   7.135   4.287   7.304  0.9699 -0.7760 -0.2914
   58MOL    H7310447   7.250   4.158   7.307  1.5142  0.8228 -1.5912
   58MOL    C7410448   7.367   4.554   7.589 -0.1809  0.7422 -1.0582
   58MOL    C7510449   7.492   4.600   7.668 -0.0556 -0.7242  0.3188
   58MOL    C7610450   7.297   4.462   7.687  0.2875  0.3954  0.6177
   58MOL    O7710451   7.322   4.341   7.702  0.2895 -0.1837  0.1497
   58MOL    O7810452   7.206   4.530   7.754 -0.2691 -0.4791 -0.5564
   58MOL    H7910453   7.312   4.647   7.574 -0.3406  1.0562  1.2107
   58MOL    H8010454   7.477   4.705   7.696 -0.3030 -0.5836 -0.3371
   58MOL    H8110455   7.501   4.546   7.763 -1.0121  2.5452  2.3557
   58MOL    H8210456   7.587   4.585   7.617  0.4302 -0.3281  1.0947
   58MOL    C8310457   7.129   4.468   7.856 -0.0361  0.4651 -0.2569
   58MOL    C8410458   7.012   4.560   7.876 -0.5332  0.5018  0.0949
   58MOL    C8510459   7.216   4.447   7.986 -0.2604  0.3563  0.8304
   58MOL    O8610460   7.317   4.514   8.000  0.1174 -0.6475 -0.7570
   58MOL    O8710461   7.158   4.361   8.077 -0.3878 -0.2003 -0.1297
   58MOL    H8810462   7.094   4.373   7.815  1.0004  0.1440 -0.4237
   58MOL    H8910463   6.959   4.521   7.963  1.2140 -1.1765  0.4214
   58MOL    H9010464   7.050   4.658   7.904 -0.4639  0.8609 -1.2259
   58MOL    H9110465   6.938   4.566   7.796 -1.0163  1.4941  0.6091
   58MOL    C9210466   7.231   4.301   0.035 -0.5275 -0.4131 -0.2098
   58MOL    C9310467   7.305   4.181   8.108  0.0056 -0.1964 -0.0769
   58MOL    C9410468   7.134   4.256   0.149  0.3796 -0.4086  0.0923
   58MOL    O9510469   7.013   4.288   0.151 -0.1891 -0.2083 -0.2877
   58MOL    O9610470   7.176   4.162   0.233 -0.2049 -0.1041  0.3895
   58MOL    H9710471   7.296   4.379   0.074 -0.7526 -0.8226  1.0256
   58MOL    H9810472   7.372   4.124   0.024 -0.1844 -1.4399 -0.9608
   58MOL    H9910473   7.229   4.120   8.058  1.4726 -0.3693 -2.1638
   58MOL   H10010474   7.366   4.211   8.023 -1.5175 -0.2740 -1.2245
   58MOL   C10110475   7.112   4.135   0.357  0.2537 -0.6924  0.1284
   58MOL   C10210476   7.221   4.083   0.453  0.1858  0.0221 -0.2311
   58MOL   C10310477   7.002   4.027   0.343  0.2493 -0.6221  0.6881
   58MOL   O10410478   6.983   3.961   0.239 -0.5396  0.1264 -0.0512
   58MOL   O10510479   6.948   4.012   0.461  0.2964 -0.4068  0.1545
   58MOL   H10610480   7.061   4.223   0.398 -0.4761 -1.5489  1.0833
   58MOL   H10710481   7.180   4.049   0.548  0.6658  1.3048  0.4518
   58MOL   H10810482   7.282   4.001   0.416 -0.6379 -0.2117 -1.1005
   58MOL   H10910483   7.302   4.154   0.470  1.9761 -1.6780 -1.5425
   58MOL   C11010484   6.839   3.924   0.479 -0.1207 -0.2486  0.3633
   58MOL   C11110485   6.860   3.778   0.443  0.5662  0.4828 -0.3373
   58MOL   C11210486   6.706   3.991   0.437  0.1522  0.2897  0.9455
   58MOL   O11310487   6.686   4.043   0.321  0.6247 -0.1719 -0.4392
   58MOL   O11410488   6.612   3.971   0.532 -0.2072  0.5653  0.3668
   58MOL   H11510489   6.826   3.922   0.587 -1.6122  0.9076  0.2260
   58MOL   H11610490   6.882   3.730   0.539  2.1793  2.1898  0.1634
   58MOL   H11710491   6.767   3.733   0.408  1.3704 -2.0274  0.6215
   58MOL   H11810492   6.945   3.754   0.379 -0.2630  1.2517 -1.7471
   58MOL   C11910493   6.486   4.042   0.544  0.3281  0.1164  0.4967
   58MOL   C12010494   6.460   4.071   0.692 -0.4723  0.4587  0.9718
   58MOL   C12110495   6.377   3.970   0.473  0.6426  0.0783  0.6130
   58MOL   O12210496   6.321   3.875   0.525  0.4472 -0.1987 -0.1491
   58MOL   O12310497   6.352   4.017   0.351 -0.5968 -0.0304  0.4538
   58MOL   H12410498   6.498   4.140   0.497 -0.9443 -0.0282 -0.1614
   58MOL   H12510499   6.451   3.976   0.744 -1.9073  1.3066  2.3143
   58MOL   H12610500   6.534   4.136   0.739 -0.5447  0.4651  1.0763
   58MOL   H12710501   6.362   4.119   0.692 -1.1285 -0.8449  1.2330
   58MOL   C12810502   6.255   3.955   0.261 -0.1956 -0.5038 -0.1514
   58MOL   C12910503   6.265   4.036   0.129  0.2371  0.0601  0.1392
   58MOL   C13010504   6.113   3.949   0.317 -0.0658  0.1997  0.3138
   58MOL   O13110505   6.035   3.855   0.289 -0.4754  0.2674  0.0307
   58MOL   O13210506   6.090   4.061   0.387 -0.2204  0.2991 -0.6043
   58MOL   H13310507   6.289   3.853   0.242  0.8058 -0.0798 -0.6867
   58MOL   H13410508   6.358   4.009   0.080  0.1867  0.8205 -0.3919
   58MOL   H13510509   6.183   4.006   0.062  0.5000  0.9975 -0.6112
   58MOL   H13610510   6.256   4.144   0.138 -3.0275 -0.3821  3.0110
   58MOL   C13710511   5.963   4.096   0.434 -0.6633  0.1832  0.1506
   58MOL   C13810512   5.968   4.250   0.467  0.2273  0.6921 -0.5269
   58MOL   C13910513   5.936   4.004   0.552  0.0080 -0.6940  0.8404
   58MOL   O14010514   5.965   4.031   0.665 -0.8110  0.2137 -0.0073
   58MOL   O14110515   5.862   3.892   0.519 -0.2049  0.6986  0.5376
   58MOL   H14210516   5.888   4.074   0.358 -1.6301  0.3115  1.0641
   58MOL   H14310517   5.872   4.285   0.504  0.2337  0.4386 -0.2687
   58MOL   H14410518   6.043   4.274   0.542 -0.6398  0.6299  0.3729
   58MOL   H14510519   5.993   4.321   0.388 -0.0167  0.1131 -1.1355
   58MOL   C14610520   5.829   3.790   0.623  0.2045 -0.5322 -0.3575
   58MOL   C14710521   5.798   3.655   0.550  0.1328 -0.1286 -0.2734
   58MOL   C14810522   5.711   3.839   0.710  0.1271  0.4722  0.4482
   58MOL   O14910523   5.655   3.945   0.679 -0.2239  0.6485  0.5597
   58MOL   O15010524   5.676   3.762   0.811  0.2482  0.2585  0.1333
   58MOL   H15110525   5.917   3.763   0.681  0.3375  2.6940  1.0497
   58MOL   H15210526   5.887   3.621   0.497  0.8145  2.5574 -0.9144
   58MOL   H15310527   5.779   3.584   0.630 -2.0237 -1.7104 -2.0985
   58MOL   H15410528   5.713   3.664   0.482 -0.9792 -1.1979  0.9425
   58MOL   C15510529   5.546   3.768   0.877  1.0478 -0.1216  0.0418
   58MOL   C15610530   5.563   3.835   1.017 -0.6119 -0.7566  0.3884
   58MOL   C15710531   5.483   3.636   0.882 -0.0335  0.7595  0.6694
   58MOL   O15810532   5.455   3.574   0.983  0.0030 -0.0301  0.0745
   58MOL   O15910533   5.471   3.583   0.757 -0.4398  1.3067 -0.3243
   58MOL   H16010534   5.476   3.833   0.825 -1.4121 -1.5832  1.4245
   58MOL   H16110535   5.478   3.826   1.084  0.0418 -0.6877  1.2244
   58MOL   H16210536   5.644   3.786   1.072 -0.3926  1.0382  1.6919
   58MOL   H16310537   5.568   3.943   1.003 -1.6664 -0.7560 -0.0317
   58MOL   C16410538   5.442   3.444   0.743 -0.2078  0.6187  0.4365
   58MOL   C16510539   5.579   3.377   0.695  0.2170 -0.5024 -0.6852
   58MOL   C16610540   5.336   3.431   0.633  0.0033  1.0505 -0.4920
   58MOL   O16710541   5.364   3.413   0.516 -0.1120 -0.3615 -0.6668
   58MOL   O16810542   5.214   3.435   0.680 -0.1541 -0.0050  0.0237
   58MOL   H16910543   5.407   3.396   0.834  1.8177 -2.7496 -0.4535
   58MOL   H17010544   5.626   3.431   0.613  1.9187 -1.8258 -0.6073
   58MOL   H17110545   5.646   3.359   0.779 -1.3393 -0.2423  0.6449
   58MOL   H17210546   5.550   3.278   0.659 -0.8949  0.2786 -1.9951
   58MOL   C17310547   5.093   3.440   0.595 -0.4674  0.2856 -0.1316
   58MOL   C17410548   4.969   3.481   0.671  0.7300  0.3046  0.1813
   58MOL   C17510549   5.074   3.302   0.538  0.1381  0.2366 -0.2345
   58MOL   O17610550   5.063   3.286   0.418  0.6142 -0.1793  0.2480
   58MOL   O17710551   5.076   3.198   0.628 -0.0944 -0.0121  0.1022
   58MOL   H17810552   5.106   3.508   0.510  1.2451 -0.3654 -0.4156
   58MOL   H17910553   4.990   3.574   0.724  0.0552  0.7836 -0.3906
   58MOL   H18010554   4.889   3.494   0.599  1.6527 -1.4032 -1.2079
   58MOL   H18110555   4.944   3.405   0.746 -1.8074 -0.0658 -1.0052
   58MOL   H18210556   5.069   3.124   0.570  1.3544  0.0472 -0.1750
   59MOL     C110557   4.031   3.659   1.483 -0.0972 -0.3009 -0.1205
   59MOL     C210558   3.946   3.547   1.542 -0.2249  0.0432  0.2027
   59MOL     C310559   4.174   3.618   1.430 -0.3190 -0.2701 -0.4616
   59MOL     O410560   4.212   3.501   1.438  0.1558  0.4963  0.3801
   59MOL     O510561   4.246   3.722   1.390 -0.1407 -0.3163  0.1513
   59MOL     H610562   3.988   3.693   1.388  2.2787 -2.0164 -1.8797
   59MOL     H710563   3.951   3.537   1.650  2.9733  2.4593  0.3439
   59MOL     H810564   3.841   3.555   1.514  0.1458  1.6923 -0.8008
   59MOL     H910565   3.980   3.450   1.505  0.3750  0.3361 -0.0054
   59MOL    H1010566   4.039   3.745   1.549 -2.5425  0.6614 -1.0106
   59MOL    C1110567   4.377   3.698   1.348 -0.0572 -0.1412 -0.4584
   59MOL    C1210568   4.450   3.831   1.379 -0.0910  0.3018  0.1795
   59MOL    C1310569   4.373   3.672   1.194 -0.4870 -0.5590 -0.4036
   59MOL    O1410570   4.403   3.563   1.147  0.1687 -0.1665  0.4030
   59MOL    O1510571   4.340   3.784   1.122  0.6427 -1.0319  0.4197
   59MOL    H1610572   4.436   3.622   1.398 -1.2277 -0.1865  0.8980
   59MOL    H1710573   4.552   3.819   1.341 -0.1395  0.2719  0.0610
   59MOL    H1810574   4.397   3.920   1.345  1.0284  1.7283  2.0193
   59MOL    H1910575   4.440   3.847   1.486  1.4566  0.4044  0.3268
   59MOL    C2010576   4.315   3.778   0.984 -0.3012 -0.3596 -0.4108
   59MOL    C2110577   4.440   3.781   0.898  0.4295 -0.3415 -0.3522
   59MOL    C2210578   4.214   3.881   0.931  0.3363 -0.1601 -0.0746
   59MOL    O2310579   4.105   3.838   0.897 -0.0463  0.5782 -0.1619
   59MOL    O2410580   4.254   4.007   0.936  0.2054  0.4371  0.3449
   59MOL    H2510581   4.273   3.681   0.958 -2.4238  0.9470 -2.1317
   59MOL    H2610582   4.510   3.859   0.929  1.3009 -0.9974 -0.6310
   59MOL    H2710583   4.492   3.686   0.909 -2.5135 -2.3353 -2.7668
   59MOL    H2810584   4.443   3.796   0.791 -0.7832  0.1041 -0.3323
   59MOL    C2910585   4.172   4.119   0.898 -0.5160  0.2066  0.7276
   59MOL    C3010586   4.249   4.239   0.864  0.1156 -0.2447 -0.0201
   59MOL    C3110587   4.059   4.138   0.998 -0.4662 -0.0232 -0.0164
   59MOL    O3210588   4.062   4.097   1.113  0.1561 -0.0392 -0.7078
   59MOL    O3310589   3.960   4.218   0.951  0.0821  0.1707 -0.1121
   59MOL    H3410590   4.121   4.110   0.802  1.4319  2.4282 -0.5701
   59MOL    H3510591   4.186   4.324   0.837  2.0965  0.6441 -1.9839
   59MOL    H3610592   4.312   4.283   0.942  2.8656 -3.0513 -0.5851
   59MOL    H3710593   4.310   4.228   0.774  1.5648 -0.0591  0.9157
   59MOL    C3810594   3.848   4.256   1.026 -0.3873 -0.2415 -0.0992
   59MOL    C3910595   3.732   4.278   0.930  0.4812  0.6982 -0.0527
   59MOL    C4010596   3.881   4.387   1.099 -0.3166  0.5225  0.6052
   59MOL    O4110597   3.996   4.432   1.094 -0.6932 -0.3792 -0.5993
   59MOL    O4210598   3.782   4.433   1.170  0.2442  0.0236  0.1307
   59MOL    H4310599   3.822   4.174   1.093 -1.7616 -1.6094 -2.2413
   59MOL    H4410600   3.740   4.366   0.867 -0.8779 -0.0865 -1.3373
   59MOL    H4510601   3.738   4.201   0.854 -1.3527  0.3910  0.0796
   59MOL    H4610602   3.635   4.273   0.979  1.0819 -2.0118  0.9359
   59MOL    C4710603   3.788   4.561   1.241  0.6631 -0.4380 -0.1771
   59MOL    C4810604   3.784   4.688   1.154 -0.0947  0.0082  0.5688
   59MOL    C4910605   3.888   4.568   1.352  0.4580  0.1662  0.5202
   59MOL    O5010606   3.939   4.677   1.382  0.2783 -0.2102  0.4347
   59MOL    O5110607   3.893   4.445   1.406 -0.2135 -0.4383  0.4833
   59MOL    H5210608   3.702   4.561   1.307  2.1705  0.4505  1.8302
   59MOL    H5310609   3.709   4.676   1.076 -1.6428  1.1707  1.8433
   59MOL    H5410610   3.752   4.768   1.221 -2.9710  1.2512 -2.1659
   59MOL    H5510611   3.882   4.715   1.114  0.1194 -1.4492  0.0767
   59MOL    C5610612   3.980   4.408   1.516  0.5130 -0.0853  0.0627
   59MOL    C5710613   3.914   4.436   1.651  0.2630 -0.1646 -0.4232
   59MOL    C5810614   4.130   4.467   1.498  0.4057  0.3136  0.6243
   59MOL    O5910615   4.205   4.514   1.584  0.0827 -0.7655  0.2790
   59MOL    O6010616   4.173   4.459   1.367  0.8809  0.2161  0.2685
   59MOL    H6110617   4.006   4.304   1.498  1.7897  0.8171 -3.9296
   59MOL    H6210618   3.834   4.364   1.669  0.9384 -0.5235  1.2131
   59MOL    H6310619   3.982   4.424   1.736 -1.1218  1.9519  1.0134
   59MOL    H6410620   3.873   4.536   1.665  0.0721 -0.2431 -0.4219
   59MOL    C6510621   4.310   4.486   1.334 -0.0245  0.3124  0.6561
   59MOL    C6610622   4.309   4.515   1.178  0.5442  0.7599 -0.3411
   59MOL    C6710623   4.391   4.362   1.375 -0.0463 -0.5885  0.4771
   59MOL    O6810624   4.338   4.258   1.414 -0.4143 -0.0829  0.6491
   59MOL    O6910625   4.527   4.381   1.364 -0.0027  0.0412  0.1653
   59MOL    H7010626   4.345   4.569   1.396  0.1232  0.3594  0.5098
   59MOL    H7110627   4.299   4.422   1.121 -1.4744 -0.0279  1.2195
   59MOL    H7210628   4.230   4.587   1.156  0.4404  0.7225 -0.0984
   59MOL    H7310629   4.412   4.538   1.151  0.9381  0.0529  0.5249
   59MOL    C7410630   4.617   4.269   1.375 -0.4714  0.6169 -1.2605
   59MOL    C7510631   4.757   4.341   1.392 -0.2958  0.1938 -0.0110
   59MOL    C7610632   4.613   4.182   1.238 -0.1950 -0.5825 -0.2181
   59MOL    O7710633   4.574   4.064   1.240  0.1201 -0.3360 -0.6445
   59MOL    O7810634   4.663   4.246   1.131 -0.3841 -0.1291 -0.5535
   59MOL    H7910635   4.593   4.203   1.458  2.1981  2.0052  0.6775
   59MOL    H8010636   4.764   4.396   1.486 -0.5293 -1.1812  0.8385
   59MOL    H8110637   4.839   4.269   1.397 -1.1241 -0.8981 -1.6638
   59MOL    H8210638   4.770   4.413   1.312 -0.5229 -1.7640 -1.8442
   59MOL    C8310639   4.637   4.195   1.000 -0.0233  0.9992 -0.3734
   59MOL    C8410640   4.742   4.084   0.967 -0.1586  0.6608  0.4252
   59MOL    C8510641   4.659   4.304   0.896  0.4599 -0.0156 -0.2097
   59MOL    O8610642   4.653   4.278   0.774 -0.3969 -0.4670 -0.3259
   59MOL    O8710643   4.674   4.431   0.956  0.0464  0.9757  0.2386
   59MOL    H8810644   4.535   4.156   0.997  0.3170  0.1424 -0.6239
   59MOL    H8910645   4.716   4.015   0.887  1.2896  2.1246 -1.3643
   59MOL    H9010646   4.845   4.114   0.943  0.1733 -0.6318  0.2021
   59MOL    H9110647   4.751   4.018   1.053  1.5790  0.0933 -0.1637
   59MOL    C9210648   4.696   4.539   0.870  0.5469 -0.1457 -0.0093
   59MOL    C9310649   4.781   4.638   0.945  0.1924 -0.1664 -0.2867
   59MOL    C9410650   4.562   4.610   0.831  0.4214 -0.1409  0.0379
   59MOL    O9510651   4.454   4.561   0.864  0.1321  0.1360 -0.7507
   59MOL    O9610652   4.584   4.717   0.751  0.6262 -0.1546  0.2304
   59MOL    H9710653   4.737   4.517   0.771  0.0863  2.3288 -0.7960
   59MOL    H9810654   4.827   4.714   0.883  0.8943 -1.4938 -1.4376
   59MOL    H9910655   4.725   4.669   1.033  1.0671  0.1543  0.1662
   59MOL   H10010656   4.867   4.577   0.974  0.5032  1.0313  1.4399
   59MOL   C10110657   4.484   4.815   0.732  0.0190 -0.0753  0.9845
   59MOL   C10210658   4.531   4.933   0.648  0.3376  0.1823  0.2797
   59MOL   C10310659   4.423   4.866   0.858  0.3953  0.1338 -0.3340
   59MOL   O10410660   4.306   4.846   0.890 -0.2206 -0.1742  0.4783
   59MOL   O10510661   4.510   4.933   0.935 -0.2953  0.0674  0.1407
   59MOL   H10610662   4.404   4.772   0.673 -0.0636 -0.1992  1.1864
   59MOL   H10710663   4.455   5.011   0.645  0.6304  0.4511 -0.1291
   59MOL   H10810664   4.621   4.980   0.686  1.3110 -1.0863 -0.4334
   59MOL   H10910665   4.549   4.900   0.545  1.1395 -2.4268  1.2130
   59MOL   C11010666   4.467   4.991   1.055 -0.1226  0.1029  0.3623
   59MOL   C11110667   4.506   5.137   1.052  0.4858  0.5162  0.0189
   59MOL   C11210668   4.521   4.916   1.169  0.4995 -0.0461 -0.2796
   59MOL   O11310669   4.438   4.870   1.251  0.1046  0.1962  0.0655
   59MOL   O11410670   4.656   4.898   1.181 -0.4083  0.1428  0.0047
   59MOL   H11510671   4.359   4.993   1.070 -0.1515  2.1465  0.1227
   59MOL   H11610672   4.612   5.148   1.030  0.2598 -1.0205 -2.0408
   59MOL   H11710673   4.441   5.188   0.981 -0.9839  0.1921  1.0935
   59MOL   H11810674   4.485   5.185   1.147 -0.4171 -2.6446  1.5105
   59MOL   C11910675   4.728   4.857   1.301  0.1748  0.2263  0.1922
   59MOL   C12010676   4.716   4.707   1.337  0.2863  0.0189 -0.3749
   59MOL   C12110677   4.692   4.960   1.411  0.4146  1.5956  0.0488
   59MOL   O12210678   4.687   4.924   1.528  0.4566 -0.2622  0.0411
   59MOL   O12310679   4.678   5.083   1.366  0.1792  0.0943 -0.5978
   59MOL   H12410680   4.834   4.875   1.286 -0.0017  0.2463 -1.1558
   59MOL   H12510681   4.612   4.683   1.357  0.4449  1.0631  1.8362
   59MOL   H12610682   4.759   4.647   1.256 -0.1099 -0.1932 -0.4281
   59MOL   H12710683   4.767   4.679   1.430 -2.0744  0.5318  1.1153
   59MOL   C12810684   4.695   5.196   1.453  0.7066  0.1432  0.4121
   59MOL   C12910685   4.566   5.284   1.434  0.0922  0.3403  0.5949
   59MOL   C13010686   4.817   5.277   1.432  0.5209 -0.1446  0.4958
   59MOL   O13110687   4.868   5.290   1.324  0.2574 -0.3449 -0.2375
   59MOL   O13210688   4.873   5.321   1.551  0.4439  0.9163  0.0389
   59MOL   H13310689   4.708   5.165   1.557  1.2522  1.8843  0.8806
   59MOL   H13410690   4.573   5.376   1.491  0.3440  1.1636 -0.7258
   59MOL   H13510691   4.551   5.323   1.333  0.1410  0.0194  0.4628
   59MOL   H13610692   4.476   5.229   1.459  0.1905 -0.1916 -0.1941
   59MOL   C13710693   4.963   5.438   1.545 -0.6195 -0.2995  0.5956
   59MOL   C13810694   5.046   5.428   1.664  0.4742 -0.3133 -0.3300
   59MOL   C13910695   4.874   5.559   1.545 -0.4037 -0.3502  0.0918
   59MOL   O14010696   4.777   5.569   1.619  0.4891  0.4923  0.3440
   59MOL   O14110697   4.936   5.659   1.481 -0.3545  0.3636 -0.6998
   59MOL   H14210698   5.034   5.426   1.464 -0.9352 -1.2719  0.4649
   59MOL   H14310699   5.084   5.326   1.659 -0.1952 -0.6010  0.4499
   59MOL   H14410700   5.131   5.497   1.665 -1.2976  1.9566  2.9176
   59MOL   H14510701   5.002   5.424   1.764 -3.2272  1.3704 -1.8065
   59MOL   C14610702   4.918   5.794   1.524 -0.1269 -0.4998 -0.3460
   59MOL   C14710703   4.877   5.864   1.397  0.1650 -0.4457 -0.4267
   59MOL   C14810704   5.042   5.843   1.590 -0.0011  1.2836  0.0704
   59MOL   O14910705   5.106   5.932   1.536 -0.3371  0.1608 -0.4084
   59MOL   O15010706   5.081   5.775   1.701  0.7808  0.3857 -0.0551
   59MOL   H15110707   4.834   5.807   1.592 -0.1707 -2.4680 -0.0142
   59MOL   H15210708   4.964   5.881   1.333  0.8529  2.0563  1.1016
   59MOL   H15310709   4.796   5.816   1.342 -2.3124  1.1321  1.7494
   59MOL   H15410710   4.837   5.962   1.421  2.8689  1.0010 -1.5971
   59MOL   C15510711   5.202   5.813   1.767  0.0479 -0.7172 -0.3208
   59MOL   C15610712   5.259   5.682   1.836  0.1322 -0.0637  0.3574
   59MOL   C15710713   5.185   5.919   1.872  0.3635 -0.0026  0.2379
   59MOL   O15810714   5.274   6.003   1.890 -0.0426  0.3466 -0.1029
   59MOL   O15910715   5.069   5.914   1.936 -0.1537  0.7993  0.7913
   59MOL   H16010716   5.275   5.861   1.702 -0.6029 -0.1734 -0.6515
   59MOL   H16110717   5.321   5.627   1.766  1.6711  1.5119  0.4623
   59MOL   H16210718   5.330   5.710   1.914  1.0591 -0.4259 -0.3534
   59MOL   H16310719   5.182   5.627   1.889 -0.2993  0.3290  0.1437
   59MOL   C16410720   5.032   6.009   2.038 -0.3953  0.1630 -1.3101
   59MOL   C16510721   5.058   5.935   2.166  0.2128 -0.0728 -0.5045
   59MOL   C16610722   4.883   6.045   2.029  0.3545  0.3611 -0.3503
   59MOL   O16710723   4.809   6.045   2.123  0.0868 -0.3835 -0.5631
   59MOL   O16810724   4.839   6.054   1.898  0.0341 -0.1423 -0.0092
   59MOL   H16910725   5.087   6.104   2.032 -0.0689  0.2807  2.6764
   59MOL   H17010726   4.998   5.845   2.176 -0.7466  0.6061  0.0197
   59MOL   H17110727   5.162   5.904   2.171  0.7393  1.8065  1.1011
   59MOL   H17210728   5.044   6.001   2.252  0.5211  2.5653 -2.4293
   59MOL   C17310729   4.709   6.109   1.872 -0.4329 -0.4681  0.0432
   59MOL   C17410730   4.653   6.026   1.750 -0.5664 -0.1975 -0.0598
   59MOL   C17510731   4.722   6.262   1.852 -0.3153 -0.3540  0.0057
   59MOL   O17610732   4.696   6.324   1.750 -0.2050 -0.2606 -0.0967
   59MOL   O17710733   4.768   6.323   1.965  0.3482 -0.6446 -0.5825
   59MOL   H17810734   4.651   6.094   1.963 -0.0646 -2.0564  0.0316
   59MOL   H17910735   4.560   6.067   1.711  0.2011  1.7645  0.1372
   59MOL   H18010736   4.732   6.009   1.678 -0.8486 -2.0809  0.0426
   59MOL   H18110737   4.612   5.927   1.772 -0.8104 -0.4519 -1.5900
   59MOL   H18210738   4.796   6.411   1.947  1.0741 -0.6022  0.6762
   60MOL     C110739   3.352   2.995   1.113  0.1851  0.3231 -0.5059
   60MOL     C210740   3.484   3.058   1.072  0.3906  0.2165  0.0590
   60MOL     C310741   3.266   3.079   1.211 -0.3009  0.6223 -0.0951
   60MOL     O410742   3.142   3.099   1.193 -0.4228  0.2632 -0.4136
   60MOL     O510743   3.335   3.131   1.317 -0.5370 -0.2969 -0.3584
   60MOL     H610744   3.291   2.986   1.022 -1.6594 -0.3530  0.7605
   60MOL     H710745   3.541   3.002   0.998  1.8434  0.9486  0.6081
   60MOL     H810746   3.478   3.165   1.049 -1.7008  0.6431  2.3427
   60MOL     H910747   3.544   3.056   1.163  0.1927  0.5017  0.1968
   60MOL    H1010748   3.352   2.895   1.157 -1.9198 -0.6464 -2.5299
   60MOL    C1110749   3.278   3.222   1.413 -0.2673 -0.6345  0.4419
   60MOL    C1210750   3.386   3.285   1.490  0.7042  0.0502  0.2701
   60MOL    C1310751   3.183   3.158   1.509  1.0977 -0.0016  0.0796
   60MOL    O1410752   3.104   3.233   1.563 -0.6859  0.6186  0.2642
   60MOL    O1510753   3.202   3.028   1.521  0.1774  0.0313  0.0389
   60MOL    H1610754   3.215   3.292   1.358 -1.5595 -1.3246  1.0179
   60MOL    H1710755   3.441   3.205   1.540  0.3839 -1.7372 -2.1136
   60MOL    H1810756   3.449   3.336   1.418  1.9152 -0.1865  1.1482
   60MOL    H1910757   3.354   3.356   1.566 -1.3930  0.3443 -0.8427
   60MOL    C2010758   3.112   2.951   1.597 -0.7600  0.0867  0.0343
   60MOL    C2110759   3.189   2.899   1.726  0.7717 -0.1774  0.5636
   60MOL    C2210760   3.048   2.849   1.509  0.0674 -0.0212 -0.8897
   60MOL    O2310761   3.074   2.848   1.389  0.5386 -0.0136  0.0533
   60MOL    O2410762   2.961   2.767   1.579 -0.1208  0.2272  0.1143
   60MOL    H2510763   3.033   3.014   1.638  0.3237  1.2605  0.3685
   60MOL    H2610764   3.258   2.966   1.777  1.2462  0.6939 -1.1714
   60MOL    H2710765   3.114   2.856   1.792 -0.8256  2.9390  0.9173
   60MOL    H2810766   3.244   2.811   1.694  0.2758  0.0106 -0.8502
   60MOL    C2910767   2.875   2.679   1.513  0.2345 -0.2115  0.0930
   60MOL    C3010768   2.782   2.611   1.617  0.3740 -1.3610 -0.7591
   60MOL    C3110769   2.944   2.559   1.438  0.8746  0.0731 -0.2298
   60MOL    O3210770   3.020   2.489   1.502  0.6075  0.5460 -0.7338
   60MOL    O3310771   2.905   2.549   1.308 -0.3569  0.0363  0.8686
   60MOL    H3410772   2.817   2.731   1.437 -0.3562 -0.4181  0.3972
   60MOL    H3510773   2.714   2.538   1.573 -0.4318 -1.1247  0.0738
   60MOL    H3610774   2.839   2.571   1.701  1.0765 -2.1978 -1.6182
   60MOL    H3710775   2.727   2.687   1.672  2.2633  0.6818 -1.6049
   60MOL    C3810776   2.943   2.437   1.233 -0.8347  0.2983  0.7204
   60MOL    C3910777   2.880   2.452   1.095  0.0673 -0.2237 -0.0157
   60MOL    C4010778   2.900   2.302   1.295  0.8469  1.0527  0.6813
   60MOL    O4110779   2.778   2.266   1.289  0.2142  0.4116  0.2716
   60MOL    O4210780   3.003   2.226   1.344 -0.2867 -0.0549 -0.5463
   60MOL    H4310781   3.051   2.427   1.236 -0.5953  2.7139  0.7427
   60MOL    H4410782   2.772   2.467   1.098  0.0558 -0.3659  0.3005
   60MOL    H4510783   2.929   2.526   1.031 -2.6158 -0.3911 -2.3633
   60MOL    H4610784   2.878   2.359   1.040 -1.4989 -1.6752  2.4263
   60MOL    C4710785   2.967   2.116   1.430 -0.1279 -0.1796  0.2929
   60MOL    C4810786   2.922   2.160   1.575 -0.0177  0.1324 -0.7274
   60MOL    C4910787   3.082   2.015   1.442 -0.0776 -0.3265  0.6069
   60MOL    O5010788   3.140   1.981   1.547  0.0484  0.5666 -0.8012
   60MOL    O5110789   3.113   1.971   1.317 -0.1975  0.0505 -0.2550
   60MOL    H5210790   2.884   2.061   1.386  0.5422 -1.3062  0.4276
   60MOL    H5310791   2.993   2.227   1.623 -0.8875 -0.7366  1.9040
   60MOL    H5410792   2.826   2.211   1.584 -0.5733 -0.7613 -1.5363
   60MOL    H5510793   2.908   2.064   1.624  3.5119 -0.7460 -1.3196
   60MOL    C5610794   3.247   1.932   1.284 -0.6533  0.4689  0.4754
   60MOL    C5710795   3.270   1.785   1.342  0.0984 -0.1281  0.2459
   60MOL    C5810796   3.360   2.033   1.327 -0.3160  0.6810  0.2098
   60MOL    O5910797   3.454   1.990   1.393 -0.1970  0.5940 -0.0958
   60MOL    O6010798   3.333   2.166   1.311 -0.3344  0.0882 -0.0734
   60MOL    H6110799   3.268   1.922   1.178  1.0717 -0.6981  0.9091
   60MOL    H6210800   3.190   1.716   1.312  0.4427 -0.4462  0.0555
   60MOL    H6310801   3.363   1.738   1.310  1.1504  0.0808  2.8527
   60MOL    H6410802   3.279   1.778   1.451  1.3869 -0.7607  0.0996
   60MOL    C6510803   3.415   2.276   1.367 -0.0622  0.1534 -0.3543
   60MOL    C6610804   3.332   2.405   1.366  0.5185  0.0735  0.3677
   60MOL    C6710805   3.547   2.290   1.288  0.1203  0.5514  0.9414
   60MOL    O6810806   3.548   2.356   1.181 -0.6783  0.0309 -0.2971
   60MOL    O6910807   3.643   2.210   1.333 -0.4175 -0.0734  0.7897
   60MOL    H7010808   3.447   2.245   1.467 -0.5361 -1.0838 -0.5817
   60MOL    H7110809   3.326   2.456   1.270  0.6029 -0.4063  0.1056
   60MOL    H7210810   3.228   2.388   1.392  0.6424 -1.5045 -0.1121
   60MOL    H7310811   3.373   2.472   1.442  3.5566 -0.6971 -0.5343
   60MOL    C7410812   3.756   2.163   1.256  0.1323 -0.0855  0.4456
   60MOL    C7510813   3.862   2.277   1.249 -0.1313 -0.2062  0.4614
   60MOL    C7610814   3.709   2.119   1.121 -0.6948  0.4255  0.2387
   60MOL    O7710815   3.769   2.151   1.018 -0.1363  0.0075 -1.0288
   60MOL    O7810816   3.614   2.021   1.121 -0.2383 -0.2985 -0.2702
   60MOL    H7910817   3.801   2.081   1.311  1.5199 -0.2944 -0.9379
   60MOL    H8010818   3.820   2.358   1.189  0.3401  0.9282  1.6561
   60MOL    H8110819   3.877   2.319   1.348  2.2824 -1.4504  0.6428
   60MOL    H8210820   3.955   2.234   1.213 -0.6942 -0.5692 -0.6021
   60MOL    C8310821   3.561   1.943   1.011 -0.6911  0.7254  0.5435
   60MOL    C8410822   3.667   1.852   0.944 -0.2184 -0.2745  0.1496
   60MOL    C8510823   3.496   2.033   0.910  0.5723  0.4346 -1.1531
   60MOL    O8610824   3.522   2.036   0.793  0.7588  0.3108 -0.4105
   60MOL    O8710825   3.402   2.097   0.976  0.2834  0.1765  0.1206
   60MOL    H8810826   3.484   1.878   1.053 -0.7117 -1.3228 -2.4927
   60MOL    H8910827   3.715   1.788   1.018  0.4567 -0.0932 -0.1270
   60MOL    H9010828   3.612   1.787   0.876  1.2879 -0.5836 -0.8115
   60MOL    H9110829   3.744   1.897   0.882 -0.7785 -0.0178 -0.3586
   60MOL    C9210830   3.301   2.165   0.906  0.0706 -1.4006 -0.2923
   60MOL    C9310831   3.245   2.282   0.991 -0.0826 -0.8619  0.0015
   60MOL    C9410832   3.181   2.073   0.869  0.4453  0.0530  0.2943
   60MOL    O9510833   3.187   1.952   0.879 -0.1610  0.3684 -0.2148
   60MOL    O9610834   3.077   2.143   0.817  0.2242  0.5369 -0.5823
   60MOL    H9710835   3.336   2.212   0.814  2.0276 -0.0279  1.1023
   60MOL    H9810836   3.180   2.239   1.067 -0.3643 -1.4308 -0.5540
   60MOL    H9910837   3.321   2.332   1.050 -0.9805  2.3998 -1.4625
   60MOL   H10010838   3.192   2.351   0.925  0.0978  1.2326  2.0181
   60MOL   C10110839   2.951   2.083   0.801 -0.1750  0.0389  0.7454
   60MOL   C10210840   2.869   2.175   0.706 -0.6467  0.6095  0.1309
   60MOL   C10310841   2.879   2.077   0.939 -0.2711  0.6367 -0.3268
   60MOL   O10410842   2.926   2.102   1.051 -0.5937  0.4270  0.1386
   60MOL   O10510843   2.748   2.044   0.916  0.3502 -0.7407  0.1978
   60MOL   H10610844   2.950   1.987   0.749 -1.5620  0.6640 -0.4146
   60MOL   H10710845   2.842   2.273   0.746 -0.3865  0.8472 -0.2794
   60MOL   H10810846   2.937   2.187   0.622 -0.0871  2.5982  0.8258
   60MOL   H10910847   2.780   2.122   0.672 -2.1379  3.4374 -0.4929
   60MOL   C11010848   2.651   2.054   1.021  0.4145  0.2785  0.0979
   60MOL   C11110849   2.616   1.911   1.067 -0.3610  0.2621 -0.3028
   60MOL   C11210850   2.528   2.136   0.967 -0.4553  0.3415  0.3935
   60MOL   O11310851   2.421   2.075   0.933  0.1740  0.1595 -0.1065
   60MOL   O11410852   2.546   2.266   0.978 -0.1686 -0.2388 -0.1177
   60MOL   H11510853   2.693   2.101   1.110  0.3250  0.0399  0.2655
   60MOL   H11610854   2.581   1.859   0.977 -0.3972 -2.4959  1.2355
   60MOL   H11710855   2.713   1.866   1.091 -0.3307  0.7688  0.5471
   60MOL   H11810856   2.539   1.914   1.144 -0.3436  0.6527 -0.2996
   60MOL   C11910857   2.440   2.358   0.955 -0.2584  0.4773 -0.1989
   60MOL   C12010858   2.421   2.400   0.810 -0.1811  0.4655 -0.3902
   60MOL   C12110859   2.440   2.478   1.048  0.2650 -0.3690  0.0098
   60MOL   O12210860   2.482   2.588   0.997  0.1740 -0.6600 -0.0513
   60MOL   O12310861   2.416   2.454   1.176  0.2461  0.2052 -0.0037
   60MOL   H12410862   2.347   2.311   0.988  0.4249 -1.4676 -0.9703
   60MOL   H12510863   2.510   2.445   0.767 -0.0264 -0.2263 -0.7919
   60MOL   H12610864   2.401   2.313   0.748 -0.3554 -0.0331  0.3587
   60MOL   H12710865   2.332   2.463   0.804 -1.0806 -0.8695 -1.1992
   60MOL   C12810866   2.438   2.552   1.272 -0.4352 -0.1968  0.6353
   60MOL   C12910867   2.575   2.543   1.332  0.2349 -0.7584 -0.3598
   60MOL   C13010868   2.337   2.546   1.387 -1.2089  0.4046  0.0325
   60MOL   O13110869   2.250   2.461   1.403 -0.1344  0.8966 -0.0243
   60MOL   O13210870   2.360   2.648   1.473  0.5777 -0.2504 -0.3117
   60MOL   H13310871   2.416   2.649   1.228  0.7449  0.1337  0.7598
   60MOL   H13410872   2.583   2.451   1.390 -0.3110  0.0317  0.9688
   60MOL   H13510873   2.656   2.533   1.259  2.1583  0.8380  1.5031
   60MOL   H13610874   2.594   2.627   1.398  0.9504 -1.7885  0.7705
   60MOL   C13710875   2.273   2.665   1.583 -0.5670 -0.1460 -0.0571
   60MOL   C13810876   2.297   2.810   1.621  0.3547 -0.7805  0.4127
   60MOL   C13910877   2.300   2.557   1.688  0.5178 -0.0288  0.3458
   60MOL   O14010878   2.410   2.497   1.684 -0.6234  0.1634 -0.3242
   60MOL   O14110879   2.210   2.552   1.794  0.2234 -0.1544 -0.3921
   60MOL   H14210880   2.168   2.651   1.555 -0.2421  1.8638 -2.4610
   60MOL   H14310881   2.392   2.826   1.672  0.7016 -1.7277  0.0758
   60MOL   H14410882   2.296   2.883   1.540  1.1133 -0.2687  0.8583
   60MOL   H14510883   2.214   2.848   1.680 -0.2795 -0.0483 -0.9277
   60MOL   C14610884   2.227   2.447   1.889  0.0073 -0.8868 -0.1064
   60MOL   C14710885   2.099   2.443   1.973  0.5400  0.1402  0.1172
   60MOL   C14810886   2.344   2.482   1.981 -0.7484 -0.0759  0.7987
   60MOL   O14910887   2.434   2.406   2.006 -0.2624  0.1789  0.0995
   60MOL   O15010888   2.339   2.607   2.030 -0.1596  0.3537  0.1012
   60MOL   H15110889   2.240   2.351   1.839 -0.1787 -0.6246 -0.6616
   60MOL   H15210890   2.016   2.439   1.902  1.7209 -0.6759 -1.2421
   60MOL   H15310891   2.094   2.353   2.035 -1.2264 -0.0505 -0.2558
   60MOL   H15410892   2.071   2.520   2.045  0.2735 -0.8106  1.0490
   60MOL   C15510893   2.450   2.658   2.095 -0.0274 -0.3048 -0.4991
   60MOL   C15610894   2.391   2.753   2.200 -0.3229  0.4873  1.0046
   60MOL   C15710895   2.552   2.723   2.001 -0.2516  0.3658  0.1163
   60MOL   O15810896   2.525   2.732   1.883  0.0944 -0.3683  0.4124
   60MOL   O15910897   2.659   2.767   2.065  0.1998  0.3848  0.3568
   60MOL   H16010898   2.508   2.591   2.160  2.5847  1.5282 -0.8507
   60MOL   H16110899   2.322   2.698   2.265 -1.0660  0.2269  0.0161
   60MOL   H16210900   2.467   2.795   2.265 -1.2321  1.3339  1.5391
   60MOL   H16310901   2.337   2.829   2.144  0.0559 -0.4880 -0.7241
   60MOL   C16410902   2.764   2.841   1.999 -0.4359 -0.1149 -0.4978
   60MOL   C16510903   2.884   2.881   2.099  0.1166 -0.1233  0.6983
   60MOL   C16610904   2.717   2.967   1.933  0.1502  0.1972 -0.4908
   60MOL   O16710905   2.645   3.049   1.991 -0.3980  0.5875 -0.1184
   60MOL   O16810906   2.750   2.976   1.807 -0.1805  0.5501 -0.3828
   60MOL   H16910907   2.812   2.776   1.926 -0.6501  0.0360 -0.7736
   60MOL   H17010908   2.976   2.915   2.051 -0.4142 -0.5377 -0.6486
   60MOL   H17110909   2.841   2.961   2.160 -0.1137  0.5042 -0.2739
   60MOL   H17210910   2.918   2.798   2.161 -0.6295 -0.1774  1.0318
   60MOL   C17310911   2.714   3.086   1.726  0.0751 -0.0083  0.5351
   60MOL   C17410912   2.663   3.053   1.580  0.6705  0.6828 -0.8031
   60MOL   C17510913   2.824   3.194   1.740  0.1372  0.0372  0.6237
   60MOL   O17610914   2.924   3.192   1.813  0.1773  0.4088 -0.0693
   60MOL   O17710915   2.807   3.293   1.654 -0.6631 -0.0342  0.0120
   60MOL   H17810916   2.621   3.124   1.767  0.1039  0.3940  0.2393
   60MOL   H17910917   2.631   3.144   1.529  0.0348  0.8405 -0.1332
   60MOL   H18010918   2.741   3.002   1.525  0.7135 -1.2290  0.9615
   60MOL   H18110919   2.571   2.994   1.576  1.5988 -1.0019  1.6325
   60MOL   H18210920   2.885   3.343   1.672 -0.4399  0.3511 -1.8830
   61MOL     C110921   2.804   1.229   2.611  0.4884  0.9388 -0.0957
   61MOL     C210922   2.786   1.348   2.520  0.5134 -0.0818 -0.0763
   61MOL     C310923   2.721   1.099   2.577  0.2846 -0.5792  0.1994
   61MOL     O410924   2.653   1.046   2.665  0.5544  0.1900  0.1622
   61MOL     O510925   2.741   1.058   2.445  0.2020  0.6231 -0.4581
   61MOL     H610926   2.910   1.211   2.627  0.1872 -0.8161 -0.0044
   61MOL     H710927   2.706   1.338   2.447 -0.1544  1.6225  0.3801
   61MOL     H810928   2.773   1.442   2.573 -1.6419 -0.0607 -0.5766
   61MOL     H910929   2.878   1.364   2.464 -0.3815  3.0469 -0.7524
   61MOL    H1010930   2.765   1.258   2.709  1.2605  0.5895  0.3134
   61MOL    C1110931   2.666   0.943   2.388 -0.0320 -0.2801 -0.6768
   61MOL    C1210932   2.707   0.908   2.246  0.2362  0.2277  0.4159
   61MOL    C1310933   2.514   0.970   2.395 -0.5261 -0.6860  0.5841
   61MOL    O1410934   2.428   0.908   2.459  0.7970 -0.0501 -0.1107
   61MOL    O1510935   2.485   1.073   2.324 -0.1591  0.3323  0.3230
   61MOL    H1610936   2.709   0.865   2.451  0.8250 -0.3487 -1.3304
   61MOL    H1710937   2.706   0.998   2.184 -0.8692 -0.2763 -0.3143
   61MOL    H1810938   2.808   0.868   2.242 -0.5068 -1.4857 -1.8818
   61MOL    H1910939   2.648   0.824   2.211 -0.1806  0.4579  0.5568
   61MOL    C2010940   2.353   1.117   2.282 -0.1149  0.3846 -0.6140
   61MOL    C2110941   2.290   1.025   2.171 -0.2182 -0.4087 -0.9012
   61MOL    C2210942   2.359   1.262   2.240  0.6199 -0.2135  0.0630
   61MOL    O2310943   2.464   1.328   2.242 -0.0332  0.0880 -0.2063
   61MOL    O2410944   2.235   1.313   2.209  0.2345 -0.8919 -0.2325
   61MOL    H2510945   2.288   1.107   2.370 -0.4102 -1.5965 -1.0395
   61MOL    H2610946   2.326   1.054   2.072 -0.7618 -1.0883 -1.3065
   61MOL    H2710947   2.305   0.917   2.173 -1.8297 -0.6530 -1.4053
   61MOL    H2810948   2.181   1.031   2.179 -0.2774 -0.6703 -1.4600
   61MOL    C2910949   2.224   1.445   2.162 -0.2623 -0.3166  0.2068
   61MOL    C3010950   2.106   1.520   2.223 -0.1245 -0.7544 -0.4865
   61MOL    C3110951   2.226   1.450   2.008  0.7241 -0.0466  0.5879
   61MOL    O3210952   2.252   1.554   1.948 -0.4355 -1.0921  0.0939
   61MOL    O3310953   2.183   1.332   1.955  0.6777 -0.1064 -0.5475
   61MOL    H3410954   2.313   1.497   2.196  1.2522 -0.6776 -3.0109
   61MOL    H3510955   2.105   1.505   2.331  0.6494  2.7951  0.0854
   61MOL    H3610956   2.104   1.627   2.200 -1.1931 -0.3532  1.3716
   61MOL    H3710957   2.017   1.484   2.172 -0.2366 -0.6123 -0.3919
   61MOL    C3810958   2.154   1.312   1.821  0.0509 -0.8776 -0.1632
   61MOL    C3910959   2.283   1.305   1.729 -0.5225  0.1422 -0.1465
   61MOL    C4010960   2.045   1.409   1.762 -0.2339  0.3061 -0.1643
   61MOL    O4110961   2.055   1.463   1.651 -0.2101 -0.4461  0.0038
   61MOL    O4210962   1.947   1.435   1.857  0.6362 -0.5577 -0.3811
   61MOL    H4310963   2.121   1.209   1.835 -0.7684 -0.2677  2.8175
   61MOL    H4410964   2.344   1.396   1.722 -2.2320  1.2803 -0.7063
   61MOL    H4510965   2.345   1.223   1.764 -0.3141  0.2796 -0.1907
   61MOL    H4610966   2.247   1.278   1.630 -1.1564  0.9656 -0.1493
   61MOL    C4710967   1.847   1.527   1.833 -0.0660  0.6951 -0.2576
   61MOL    C4810968   1.857   1.657   1.914 -0.4239  0.5685 -0.2376
   61MOL    C4910969   1.722   1.448   1.870 -0.3096 -0.2696 -0.6956
   61MOL    O5010970   1.651   1.483   1.967  0.5219  0.3269 -0.1187
   61MOL    O5110971   1.699   1.346   1.778  0.2100 -0.2228 -0.1526
   61MOL    H5210972   1.839   1.558   1.729 -0.0306  1.8231  0.0654
   61MOL    H5310973   1.779   1.727   1.884  0.6463  1.3668 -1.2223
   61MOL    H5410974   1.857   1.638   2.021  1.0287 -1.1768 -0.5289
   61MOL    H5510975   1.948   1.716   1.906 -1.1882  2.0194  1.3831
   61MOL    C5610976   1.575   1.282   1.785 -0.1339 -0.2134 -0.2088
   61MOL    C5710977   1.600   1.132   1.765 -0.8506  0.3818 -0.5448
   61MOL    C5810978   1.457   1.339   1.701 -0.2613  1.0715 -0.1489
   61MOL    O5910979   1.346   1.356   1.750 -0.1125 -0.5969 -0.3888
   61MOL    O6010980   1.496   1.367   1.573  0.3047 -0.1154  0.3681
   61MOL    H6110981   1.528   1.290   1.883  1.1214 -0.9252  0.4589
   61MOL    H6210982   1.702   1.103   1.788 -0.2156  2.7642 -0.1665
   61MOL    H6310983   1.525   1.074   1.817 -0.7491  2.0560  1.5510
   61MOL    H6410984   1.592   1.111   1.658 -1.6364  1.8698 -0.7942
   61MOL    C6510985   1.424   1.456   1.486  0.4002 -0.5926 -0.3353
   61MOL    C6610986   1.300   1.381   1.446 -0.9205 -0.1308 -0.9061
   61MOL    C6710987   1.507   1.497   1.359  0.1532 -0.4597  1.0254
   61MOL    O6810988   1.475   1.454   1.248 -0.3922 -0.0871 -0.0565
   61MOL    O6910989   1.622   1.557   1.397 -0.6486 -0.1973 -0.2090
   61MOL    H7010990   1.404   1.543   1.548  0.6820 -0.7539 -0.0155
   61MOL    H7110991   1.242   1.364   1.536  2.0717  0.3637  1.1830
   61MOL    H7210992   1.240   1.440   1.376  0.0205  2.0627  0.1271
   61MOL    H7310993   1.340   1.289   1.403  0.3795 -0.2164  0.4462
   61MOL    C7410994   1.724   1.590   1.304 -0.1986 -0.1506  0.1421
   61MOL    C7510995   1.854   1.628   1.371 -0.2361 -0.3804  0.0185
   61MOL    C7610996   1.689   1.717   1.220 -0.2484 -1.0029  0.2936
   61MOL    O7710997   1.689   1.718   1.099 -0.0879  0.0651  0.5950
   61MOL    O7810998   1.674   1.833   1.289  0.4106 -0.1211  0.3085
   61MOL    H7910999   1.744   1.506   1.238  1.1842  1.7026 -1.8873
   61MOL    H8011000   1.859   1.717   1.434  0.6855  0.8817 -1.7576
   61MOL    H8111001   1.884   1.547   1.437  0.3666 -1.1229 -1.1511
   61MOL    H8211002   1.937   1.630   1.300 -0.0042  0.5462  0.3078
   61MOL    C8311003   1.619   1.947   1.214  0.3014  0.3008  0.2429
   61MOL    C8411004   1.675   2.069   1.281 -0.7716 -0.6282 -0.1935
   61MOL    C8511005   1.460   1.954   1.219  0.9764  0.4166  0.3270
   61MOL    O8611006   1.389   1.995   1.123 -0.2212  0.4010 -0.0460
   61MOL    O8711007   1.407   1.908   1.333 -0.1358 -0.7259 -0.3618
   61MOL    H8811008   1.637   1.939   1.107 -0.2752  0.4791  0.1263
   61MOL    H8911009   1.704   2.050   1.384 -0.5599 -1.5278 -0.4163
   61MOL    H9011010   1.765   2.088   1.223 -0.7779  0.0318  0.0083
   61MOL    H9111011   1.617   2.162   1.284 -0.2720 -0.3333  0.3774
   61MOL    C9211012   1.266   1.910   1.352 -0.2521  0.3484  0.2955
   61MOL    C9311013   1.239   1.871   1.493 -0.8053 -0.5233 -0.8927
   61MOL    C9411014   1.188   1.829   1.250 -0.3718 -0.1078  0.3102
   61MOL    O9511015   1.091   1.884   1.187  0.1797  0.1274  0.1614
   61MOL    O9611016   1.240   1.700   1.234  0.6547  0.0199 -0.2679
   61MOL    H9711017   1.225   2.011   1.342  2.8605  1.3734 -3.2917
   61MOL    H9811018   1.295   1.782   1.522  1.6830  1.4463  0.5771
   61MOL    H9911019   1.249   1.950   1.567  0.4828  0.7686 -2.4067
   61MOL   H10011020   1.134   1.843   1.498 -0.0940 -3.4694 -1.2006
   61MOL   C10111021   1.177   1.608   1.141  0.0747 -0.0052 -1.2862
   61MOL   C10211022   1.212   1.639   0.993 -0.0100  0.1681 -0.5835
   61MOL   C10311023   1.033   1.580   1.184  0.6216  0.3348  0.3238
   61MOL   O10411024   0.985   1.616   1.289  0.1705  0.6719 -0.5100
   61MOL   O10511025   0.971   1.526   1.083 -0.0880 -0.6277 -0.7077
   61MOL   H10611026   1.226   1.512   1.159  1.2067  0.8089  0.1767
   61MOL   H10711027   1.316   1.672   0.988  0.2200 -0.4562  0.0049
   61MOL   H10811028   1.195   1.554   0.926 -1.4899  0.7017 -0.9169
   61MOL   H10911029   1.157   1.725   0.955 -0.3228 -0.4860 -1.6363
   61MOL   C11011030   0.833   1.477   1.096  0.2075 -0.1595  0.2330
   61MOL   C11111031   0.726   1.578   1.141  0.3585 -0.0935 -0.3183
   61MOL   C11211032   0.843   1.346   1.179 -0.6731  0.0255  0.4109
   61MOL   O11311033   0.947   1.309   1.228 -0.2532  0.2122  0.2617
   61MOL   O11411034   0.729   1.280   1.184  0.2134 -0.2994 -0.5646
   61MOL   H11511035   0.805   1.447   0.995  2.0885 -1.0068 -0.0618
   61MOL   H11611036   0.759   1.676   1.106  3.0153 -1.1120 -0.7468
   61MOL   H11711037   0.628   1.542   1.108  1.1885 -1.1338 -1.7063
   61MOL   H11811038   0.725   1.581   1.250 -0.8333  2.5031 -0.3494
   61MOL   C11911039   0.716   1.158   1.249  0.1532  0.2364 -0.0680
   61MOL   C12011040   0.630   1.065   1.155  0.4524  0.4370 -0.3818
   61MOL   C12111041   0.659   1.170   1.389  0.2915 -0.1114  0.7356
   61MOL   O12211042   0.562   1.103   1.423  0.0460 -0.5685  0.5498
   61MOL   O12311043   0.721   1.272   1.470 -0.0271  0.0016  0.0952
   61MOL   H12411044   0.812   1.111   1.273 -0.4697 -1.2398 -0.4325
   61MOL   H12511045   0.657   1.069   1.049  1.9007 -0.7727 -0.0832
   61MOL   H12611046   0.639   0.960   1.184  2.4118  0.0604 -2.2188
   61MOL   H12711047   0.525   1.089   1.169  0.2715 -0.2760 -0.4932
   61MOL   C12811048   0.647   1.318   1.588 -0.4232  0.1073 -0.6809
   61MOL   C12911049   0.646   1.472   1.606  0.0848  1.0721 -0.7124
   61MOL   C13011050   0.715   1.254   1.706 -0.1165 -0.4239 -0.6888
   61MOL   O13111051   0.830   1.210   1.698 -0.1046 -0.1344  0.4556
   61MOL   O13211052   0.634   1.247   1.805  0.0241 -0.4890  0.3792
   61MOL   H13311053   0.543   1.285   1.581 -0.4034 -0.1712  0.3705
   61MOL   H13411054   0.615   1.524   1.515 -0.4005  1.0844 -0.5418
   61MOL   H13511055   0.587   1.512   1.689 -1.3141  0.1375 -1.2289
   61MOL   H13611056   0.748   1.503   1.626  0.4863 -0.7971  0.2457
   61MOL   C13711057   0.662   1.169   1.921 -0.0447 -0.3104  0.0164
   61MOL   C13811058   0.533   1.132   1.981  0.5385 -0.2589  0.7658
   61MOL   C13911059   0.753   1.248   2.019  0.0920  0.1851  0.4348
   61MOL   O14011060   0.779   1.365   1.993 -0.1109  0.0447 -0.0327
   61MOL   O14111061   0.792   1.180   2.130  0.0947 -0.1109  0.1209
   61MOL   H14211062   0.695   1.068   1.896 -0.5806 -0.7641  1.1095
   61MOL   H14311063   0.460   1.092   1.910  0.3409 -3.5740  2.7117
   61MOL   H14411064   0.570   1.065   2.059  2.1370  1.1230  1.2038
   61MOL   H14511065   0.487   1.218   2.028 -0.6040 -0.5750  0.2552
   61MOL   C14611066   0.844   1.252   2.240 -0.4432  0.0484  0.2257
   61MOL   C14711067   0.932   1.156   2.313 -1.4191  0.2568 -0.2842
   61MOL   C14811068   0.736   1.311   2.331  0.1244 -0.0274  0.2354
   61MOL   O14911069   0.613   1.292   2.314 -0.7354 -0.2801  0.0105
   61MOL   O15011070   0.793   1.396   2.422 -0.3779 -0.0731  0.1916
   61MOL   H15111071   0.909   1.335   2.211  0.6673 -0.8192  0.2444
   61MOL   H15211072   1.014   1.110   2.257 -1.5103 -2.5070  1.7858
   61MOL   H15311073   0.971   1.220   2.393 -0.9646 -0.9764  0.4922
   61MOL   H15411074   0.868   1.081   2.359 -0.4019 -0.5107 -0.1089
   61MOL   C15511075   0.717   1.453   2.524 -0.1911 -0.4357 -0.4434
   61MOL   C15611076   0.793   1.565   2.590  0.1667 -0.0012 -0.0755
   61MOL   C15711077   0.677   1.347   2.621 -0.5478 -0.8110 -0.6608
   61MOL   O15811078   0.760   1.255   2.646  0.8582 -0.0904  0.0792
   61MOL   O15911079   0.555   1.363   2.673  0.4714  0.0318 -0.0218
   61MOL   H16011080   0.635   1.508   2.478 -0.3792 -2.3392 -2.4792
   61MOL   H16111081   0.813   1.644   2.518  0.3235 -0.0345 -0.0694
   61MOL   H16211082   0.748   1.607   2.680 -1.2011  1.3762 -1.3688
   61MOL   H16311083   0.891   1.524   2.615 -0.3050  0.3192  2.4985
   61MOL   C16411084   0.494   1.267   2.757  0.0154  0.1884 -0.0246
   61MOL   C16511085   0.419   1.153   2.679 -0.0727 -0.7210 -0.4240
   61MOL   C16611086   0.399   1.337   2.852 -0.1202 -0.4544 -0.5782
   61MOL   O16711087   0.275   1.303   2.862 -0.3190 -0.2689 -0.6067
   61MOL   O16811088   0.456   1.428   2.926 -0.3140 -0.0388 -0.0812
   61MOL   H16911089   0.573   1.218   2.814 -1.2863 -0.5175  1.1914
   61MOL   H17011090   0.355   1.094   2.745  0.4026 -1.9727 -1.0561
   61MOL   H17111091   0.361   1.178   2.591 -0.0917  1.6425  0.2405
   61MOL   H17211092   0.499   1.090   2.640  2.7248  1.9586  0.7305
   61MOL   C17311093   0.380   1.513   3.008  0.0457 -1.0265  0.1110
   61MOL   C17411094   0.376   1.663   2.974  0.2722 -0.1323 -1.0115
   61MOL   C17511095   0.440   1.495   3.150 -0.4574 -0.1150 -0.4233
   61MOL   O17611096   0.508   1.578   3.209  0.4989 -0.0755  0.4894
   61MOL   O17711097   0.418   1.369   3.193  0.8928  0.2160 -0.6957
   61MOL   H17811098   0.276   1.482   3.018 -1.2162  2.3412 -1.7490
   61MOL   H17911099   0.313   1.722   3.040  1.1619 -0.8272  0.5023
   61MOL   H18011100   0.471   1.716   2.980  0.4217 -0.6302  1.9495
   61MOL   H18111101   0.321   1.675   2.881 -2.1571 -0.9798  0.2507
   61MOL   H18211102   0.459   1.374   3.278 -1.3065  0.9914  0.3593
   62MOL     C111103   1.130   0.154   5.112 -0.0022  0.4933 -0.7786
   62MOL     C211104   1.212   0.035   5.073 -0.3654 -0.1525 -0.5448
   62MOL     C311105   0.990   0.151   5.052  0.3581 -0.2625  0.0036
   62MOL     O411106   0.950   0.049   4.985 -0.3795 -0.3745 -0.2121
   62MOL     O511107   0.912   0.259   5.083 -0.2897 -0.3880  0.3330
   62MOL     H611108   1.130   0.173   5.219  0.8878  3.4869 -1.2557
   62MOL     H711109   1.304   0.041   5.131 -2.0656  1.9215  2.0429
   62MOL     H811110   1.160   8.088   5.088 -0.7659  0.4552  2.1335
   62MOL     H911111   1.237   0.040   4.967  1.1132 -0.2794 -0.2126
   62MOL    H1011112   1.175   0.250   5.086  2.7470 -0.2294  1.0586
   62MOL    C1111113   0.779   0.268   5.021  0.1284 -1.1002  0.2855
   62MOL    C1211114   0.786   0.332   4.877  1.7042 -0.0604  0.2456
   62MOL    C1311115   0.706   0.359   5.122 -0.2922  0.2970 -0.1636
   62MOL    O1411116   0.606   0.320   5.184 -0.6024  0.1666 -0.1543
   62MOL    O1511117   0.753   0.492   5.136  0.5515  0.3302  0.1891
   62MOL    H1611118   0.729   0.172   5.004  1.1027 -1.6842  0.6326
   62MOL    H1711119   0.815   0.436   4.887 -1.3586  0.9661 -0.8568
   62MOL    H1811120   0.866   0.275   4.829  0.6719 -2.2691  1.0646
   62MOL    H1911121   0.697   0.330   4.814  1.8077 -0.0610  0.0972
   62MOL    C2011122   0.689   0.579   5.225  0.4877  0.2224 -0.2459
   62MOL    C2111123   0.738   0.717   5.187 -0.1328 -0.1633 -0.0576
   62MOL    C2211124   0.723   0.537   5.375  0.1950 -0.5882  0.6723
   62MOL    O2311125   0.638   0.528   5.465 -0.4709  0.0240  0.3367
   62MOL    O2411126   0.854   0.510   5.385  0.2159  0.3945 -0.1930
   62MOL    H2511127   0.580   0.573   5.226  0.4837  0.1259 -0.9585
   62MOL    H2611128   0.847   0.715   5.179 -0.0111  0.8499  1.1625
   62MOL    H2711129   0.699   0.740   5.088 -1.1802 -0.6884  0.2366
   62MOL    H2811130   0.698   0.798   5.248 -1.5952  0.0257 -1.2298
   62MOL    C2911131   0.914   0.454   5.496 -0.3220 -1.1831  0.3139
   62MOL    C3011132   1.061   0.492   5.482  0.1042 -0.1048 -0.1041
   62MOL    C3111133   0.897   0.298   5.499  0.0435 -0.4469 -0.2903
   62MOL    O3211134   0.791   0.248   5.454  0.0727 -0.4732 -0.0208
   62MOL    O3311135   0.977   0.236   5.572 -0.0335 -0.0151  0.0845
   62MOL    H3411136   0.867   0.490   5.587  0.9831 -1.5758  1.1585
   62MOL    H3511137   1.117   0.463   5.571  1.7542  1.3713 -0.6472
   62MOL    H3611138   1.106   0.443   5.396  0.7178  1.8754 -0.9438
   62MOL    H3711139   1.080   0.598   5.464 -0.8331  0.3587  1.5944
   62MOL    C3811140   0.950   0.105   5.612 -0.4145  0.1901 -0.3049
   62MOL    C3911141   1.034   0.078   5.736  0.3224  0.7639 -0.2613
   62MOL    C4011142   0.981   0.004   5.501 -0.1128  0.0529 -0.7244
   62MOL    O4111143   0.999   0.032   5.383 -0.2815 -0.8897  0.5831
   62MOL    O4211144   0.995   8.024   5.542  0.8673  0.6069  0.2254
   62MOL    H4311145   0.844   0.107   5.635 -0.0319  0.2653  1.5267
   62MOL    H4411146   0.996   8.136   5.785  1.9953  0.9279  1.4109
   62MOL    H4511147   1.137   0.052   5.711 -0.4927 -1.2529 -1.6845
   62MOL    H4611148   1.031   0.160   5.807  2.0682  0.4475  0.2023
   62MOL    C4711149   1.012   7.916   5.455  0.0808  0.4430  0.8894
   62MOL    C4811150   0.977   7.783   5.519  0.2611 -0.4263 -0.0571
   62MOL    C4911151   1.151   7.923   5.403  0.1133 -0.4455 -0.2542
   62MOL    O5011152   1.177   7.906   5.283 -0.2103  0.4036  0.0684
   62MOL    O5111153   1.241   7.946   5.511  0.2310  0.3265  0.0050
   62MOL    H5211154   0.947   7.932   5.369 -0.3386 -0.3931  1.0467
   62MOL    H5311155   0.979   7.708   5.440  0.8477  0.4706 -0.9161
   62MOL    H5411156   1.035   7.750   5.605 -1.3347 -0.2205  1.1277
   62MOL    H5511157   0.878   7.768   5.561 -0.0202  0.1812 -0.4920
   62MOL    C5611158   1.379   7.985   5.495  0.4558  0.1827 -0.2726
   62MOL    C5711159   1.460   7.929   5.610  0.4175  0.3198 -0.5275
   62MOL    C5811160   1.400   8.138   5.488  0.0691  0.5288 -0.3845
   62MOL    O5911161   1.311   0.073   5.511 -0.0027 -0.5086  0.4148
   62MOL    O6011162   1.527   0.014   5.450  0.1509  0.7924  0.3959
   62MOL    H6111163   1.434   7.936   5.415  2.7540  0.5652  1.0286
   62MOL    H6211164   1.555   7.981   5.624  1.2139 -1.2980  0.2283
   62MOL    H6311165   1.397   7.934   5.699 -0.1267  0.0505 -0.8922
   62MOL    H6411166   1.478   7.824   5.585 -0.7746  0.7600 -3.4957
   62MOL    C6511167   1.615   0.125   5.490  0.4228 -0.2978  0.0023
   62MOL    C6611168   1.756   0.065   5.479 -0.2363  0.0795  0.2414
   62MOL    C6711169   1.589   0.174   5.633 -0.5327 -0.0270 -0.1674
   62MOL    O6811170   1.629   0.104   5.731  0.6488 -0.0751 -0.2262
   62MOL    O6911171   1.514   0.290   5.641 -0.4884  0.1560  0.1598
   62MOL    H7011172   1.594   0.209   5.425 -0.2891 -1.0376 -0.7410
   62MOL    H7111173   1.781   0.042   5.376  0.4410  0.1528  0.3870
   62MOL    H7211174   1.832   0.134   5.517  0.0309  0.7512 -1.4458
   62MOL    H7311175   1.755   8.118   5.532  3.2077  0.9258  2.0080
   62MOL    C7411176   1.468   0.329   5.769  0.3229 -0.3727 -0.3023
   62MOL    C7511177   1.325   0.289   5.795 -0.2420  0.0080 -0.2919
   62MOL    C7611178   1.498   0.479   5.782  0.1289 -0.5541  0.0859
   62MOL    O7711179   1.526   0.554   5.690  0.0776  0.6746  0.4224
   62MOL    O7811180   1.485   0.528   5.907 -0.3183  1.1336  0.1746
   62MOL    H7911181   1.525   0.285   5.850 -0.4769  0.1211  0.5420
   62MOL    H8011182   1.296   0.321   5.895  0.2414 -1.7738  0.4360
   62MOL    H8111183   1.263   0.337   5.719  1.6849  2.1204 -0.5660
   62MOL    H8211184   1.304   0.182   5.786 -2.3770  0.2427  1.4942
   62MOL    C8311185   1.516   0.666   5.940 -0.2323 -0.2100  0.6160
   62MOL    C8411186   1.592   0.680   6.072 -0.7498 -0.4052 -0.2171
   62MOL    C8511187   1.377   0.739   5.941 -0.1009 -0.0862  0.0547
   62MOL    O8611188   1.304   0.742   6.037  0.4105  0.1381 -0.3586
   62MOL    O8711189   1.361   0.805   5.815  0.1403 -0.4096  0.3944
   62MOL    H8811190   1.581   0.703   5.861 -0.0522 -1.4745  0.1582
   62MOL    H8911191   1.687   0.627   6.084  0.2768  1.4957  0.2268
   62MOL    H9011192   1.622   0.783   6.089  0.8957 -0.9878  0.5249
   62MOL    H9111193   1.533   0.652   6.160 -0.8436  1.7410  0.4172
   62MOL    C9211194   1.244   0.869   5.793  0.0266 -1.1692  0.3140
   62MOL    C9311195   1.235   0.872   5.641  0.3472 -0.1269  0.3169
   62MOL    C9411196   1.244   1.008   5.858 -0.1942 -0.5731  0.2773
   62MOL    O9511197   1.326   1.038   5.942  0.5944  0.0298  0.5442
   62MOL    O9611198   1.157   1.087   5.808 -0.3331  0.5023 -0.6207
   62MOL    H9711199   1.150   0.829   5.831 -0.5168 -1.0672 -0.9176
   62MOL    H9811200   1.193   0.780   5.599 -1.3782 -0.1492  1.9915
   62MOL    H9911201   1.171   0.950   5.598 -1.4658 -1.3491  0.7465
   62MOL   H10011202   1.329   0.888   5.589  0.2051 -1.4869 -0.3800
   62MOL   C10111203   1.140   1.220   5.844 -0.1780  0.8875 -0.1560
   62MOL   C10211204   1.015   1.270   5.760 -0.8437 -0.0972 -0.3424
   62MOL   C10311205   1.259   1.312   5.810 -0.4924 -0.2383 -0.4621
   62MOL   O10411206   1.324   1.380   5.894  0.1777 -0.0651 -0.7485
   62MOL   O10511207   1.295   1.302   5.678 -0.4155  0.3419 -0.1922
   62MOL   H10611208   1.130   1.227   5.953 -1.1238  2.2628 -0.3345
   62MOL   H10711209   1.037   1.260   5.654  0.0098  0.4185 -0.2228
   62MOL   H10811210   0.937   1.196   5.774 -0.5564 -0.6032 -1.4064
   62MOL   H10911211   0.973   1.368   5.783 -1.9802 -0.7783  0.5056
   62MOL   C11011212   1.392   1.380   5.612 -0.2820 -1.0765  0.4163
   62MOL   C11111213   1.322   1.494   5.544  0.3063 -0.5914 -0.6128
   62MOL   C11211214   1.489   1.286   5.542 -1.1371  0.7828 -0.4445
   62MOL   O11311215   1.498   1.170   5.563  0.1597  0.0951  0.5121
   62MOL   O11411216   1.570   1.352   5.472  0.1935 -0.2649  0.2931
   62MOL   H11511217   1.451   1.425   5.691  1.4231 -0.5002 -1.1592
   62MOL   H11611218   1.262   1.454   5.462 -3.6606  1.6747  1.0361
   62MOL   H11711219   1.250   1.547   5.606  0.2684 -0.4921 -0.7414
   62MOL   H11811220   1.391   1.569   5.505  0.5308  0.4731  1.7671
   62MOL   C11911221   1.656   1.304   5.375 -0.5853 -0.6208 -0.4124
   62MOL   C12011222   1.768   1.404   5.353  0.5343 -0.7916 -0.2075
   62MOL   C12111223   1.572   1.290   5.248 -0.1160 -0.4082 -0.2928
   62MOL   O12211224   1.589   1.195   5.172  1.2542  0.2414  0.5100
   62MOL   O12311225   1.496   1.400   5.215 -0.0850 -0.3601  0.1642
   62MOL   H12411226   1.696   1.206   5.400 -0.9894 -0.3893  1.2120
   62MOL   H12511227   1.845   1.361   5.288  1.0085 -0.5006  0.1564
   62MOL   H12611228   1.731   1.498   5.312 -1.7008 -0.4669  2.4511
   62MOL   H12711229   1.810   1.435   5.448 -0.1382  2.1387 -0.8213
   62MOL   C12811230   1.410   1.412   5.096  0.1875 -0.2121 -0.0923
   62MOL   C12911231   1.343   1.545   5.115 -0.5214  0.1495  0.4614
   62MOL   C13011232   1.307   1.299   5.090  0.5239  0.1169  1.1631
   62MOL   O13111233   1.257   1.285   4.977 -0.2333 -0.0886 -0.2770
   62MOL   O13211234   1.271   1.238   5.199 -0.4681 -0.1354  0.1573
   62MOL   H13311235   1.469   1.418   5.004  0.3683 -0.5318  0.0028
   62MOL   H13411236   1.266   1.540   5.192 -0.1399 -0.3340  0.8146
   62MOL   H13511237   1.414   1.624   5.143  1.4893 -1.0502 -1.0927
   62MOL   H13611238   1.296   1.570   5.020 -0.1165 -1.2664 -0.1119
   62MOL   C13711239   1.178   1.134   5.203 -0.2698  0.2645  0.0680
   62MOL   C13811240   1.147   1.103   5.353  0.0535 -0.7005 -1.0098
   62MOL   C13911241   1.231   1.004   5.136  0.1264 -0.4561 -0.6982
   62MOL   O14011242   1.168   0.946   5.048 -0.0593 -0.3209 -0.2287
   62MOL   O14111243   1.350   0.971   5.184  0.3559 -0.1633 -0.6912
   62MOL   H14211244   1.087   1.160   5.149  0.0435 -0.2244 -0.7029
   62MOL   H14311245   1.230   1.135   5.416 -1.0436 -3.3035  1.9174
   62MOL   H14411246   1.059   1.162   5.378  0.6953 -0.3883  0.5582
   62MOL   H14511247   1.131   0.997   5.375 -0.3900  0.0523  2.6406
   62MOL   C14611248   1.410   0.842   5.148 -0.1844 -0.2874 -0.5042
   62MOL   C14711249   1.430   0.828   4.990 -0.4775  0.5482 -0.0363
   62MOL   C14811250   1.339   0.728   5.214 -0.2333  1.6243 -0.5160
   62MOL   O14911251   1.222   0.731   5.252  0.7631  0.0816 -0.5188
   62MOL   O15011252   1.429   0.628   5.223 -0.0670 -0.7009 -0.0758
   62MOL   H15111253   1.510   0.838   5.192 -0.7284 -3.0868  0.6316
   62MOL   H15211254   1.474   0.924   4.964  0.7265  0.0010 -0.0358
   62MOL   H15311255   1.489   0.740   4.965 -1.4124 -0.2785  0.6230
   62MOL   H15411256   1.329   0.810   4.953 -0.0452 -1.1262 -0.4404
   62MOL   C15511257   1.385   0.499   5.266 -0.2376 -0.9203  0.2836
   62MOL   C15611258   1.441   0.480   5.407 -0.6909  0.0014 -0.4853
   62MOL   C15711259   1.445   0.393   5.167  0.6001  0.2087 -0.1966
   62MOL   O15811260   1.447   0.272   5.191 -0.3934  0.1009  0.4392
   62MOL   O15911261   1.486   0.450   5.043  0.1844 -0.1999  0.0220
   62MOL   H16011262   1.278   0.481   5.260 -0.2269 -1.0024  0.3336
   62MOL   H16111263   1.373   0.410   5.455 -0.3740 -1.2470 -1.8119
   62MOL   H16211264   1.537   0.428   5.415 -0.2551  0.6937 -1.1192
   62MOL   H16311265   1.449   0.573   5.463 -0.5715  0.9893 -2.0839
   62MOL   C16411266   1.553   0.376   4.951  0.1081 -0.0435  0.2150
   62MOL   C16511267   1.639   0.478   4.866  0.1835  0.0682  0.2608
   62MOL   C16611268   1.460   0.291   4.862 -0.0528  0.4108 -0.1051
   62MOL   O16711269   1.343   0.263   4.884  0.1648 -0.4110 -0.3596
   62MOL   O16811270   1.531   0.231   4.760  0.2522  0.3697  0.0056
   62MOL   H16911271   1.612   0.298   5.000 -0.7278  0.8446  2.7423
   62MOL   H17011272   1.697   0.441   4.781 -0.0768 -4.4954  1.9322
   62MOL   H17111273   1.574   0.557   4.829  0.1957  0.0997  0.3065
   62MOL   H17211274   1.712   0.524   4.934  0.6140 -0.0973 -0.0882
   62MOL   C17311275   1.485   0.105   4.687  0.5048 -0.0764  0.3071
   62MOL   C17411276   1.536   8.146   4.780  1.1404 -0.1710 -0.0565
   62MOL   C17511277   1.542   0.106   4.548  0.0738 -0.6484  0.1015
   62MOL   O17611278   1.593   0.005   4.499 -0.2998  0.3950 -0.3891
   62MOL   O17711279   1.525   0.228   4.484 -0.0194  1.1365  0.2295
   62MOL   H17811280   1.377   0.106   4.679  0.6865 -3.1705 -3.4518
   62MOL   H17911281   1.511   0.021   4.883 -1.2692  0.9375 -0.8464
   62MOL   H18011282   1.492   8.056   4.738  0.1294 -0.5507  1.7916
   62MOL   H18111283   1.644   8.132   4.781  1.1207 -0.6156 -2.1827
   62MOL   H18211284   1.572   0.231   4.402  1.7783  0.7267  1.2258
   63MOL     C111285   6.243   7.320   3.763  0.4241 -0.2469 -0.1799
   63MOL     C211286   6.259   7.167   3.771  0.0993 -1.0263 -0.5525
   63MOL     C311287   6.106   7.380   3.774  0.2025 -1.0307  0.1968
   63MOL     O411288   6.013   7.327   3.713 -0.1018 -0.0011  0.3283
   63MOL     O511289   6.096   7.490   3.850  0.0826  0.2800  0.5093
   63MOL     H611290   6.313   7.364   3.835  1.6475 -2.3837 -0.0200
   63MOL     H711291   6.199   7.105   3.704 -1.0194  0.8071 -1.2857
   63MOL     H811292   6.364   7.152   3.743  0.6040  2.9633 -1.0681
   63MOL     H911293   6.238   7.135   3.873  1.0813  2.6645  0.8666
   63MOL    H1011294   6.285   7.348   3.667  0.5617 -1.3331 -0.4378
   63MOL    C1111295   5.985   7.578   3.849  0.1172  0.3987  0.1992
   63MOL    C1211296   5.868   7.506   3.918  0.0312 -0.9042 -0.6315
   63MOL    C1311297   5.955   7.636   3.710  0.1542  0.1666 -0.0754
   63MOL    O1411298   5.838   7.650   3.681  0.2010  0.5429  0.1934
   63MOL    O1511299   6.065   7.679   3.633  0.1014  0.5775  0.0157
   63MOL    H1611300   6.027   7.657   3.910  2.2346  0.5817 -1.4273
   63MOL    H1711301   5.906   7.440   3.996 -0.7873 -0.9267 -0.2443
   63MOL    H1811302   5.799   7.579   3.959  0.5292 -1.1128  0.5912
   63MOL    H1911303   5.813   7.437   3.853 -2.6052 -2.0951  2.7477
   63MOL    C2011304   6.051   7.716   3.499 -0.8877 -0.3782 -0.1084
   63MOL    C2111305   6.170   7.670   3.423  0.4791  0.1864  0.0459
   63MOL    C2211306   6.051   7.868   3.500 -0.7034 -0.3004  0.5918
   63MOL    O2311307   5.954   7.935   3.457 -0.7472  0.1526  0.6905
   63MOL    O2411308   6.158   7.918   3.568 -0.2616  0.1287 -0.3065
   63MOL    H2511309   5.957   7.683   3.455 -0.3504 -2.3412  0.1719
   63MOL    H2611310   6.167   7.711   3.322  1.3711 -1.9665 -0.8761
   63MOL    H2711311   6.259   7.694   3.481  1.1968  1.3240 -1.4863
   63MOL    H2811312   6.175   7.561   3.423  1.7502  0.2213 -1.1437
   63MOL    C2911313   6.180   8.056   3.583  0.0545  0.3730 -1.1217
   63MOL    C3011314   6.328   8.078   3.601  0.5913 -0.2068  0.0682
   63MOL    C3111315   6.097   8.124   3.692  0.1410 -0.3105  0.4048
   63MOL    O3211316   6.058   0.090   3.669  0.1538 -0.1447  0.4158
   63MOL    O3311317   6.067   8.044   3.802 -0.6586 -0.0771 -0.1015
   63MOL    H3411318   6.158   8.110   3.491  0.4120  1.6352 -0.4841
   63MOL    H3511319   6.340   0.035   3.572  2.1189 -0.8353 -1.6421
   63MOL    H3611320   6.375   8.074   3.700  1.3369 -1.7589 -0.3291
   63MOL    H3711321   6.383   8.008   3.539 -0.5925  0.8513 -2.2160
   63MOL    C3811322   5.974   8.092   3.898 -0.3319 -0.6635 -0.5543
   63MOL    C3911323   6.018   8.030   4.032 -0.1414 -0.8567 -0.3182
   63MOL    C4011324   5.828   8.054   3.861  0.2628  0.4622 -0.4100
   63MOL    O4111325   5.801   7.971   3.779 -0.9571  0.3739 -0.0599
   63MOL    O4211326   5.749   8.108   3.943  0.0305 -0.3919  0.0359
   63MOL    H4311327   5.976   0.051   3.920  0.5988 -0.6832 -0.4961
   63MOL    H4411328   5.960   8.063   4.118 -1.7872  2.6755 -2.6707
   63MOL    H4511329   6.000   7.922   4.027 -3.0699 -0.4461  0.9186
   63MOL    H4611330   6.125   8.041   4.054 -0.3695 -1.4645  1.1471
   63MOL    C4711331   5.623   8.045   3.985 -0.2092 -0.4310 -0.0414
   63MOL    C4811332   5.502   8.136   3.935 -0.2252  0.6361 -0.3502
   63MOL    C4911333   5.623   8.018   4.141 -0.7431 -0.1464  0.6753
   63MOL    O5011334   5.545   8.066   4.219  0.6399  0.1597 -0.7242
   63MOL    O5111335   5.717   7.925   4.163 -0.3781  0.5892  0.0035
   63MOL    H5211336   5.607   7.946   3.941 -1.5810 -1.3557  2.3929
   63MOL    H5311337   5.487   0.076   3.998  0.7280  0.7924 -0.3412
   63MOL    H5411338   5.527   0.019   3.833  2.0241 -0.8895 -0.2974
   63MOL    H5511339   5.409   8.080   3.922 -0.6122  1.0602  0.5803
   63MOL    C5611340   5.757   7.877   4.291 -0.6673 -0.2174 -1.4234
   63MOL    C5711341   5.667   7.755   4.326 -0.5845 -0.6848 -0.5427
   63MOL    C5811342   5.783   7.993   4.399  0.8730 -0.4899 -0.1558
   63MOL    O5911343   5.866   8.080   4.374  0.4865 -0.0554  0.2522
   63MOL    O6011344   5.713   7.989   4.505  0.1006 -0.7423  0.4445
   63MOL    H6111345   5.856   7.846   4.257 -0.9189  0.3821 -2.7158
   63MOL    H6211346   5.620   7.705   4.241 -2.8963 -0.3471  0.4963
   63MOL    H6311347   5.736   7.679   4.364  3.9539  2.2494 -2.5425
   63MOL    H6411348   5.585   7.781   4.392 -1.7005  0.0668 -2.1880
   63MOL    C6511349   5.712   8.100   4.596  0.0289 -0.8685  0.0447
   63MOL    C6611350   5.688   8.045   4.738  0.1774 -0.3700 -0.5534
   63MOL    C6711351   5.621   0.069   4.556  0.7882 -0.0119 -0.3216
   63MOL    O6811352   5.542   0.119   4.638  0.1377  0.2040 -0.4077
   63MOL    O6911353   5.614   0.103   4.426 -0.1148  0.3064 -0.4234
   63MOL    H7011354   5.809   0.001   4.605  0.4542 -1.8020  0.5389
   63MOL    H7111355   5.774   7.991   4.778  0.9687  0.9411 -0.4767
   63MOL    H7211356   5.688   8.132   4.803  3.3047 -0.3929 -0.4470
   63MOL    H7311357   5.600   7.980   4.747  0.2796 -0.3560  0.6690
   63MOL    C7411358   5.556   0.225   4.381 -0.7870 -0.4108  0.0769
   63MOL    C7511359   5.402   0.203   4.360  0.2675 -0.3388  0.1061
   63MOL    C7611360   5.617   0.254   4.244 -0.4635 -0.1536  0.5393
   63MOL    O7711361   5.550   0.279   4.145 -0.4356  0.3268  0.1419
   63MOL    O7811362   5.750   0.270   4.254 -0.0475  0.0760 -0.7759
   63MOL    H7911363   5.587   0.303   4.450 -0.4468 -1.2428  0.8709
   63MOL    H8011364   5.364   0.137   4.438  0.5841 -2.5794 -1.5969
   63MOL    H8111365   5.354   0.301   4.358  2.2887  0.6907  0.4353
   63MOL    H8211366   5.383   0.146   4.270  0.3725  0.6460 -0.5456
   63MOL    C8311367   5.830   0.321   4.144 -0.4871  0.4231  0.6075
   63MOL    C8411368   5.956   0.236   4.145 -0.6287  0.2587  0.6225
   63MOL    C8511369   5.865   0.463   4.177  0.3413  0.0023  0.4740
   63MOL    O8611370   5.826   0.518   4.283  0.1322 -0.1239  0.1987
   63MOL    O8711371   5.960   0.518   4.077  0.0462 -0.1814  0.2246
   63MOL    H8811372   5.774   0.315   4.051  2.1445  0.0027 -1.0058
   63MOL    H8911373   5.926   0.131   4.147  0.9209 -0.1783  1.0762
   63MOL    H9011374   6.008   0.259   4.052 -1.6327  1.3993  0.3254
   63MOL    H9111375   6.022   0.236   4.232  0.0814  0.0988  0.0874
   63MOL    C9211376   6.038   0.630   4.100  0.2836 -0.1482 -0.3079
   63MOL    C9311377   6.125   0.669   3.980 -0.1177 -0.2766  0.1158
   63MOL    C9411378   6.126   0.599   4.217 -0.8762  0.5212  0.4207
   63MOL    O9511379   6.222   0.521   4.212 -0.0035  0.3063  0.7486
   63MOL    O9611380   6.085   0.655   4.322 -0.1762  0.3444 -0.4111
   63MOL    H9711381   5.971   0.714   4.119 -0.7137 -0.7520 -1.0998
   63MOL    H9811382   6.062   0.680   3.892 -0.0360  0.6575  0.1665
   63MOL    H9911383   6.156   0.773   3.995  1.3287 -0.5825 -0.6706
   63MOL   H10011384   6.201   0.593   3.963  0.2263 -0.2061  1.2601
   63MOL   C10111385   6.153   0.631   4.450 -0.0829  0.9432 -0.6401
   63MOL   C10211386   6.075   0.506   4.508 -0.0753 -0.4597  0.8031
   63MOL   C10311387   6.128   0.754   4.531 -0.3893  0.4214 -0.4497
   63MOL   O10411388   6.218   0.829   4.566 -0.8320 -0.1802  0.2100
   63MOL   O10511389   6.002   0.770   4.578  1.0888  0.0696  0.1041
   63MOL   H10611390   6.261   0.625   4.436  0.0850  0.2426  0.8522
   63MOL   H10711391   6.050   0.431   4.433  0.8676 -1.2976  1.3178
   63MOL   H10811392   6.135   0.457   4.584  0.9975  1.3296  1.1311
   63MOL   H10911393   5.982   0.542   4.552 -0.6823  0.2298 -0.9986
   63MOL   C11011394   5.950   0.895   4.632 -0.1014  0.2760  0.0994
   63MOL   C11111395   5.810   0.878   4.699  0.1214 -0.1368  0.1592
   63MOL   C11211396   5.942   0.998   4.514 -0.1360  0.3086 -0.5178
   63MOL   O11311397   5.978   1.114   4.535 -0.0217 -0.6160  0.2037
   63MOL   O11411398   5.884   0.947   4.397 -0.0236 -0.1094  0.4419
   63MOL   H11511399   6.018   0.939   4.705 -0.3835 -1.6932  1.6000
   63MOL   H11611400   5.734   0.855   4.624  1.0743  0.4387 -1.0125
   63MOL   H11711401   5.804   0.798   4.772 -1.1064 -1.7103 -1.5950
   63MOL   H11811402   5.773   0.964   4.754 -3.4441 -1.5750  0.1354
   63MOL   C11911403   5.879   1.028   4.283  0.2205  0.2949  0.9990
   63MOL   C12011404   5.787   0.954   4.187  0.3735 -0.6986 -0.0136
   63MOL   C12111405   6.017   1.038   4.212  0.1844  0.6442 -0.0041
   63MOL   O12211406   6.098   0.938   4.214  0.1619 -0.9886  0.2678
   63MOL   O12311407   6.032   1.157   4.148  0.3459  0.5987 -0.6552
   63MOL   H12411408   5.836   1.127   4.295  0.7852  0.6921 -0.1690
   63MOL   H12511409   5.827   0.857   4.158  2.9040 -0.2382  1.7857
   63MOL   H12611410   5.690   0.934   4.234  0.8792 -1.5327  0.6950
   63MOL   H12711411   5.762   1.017   4.102  0.8786  0.5486  0.7572
   63MOL   C12811412   6.124   1.176   4.035  0.4068  1.0671  0.3966
   63MOL   C12911413   6.142   1.329   4.019  0.1309  0.2059 -0.2526
   63MOL   C13011414   6.067   1.110   3.910 -0.6203 -0.6133  0.1878
   63MOL   O13111415   5.956   1.051   3.921  0.6198 -0.4245 -0.2455
   63MOL   O13211416   6.144   1.115   3.803 -0.5782  0.4839 -0.2317
   63MOL   H13311417   6.212   1.125   4.073 -0.1063 -0.7791 -0.7961
   63MOL   H13411418   6.047   1.383   4.023 -0.8356 -1.5224  0.5712
   63MOL   H13511419   6.214   1.364   4.093  1.1525  0.6663 -1.4535
   63MOL   H13611420   6.201   1.352   3.931 -1.8491  1.9420 -1.1582
   63MOL   C13711421   6.091   1.066   3.678  0.5377  0.2727  0.0476
   63MOL   C13811422   6.214   1.004   3.599  0.3876  0.1154 -0.2275
   63MOL   C13911423   6.016   1.178   3.601  0.1181  0.1815  0.4979
   63MOL   O14011424   5.955   1.162   3.493  0.4329 -0.2314 -0.0939
   63MOL   O14111425   6.034   1.298   3.661  0.4020  0.5687  0.6546
   63MOL   H14211426   6.020   0.984   3.687  0.8096  0.0556  0.2224
   63MOL   H14311427   6.278   1.084   3.561 -0.5305  1.6349  1.3432
   63MOL   H14411428   6.275   0.949   3.670  1.1272  0.9108 -0.2275
   63MOL   H14511429   6.176   0.952   3.511  2.9858 -1.4298 -0.4695
   63MOL   C14611430   5.981   1.420   3.604 -0.6779  0.2244 -0.1285
   63MOL   C14711431   6.102   1.516   3.578 -0.3453  0.9539 -0.0390
   63MOL   C14811432   5.868   1.476   3.689 -0.3048 -0.2602 -0.8190
   63MOL   O14911433   5.805   1.401   3.758  0.6567 -0.0993 -0.0875
   63MOL   O15011434   5.840   1.606   3.665  0.3885 -0.2783  0.1947
   63MOL   H15111435   5.944   1.407   3.502  0.7687  1.0272 -0.7844
   63MOL   H15211436   6.142   1.560   3.670 -0.3646  0.6005  0.1419
   63MOL   H15311437   6.178   1.472   3.512 -0.2126  0.7422  0.2522
   63MOL   H15411438   6.060   1.609   3.541 -0.9088  1.0686  0.8683
   63MOL   C15511439   5.735   1.676   3.731  0.6211  0.2968 -0.0403
   63MOL   C15611440   5.664   1.775   3.635 -0.0414  0.3512 -0.1294
   63MOL   C15711441   5.795   1.742   3.858 -0.1585  0.1276  0.9646
   63MOL   O15811442   5.808   1.863   3.874 -0.2240  0.1748  0.5362
   63MOL   O15911443   5.846   1.654   3.935 -0.2432 -0.1823  0.0047
   63MOL   H16011444   5.654   1.611   3.762 -0.7611  2.0408  0.1167
   63MOL   H16111445   5.720   1.861   3.598  0.7271  0.4952  1.3423
   63MOL   H16211446   5.634   1.732   3.540  0.4227  1.5297 -0.8245
   63MOL   H16311447   5.572   1.820   3.674 -0.9356  0.8188 -2.6667
   63MOL   C16411448   5.922   1.673   4.054  0.7496 -0.0325  0.0838
   63MOL   C16511449   5.873   1.774   4.151  0.6661 -0.6889 -0.5803
   63MOL   C16611450   6.066   1.686   4.013  0.0712 -0.1744 -0.5330
   63MOL   O16711451   6.101   1.669   3.893 -0.4229 -0.2049  0.1996
   63MOL   O16811452   6.147   1.721   4.107 -0.0948 -0.1240 -0.1727
   63MOL   H16911453   5.901   1.577   4.102 -0.6086 -0.0714 -0.5715
   63MOL   H17011454   5.766   1.764   4.167  0.4799  0.2129 -1.2576
   63MOL   H17111455   5.912   1.738   4.247  0.6022 -0.0214 -0.3033
   63MOL   H17211456   5.897   1.878   4.128 -3.1862  0.0656 -1.4319
   63MOL   C17311457   6.283   1.746   4.091 -0.3457  0.7905  0.4621
   63MOL   C17411458   6.353   1.610   4.107  0.1857  0.7103 -0.1403
   63MOL   C17511459   6.317   1.839   4.209  0.2122  0.2373  0.0566
   63MOL   O17611460   6.363   1.801   4.319 -0.1413 -0.0816  0.2237
   63MOL   O17711461   6.270   1.965   4.199  0.2809 -1.0333  0.1463
   63MOL   H17811462   6.306   1.783   3.991 -1.0247 -0.1321 -0.0564
   63MOL   H17911463   6.293   1.553   4.178  1.0489 -0.3804 -0.2541
   63MOL   H18011464   6.350   1.558   4.011 -0.6593 -0.4403  0.4968
   63MOL   H18111465   6.461   1.612   4.124  0.4857 -0.9115 -1.7352
   63MOL   H18211466   6.221   1.990   4.122  0.1898 -0.9576  0.2297
   64MOL     C111467   1.902   4.660   5.902 -0.0523  0.1281 -0.4889
   64MOL     C211468   1.930   4.603   5.760 -0.3452 -0.0192  0.6006
   64MOL     C311469   1.760   4.627   5.953  0.3409  0.2011 -0.5707
   64MOL     O411470   1.736   4.584   6.066  0.2136 -0.0175  0.3552
   64MOL     O511471   1.667   4.633   5.854  0.2348  0.4561  0.3119
   64MOL     H611472   1.965   4.601   5.968 -1.6699 -1.5224 -0.3581
   64MOL     H711473   1.856   4.644   5.692  1.1503  0.6448 -0.6588
   64MOL     H811474   2.032   4.629   5.731 -0.5484 -1.9385 -2.0017
   64MOL     H911475   1.924   4.494   5.758  0.0331 -0.0196 -0.9192
   64MOL    H1011476   1.925   4.765   5.916 -0.8259  0.5756 -2.4564
   64MOL    C1111477   1.538   4.579   5.857 -1.2808  0.4781  0.5512
   64MOL    C1211478   1.439   4.677   5.925  0.0936  0.1633  0.1095
   64MOL    C1311479   1.535   4.428   5.911 -0.1091  0.1951  0.2593
   64MOL    O1411480   1.459   4.391   5.995 -0.1139  0.2390 -0.1520
   64MOL    O1511481   1.617   4.344   5.838  0.0110  0.5115  0.6371
   64MOL    H1611482   1.506   4.573   5.753  2.3809  1.0205 -0.6838
   64MOL    H1711483   1.471   4.728   6.016  0.7926  0.8222 -0.4993
   64MOL    H1811484   1.424   4.756   5.851  0.7166  0.1973  0.0245
   64MOL    H1911485   1.346   4.624   5.948 -0.1972  0.0451 -1.3047
   64MOL    C2011486   1.622   4.200   5.864  0.5203  0.0627  0.0574
   64MOL    C2111487   1.756   4.155   5.800 -0.5342 -0.0954 -0.6778
   64MOL    C2211488   1.504   4.129   5.798 -0.1504  0.2476 -0.1618
   64MOL    O2311489   1.412   4.187   5.737 -1.0069  0.3663 -0.2862
   64MOL    O2411490   1.508   3.999   5.806  0.2317  0.0058 -0.1138
   64MOL    H2511491   1.610   4.177   5.970 -0.2854 -2.7467 -0.5838
   64MOL    H2611492   1.837   4.208   5.851  2.0873 -3.4095 -1.1624
   64MOL    H2711493   1.770   4.047   5.798  0.2429 -0.0506  0.9657
   64MOL    H2811494   1.769   4.182   5.695  1.5690 -0.6412 -0.5962
   64MOL    C2911495   1.423   3.922   5.725  0.3215 -0.3009  0.4545
   64MOL    C3011496   1.425   3.769   5.776 -0.7028  0.6359 -0.2087
   64MOL    C3111497   1.460   3.933   5.576  0.0452  0.1069 -0.8950
   64MOL    O3211498   1.367   3.925   5.503 -0.8539  0.0268  0.4894
   64MOL    O3311499   1.592   3.934   5.546 -0.2250  0.0782 -0.0951
   64MOL    H3411500   1.319   3.954   5.724 -0.0747 -1.5244 -2.5611
   64MOL    H3511501   1.395   3.695   5.702  0.2136  2.2798 -2.2655
   64MOL    H3611502   1.521   3.740   5.819 -1.4886 -1.3446  0.2519
   64MOL    H3711503   1.361   3.759   5.864  0.7077 -0.8893  0.6735
   64MOL    C3811504   1.632   3.951   5.413 -0.0287  0.1515 -0.5945
   64MOL    C3911505   1.777   3.900   5.408  0.1579 -0.4865 -0.6887
   64MOL    C4011506   1.626   4.100   5.374  0.0564  0.4284 -0.5190
   64MOL    O4111507   1.624   4.190   5.456  0.2702  0.0104 -0.5041
   64MOL    O4211508   1.645   4.118   5.252 -0.5782  0.0573 -0.2264
   64MOL    H4311509   1.581   3.887   5.340 -0.2012 -1.6890  1.1051
   64MOL    H4411510   1.855   3.953   5.462 -0.4863 -1.0208  0.7935
   64MOL    H4511511   1.781   3.796   5.442 -0.1736  0.2846  1.7327
   64MOL    H4611512   1.819   3.885   5.308  0.9091 -0.1854 -0.4147
   64MOL    C4711513   1.674   4.246   5.195  0.1693 -0.5031 -0.4214
   64MOL    C4811514   1.555   4.279   5.096  0.5908  0.0041  0.3704
   64MOL    C4911515   1.808   4.252   5.128 -0.5815 -0.1636  0.3168
   64MOL    O5011516   1.851   4.351   5.070 -0.0544  0.3582  0.6539
   64MOL    O5111517   1.882   4.136   5.148 -0.3411  0.5630  0.3366
   64MOL    H5211518   1.691   4.330   5.263 -0.2398  0.7463 -1.8532
   64MOL    H5311519   1.564   4.378   5.051  0.4146  0.0585  0.4551
   64MOL    H5411520   1.535   4.203   5.021 -0.1448 -0.1379  0.7034
   64MOL    H5511521   1.468   4.286   5.162  2.0650  0.8340  2.2729
   64MOL    C5611522   2.023   4.120   5.112 -0.3998  0.0774  1.0738
   64MOL    C5711523   2.044   3.972   5.097 -0.1312 -0.6032  0.3535
   64MOL    C5811524   2.116   4.171   5.224 -0.3748  0.5288 -0.0255
   64MOL    O5911525   2.240   4.187   5.208  0.1893  0.3886 -0.5016
   64MOL    O6011526   2.059   4.183   5.348 -0.3285 -0.4423  0.5890
   64MOL    H6111527   2.052   4.172   5.021 -0.0891  0.6956  1.5216
   64MOL    H6211528   1.990   3.938   5.008 -0.4644  1.7072 -0.3676
   64MOL    H6311529   2.151   3.955   5.088 -0.0821 -0.8431  1.3241
   64MOL    H6411530   2.009   3.919   5.186  1.3424 -1.3150  0.5244
   64MOL    C6511531   2.125   4.227   5.467  0.3001  0.1579 -0.3996
   64MOL    C6611532   2.025   4.200   5.586  0.3549 -0.6444  0.8517
   64MOL    C6711533   2.176   4.368   5.454  0.6319 -0.3905 -0.1783
   64MOL    O6811534   2.293   4.403   5.475  0.7312 -0.2669 -0.4624
   64MOL    O6911535   2.082   4.451   5.402 -0.2810 -0.1114  0.0840
   64MOL    H7011536   2.203   4.152   5.477 -2.0168 -2.4097 -0.8221
   64MOL    H7111537   1.931   4.247   5.558  1.0521  1.1927  1.5404
   64MOL    H7211538   1.994   4.100   5.616 -0.8396 -1.0005 -1.4547
   64MOL    H7311539   2.062   4.259   5.670  2.4415  0.8498 -1.0524
   64MOL    C7411540   2.112   4.581   5.366 -0.6015  0.2568  0.0984
   64MOL    C7511541   1.984   4.654   5.336  0.0987  0.4133  0.2169
   64MOL    C7611542   2.208   4.586   5.244 -0.5294  0.5482  0.1916
   64MOL    O7711543   2.177   4.544   5.134 -0.2273 -0.4331 -0.9026
   64MOL    O7811544   2.322   4.651   5.274 -0.1765 -0.1502 -0.5516
   64MOL    H7911545   2.162   4.627   5.452  0.2171  0.1469 -0.3164
   64MOL    H8011546   1.905   4.633   5.408  2.1510  0.0379  2.4063
   64MOL    H8111547   1.995   4.763   5.333  0.2945  0.4670  2.0434
   64MOL    H8211548   1.951   4.639   5.233 -3.1372  2.4305  0.8579
   64MOL    C8311549   2.431   4.637   5.186  0.4784 -0.6336  0.2413
   64MOL    C8411550   2.499   4.500   5.207 -0.3981  0.5917 -0.6812
   64MOL    C8511551   2.536   4.748   5.216 -0.7114  0.4085 -0.5079
   64MOL    O8611552   2.559   4.793   5.332 -0.0237  0.3501  0.3737
   64MOL    O8711553   2.605   4.771   5.107  0.5728 -0.1039  0.2803
   64MOL    H8811554   2.400   4.653   5.082  1.1283 -0.2144  0.1042
   64MOL    H8911555   2.574   4.481   5.130  0.1975 -0.7379  0.2005
   64MOL    H9011556   2.542   4.493   5.307  0.7567 -1.3310 -1.2871
   64MOL    H9111557   2.424   4.422   5.189 -0.2615  0.5249 -0.9631
   64MOL    C9211558   2.737   4.830   5.114 -0.9570  0.1063  0.0946
   64MOL    C9311559   2.751   4.985   5.152 -0.3175 -0.6420  0.6924
   64MOL    C9411560   2.808   4.802   4.977  0.4300 -0.7205 -0.1093
   64MOL    O9511561   2.839   4.893   4.902  0.2010 -0.2948  0.2554
   64MOL    O9611562   2.807   4.668   4.947 -0.0407  0.1192  0.0696
   64MOL    H9711563   2.791   4.767   5.185 -1.3019 -0.3379 -0.0336
   64MOL    H9811564   2.716   5.005   5.253 -0.5067 -0.1955  0.5420
   64MOL    H9911565   2.854   5.020   5.155 -1.2132  2.1780  0.0753
   64MOL   H10011566   2.706   5.037   5.067  3.2130  1.2800 -0.0974
   64MOL   C10111567   2.858   4.623   4.823  0.0467  0.4304 -0.1580
   64MOL   C10211568   3.003   4.650   4.779  0.6708 -0.3518  0.0931
   64MOL   C10311569   2.769   4.680   4.708  0.6401  0.2699  0.0610
   64MOL   O10411570   2.810   4.758   4.624 -0.3339 -0.4360 -0.2746
   64MOL   O10511571   2.638   4.640   4.719  0.3330 -0.9630  0.0686
   64MOL   H10611572   2.840   4.516   4.830 -1.1263  0.7258  1.6471
   64MOL   H10711573   3.031   4.634   4.675 -0.4975  1.4085 -0.5224
   64MOL   H10811574   3.044   4.747   4.805  1.1951 -0.1841 -1.3206
   64MOL   H10911575   3.072   4.591   4.840 -0.0237 -0.8438  0.4204
   64MOL   C11011576   2.544   4.692   4.619  0.5086 -0.2748 -0.7525
   64MOL   C11111577   2.421   4.764   4.688 -0.8982  0.1753  0.6633
   64MOL   C11211578   2.504   4.582   4.517  0.3042  0.3553  0.7236
   64MOL   O11311579   2.390   4.583   4.470 -0.4297 -0.1165 -0.2645
   64MOL   O11411580   2.606   4.495   4.487 -0.5294  0.0623  0.2426
   64MOL   H11511581   2.583   4.762   4.545 -0.0849 -1.4081 -2.1605
   64MOL   H11611582   2.384   4.838   4.616  0.6615 -0.1441 -0.4948
   64MOL   H11711583   2.341   4.694   4.713  0.1893 -1.5188 -0.5108
   64MOL   H11811584   2.460   4.832   4.763  0.2962 -1.1697  1.2822
   64MOL   C11911585   2.596   4.408   4.378 -0.9269 -0.7945 -0.1216
   64MOL   C12011586   2.669   4.272   4.407  0.4518  1.3367  0.1897
   64MOL   C12111587   2.658   4.466   4.249  0.3963  0.6750  0.3601
   64MOL   O12211588   2.619   4.439   4.136  0.0481 -0.0470 -0.2714
   64MOL   O12311589   2.764   4.542   4.281  0.4932  0.1169 -0.2426
   64MOL   H12411590   2.494   4.389   4.343 -0.6626 -2.8146  0.1234
   64MOL   H12511591   2.631   4.221   4.496  3.7680 -1.3002  0.1966
   64MOL   H12611592   2.649   4.198   4.330 -1.2117  2.3215 -0.3394
   64MOL   H12711593   2.778   4.268   4.415  0.3806  1.3739  1.3001
   64MOL   C12811594   2.829   4.622   4.180 -0.1553 -0.5079 -0.0165
   64MOL   C12911595   2.967   4.654   4.231  0.1817 -0.3110 -0.1038
   64MOL   C13011596   2.757   4.756   4.163  0.1171  0.7397  0.4276
   64MOL   O13111597   2.669   4.797   4.238 -0.4642 -0.3830 -0.2447
   64MOL   O13211598   2.800   4.825   4.055  0.1505  0.1130  0.5658
   64MOL   H13311599   2.838   4.577   4.082  1.1252 -0.7442  0.2060
   64MOL   H13411600   3.020   4.721   4.163 -0.7780 -0.0144 -0.5687
   64MOL   H13511601   2.961   4.697   4.332 -1.0476  3.0734 -1.5305
   64MOL   H13611602   3.020   4.560   4.242  0.8992 -0.3047 -3.2111
   64MOL   C13711603   2.754   4.963   4.043  0.0256 -0.3574  0.0455
   64MOL   C13811604   2.776   5.024   3.901 -1.3011  0.0779  1.1070
   64MOL   C13911605   2.798   5.063   4.148  0.3279 -0.2324 -0.3580
   64MOL   O14011606   2.737   5.173   4.149 -0.1151  0.4401  0.4760
   64MOL   O14111607   2.906   5.038   4.220  0.0644 -0.0266 -0.1861
   64MOL   H14211608   2.646   4.966   4.059  0.3594  1.2800  2.2368
   64MOL   H14311609   2.688   4.999   3.842 -1.0357  0.4165  0.5664
   64MOL   H14411610   2.798   5.130   3.896 -0.6216 -0.0798  0.7477
   64MOL   H14511611   2.854   4.965   3.853 -0.7350  1.8425 -0.1629
   64MOL   C14611612   2.949   5.136   4.319 -0.6530 -0.4642 -0.2963
   64MOL   C14711613   3.056   5.232   4.268 -0.5057 -0.2030 -0.3197
   64MOL   C14811614   2.993   5.062   4.443  0.0804 -0.5303  0.0767
   64MOL   O14911615   3.040   4.948   4.441 -0.1636  0.3561 -0.0710
   64MOL   O15011616   2.968   5.133   4.551  0.3162  0.3289  0.0435
   64MOL   H15111617   2.866   5.200   4.352  0.1783 -0.1144  1.1639
   64MOL   H15211618   3.153   5.183   4.253 -0.0606  0.2419  1.0173
   64MOL   H15311619   3.034   5.269   4.168  1.2121  1.1391 -0.2273
   64MOL   H15411620   3.069   5.316   4.335 -2.6286  0.1936 -0.3804
   64MOL   C15511621   2.992   5.082   4.681 -0.3846  0.4132  0.1312
   64MOL   C15611622   2.910   5.168   4.786 -0.6729  0.1391 -0.3731
   64MOL   C15711623   3.141   5.075   4.708  0.2276 -0.0896 -0.5573
   64MOL   O15811624   3.206   5.174   4.738  0.0423  0.0625  0.7083
   64MOL   O15911625   3.189   4.946   4.685 -0.2011  0.1841 -0.6392
   64MOL   H16011626   2.954   4.980   4.694  0.2898  0.2476  0.8329
   64MOL   H16111627   2.924   5.276   4.771 -1.4227  0.1683 -0.9087
   64MOL   H16211628   2.805   5.139   4.790 -0.4236 -0.9518 -1.3829
   64MOL   H16311629   2.957   5.148   4.882 -2.3637 -0.2254  0.3878
   64MOL   C16411630   3.322   4.910   4.700 -1.0293 -0.1377  0.4540
   64MOL   C16511631   3.339   4.766   4.653  0.4712  0.0365 -0.0996
   64MOL   C16611632   3.366   4.915   4.856  0.4134  0.3946  0.2105
   64MOL   O16711633   3.480   4.950   4.880  0.2232  0.2116  0.3205
   64MOL   O16811634   3.269   4.863   4.940 -0.2480 -0.3800  0.3724
   64MOL   H16911635   3.390   4.968   4.638  0.9855 -1.0747  1.7261
   64MOL   H17011636   3.300   4.690   4.720  1.5982 -1.9960 -1.6943
   64MOL   H17111637   3.312   4.771   4.547  2.3655  1.7326 -0.5345
   64MOL   H17211638   3.446   4.745   4.658  0.2921 -1.0016 -0.4040
   64MOL   C17311639   3.271   4.881   5.085 -0.1401  0.2403 -0.4742
   64MOL   C17411640   3.157   4.786   5.143  0.3492  0.2121 -0.2879
   64MOL   C17511641   3.243   5.025   5.120  0.0426  0.4371  0.4787
   64MOL   O17611642   3.320   5.101   5.176  0.2066 -0.7906 -0.2381
   64MOL   O17711643   3.117   5.059   5.087 -0.2501  0.4563 -0.1246
   64MOL   H17811644   3.368   4.852   5.126 -0.6885 -0.3011  0.4656
   64MOL   H17911645   3.185   4.683   5.121  1.7190  0.6008 -0.4530
   64MOL   H18011646   3.154   4.798   5.251  2.1235  1.2609 -0.3379
   64MOL   H18111647   3.061   4.814   5.101 -0.5958 -0.8261  1.1194
   64MOL   H18211648   3.122   5.151   5.108 -2.7108  0.5001  0.4109
   65MOL     C111649   3.310   2.891   3.036 -0.3083  0.1889 -0.5804
   65MOL     C211650   3.268   2.748   3.064 -0.0391 -0.1089 -0.6283
   65MOL     C311651   3.408   2.909   2.925 -0.1544  0.9134  0.5433
   65MOL     O411652   3.372   2.959   2.819  0.3948 -0.0787 -0.0769
   65MOL     O511653   3.532   2.861   2.952 -0.0006 -0.2758  0.2921
   65MOL     H611654   3.221   2.948   3.007  1.7425  3.5743 -0.5352
   65MOL     H711655   3.215   2.703   2.980  0.4645 -0.3445 -0.8197
   65MOL     H811656   3.351   2.681   3.087  0.1394  0.8502  1.6168
   65MOL     H911657   3.200   2.747   3.149 -1.2034 -0.6645 -1.5525
   65MOL    H1011658   3.361   2.937   3.120 -0.6490  0.4556 -0.5170
   65MOL    C1111659   3.625   2.863   2.845 -0.4171  0.6524  0.5993
   65MOL    C1211660   3.618   2.732   2.774  0.5054  0.0176  0.0743
   65MOL    C1311661   3.763   2.885   2.905 -0.1778 -0.1699  0.0757
   65MOL    O1411662   3.863   2.815   2.886 -0.2059 -0.2469 -0.0416
   65MOL    O1511663   3.763   2.997   2.979  0.4497 -0.4334  0.3105
   65MOL    H1611664   3.623   2.945   2.774 -1.1394 -0.8370 -1.1506
   65MOL    H1711665   3.672   2.736   2.680  2.6631 -1.1493  1.2377
   65MOL    H1811666   3.644   2.641   2.829 -1.1439 -1.0829 -0.8895
   65MOL    H1911667   3.516   2.719   2.737  0.0965  0.3123  1.0548
   65MOL    C2011668   3.886   3.049   3.023 -0.2309 -0.2411 -0.4174
   65MOL    C2111669   3.857   3.147   3.140  0.0697 -0.4549 -0.0052
   65MOL    C2211670   3.966   3.115   2.909 -0.0342 -0.5539  0.2947
   65MOL    O2311671   4.078   3.077   2.884  0.7619 -0.0120  0.5306
   65MOL    O2411672   3.893   3.209   2.846 -0.1087 -0.3449  0.0280
   65MOL    H2511673   3.944   2.979   3.082 -0.7022 -0.5581 -0.3246
   65MOL    H2611674   3.951   3.200   3.159  0.4761 -0.4331 -2.0462
   65MOL    H2711675   3.770   3.208   3.115  0.3805  0.8232  1.8375
   65MOL    H2811676   3.838   3.092   3.232 -0.4445 -0.8293 -0.3351
   65MOL    C2911677   3.941   3.280   2.728 -0.2183 -0.3027  0.0654
   65MOL    C3011678   3.850   3.403   2.691 -0.1789  0.4463  0.4333
   65MOL    C3111679   3.955   3.186   2.609  0.0515  0.1309 -0.9432
   65MOL    O3211680   4.056   3.177   2.538  0.2018  0.0295  0.1104
   65MOL    O3311681   3.852   3.090   2.602 -0.7066  0.2244 -0.1137
   65MOL    H3411682   4.044   3.311   2.744 -0.0486 -0.6356 -0.3630
   65MOL    H3511683   3.746   3.385   2.717 -0.0276  0.5110  1.1027
   65MOL    H3611684   3.868   3.490   2.754 -1.9835  2.4178 -1.6780
   65MOL    H3711685   3.855   3.428   2.585  2.5126  0.6889  0.5651
   65MOL    C3811686   3.857   2.970   2.522 -0.2792  0.2834  0.7237
   65MOL    C3911687   3.962   2.865   2.560  0.3115 -0.7210  0.2173
   65MOL    C4011688   3.849   2.998   2.378 -0.2406  1.0584  0.5253
   65MOL    O4111689   3.736   2.985   2.321  0.6007  0.6048 -0.4010
   65MOL    O4211690   3.965   3.028   2.316  0.4085  0.3556 -0.1430
   65MOL    H4311691   3.761   2.920   2.536  0.2290 -0.5493  1.2848
   65MOL    H4411692   3.921   2.771   2.525  0.8783 -0.9538  0.1784
   65MOL    H4511693   4.060   2.861   2.514 -0.8960 -0.5786 -2.4428
   65MOL    H4611694   3.972   2.846   2.667 -0.9177  1.8229  0.8166
   65MOL    C4711695   3.968   3.049   2.176  0.7408 -0.0409 -0.8602
   65MOL    C4811696   4.112   3.048   2.126 -0.0701  0.6005 -0.1698
   65MOL    C4911697   3.899   3.178   2.132  0.1674 -0.0438 -0.1516
   65MOL    O5011698   3.872   3.271   2.212 -0.3750  0.0712 -0.0313
   65MOL    O5111699   3.869   3.182   2.000 -0.7115  0.3767  0.2134
   65MOL    H5211700   3.933   2.956   2.130  0.0261 -0.0081 -0.3961
   65MOL    H5311701   4.173   3.135   2.150  0.1319 -0.0880  1.8949
   65MOL    H5411702   4.161   2.958   2.164  0.1624  0.3763 -0.9920
   65MOL    H5511703   4.109   3.040   2.017 -1.2570  1.4663 -0.2041
   65MOL    C5611704   3.819   3.302   1.930  0.5879 -0.5105  0.0980
   65MOL    C5711705   3.781   3.268   1.789 -0.2203  0.7681  0.2288
   65MOL    C5811706   3.920   3.416   1.935  0.6800  0.3549  0.0518
   65MOL    O5911707   3.882   3.530   1.950 -0.6707 -0.6680 -0.9578
   65MOL    O6011708   4.047   3.383   1.912 -0.3626 -0.1529  0.3017
   65MOL    H6111709   3.729   3.326   1.987  1.2211  1.1533  0.4015
   65MOL    H6211710   3.777   3.359   1.728 -3.4939 -0.7247 -1.9164
   65MOL    H6311711   3.865   3.207   1.755 -1.4472 -0.8670  0.0819
   65MOL    H6411712   3.685   3.219   1.778  0.0929  0.3504 -0.7204
   65MOL    C6511713   4.144   3.492   1.894 -0.1410 -0.5131 -0.1165
   65MOL    C6611714   4.244   3.419   1.802  0.0329 -0.0462  0.2659
   65MOL    C6711715   4.210   3.522   2.034 -0.0847 -0.0879  0.5133
   65MOL    O6811716   4.332   3.526   2.047 -0.3605 -0.2227  0.7244
   65MOL    O6911717   4.136   3.509   2.148  1.0060  0.5749 -0.4051
   65MOL    H7011718   4.104   3.587   1.857  2.1658  0.1304 -1.0595
   65MOL    H7111719   4.288   3.483   1.725  0.7911  0.2121  0.9022
   65MOL    H7211720   4.318   3.366   1.862 -0.8935  1.0444  2.4135
   65MOL    H7311721   4.187   3.338   1.758  0.4889 -0.6507  0.7707
   65MOL    C7411722   4.200   3.524   2.272  0.2939  0.4307 -1.0190
   65MOL    C7511723   4.128   3.430   2.367  0.3413 -0.0829 -0.0467
   65MOL    C7611724   4.194   3.673   2.309 -0.3537  0.2211 -0.5561
   65MOL    O7711725   4.151   3.714   2.417 -0.9887  0.3806 -0.6197
   65MOL    O7811726   4.258   3.752   2.223  0.3468 -0.0730 -0.0375
   65MOL    H7911727   4.306   3.500   2.281 -0.2608 -1.9614 -0.6551
   65MOL    H8011728   4.173   3.433   2.466 -0.3685 -1.3822  0.3285
   65MOL    H8111729   4.021   3.451   2.365 -0.0598 -1.9701  1.1157
   65MOL    H8211730   4.146   3.330   2.328 -0.4986  0.4325 -1.8171
   65MOL    C8311731   4.271   3.896   2.243  0.0768 -0.6241  0.3421
   65MOL    C8411732   4.213   3.958   2.109 -0.4279  0.4428  0.2121
   65MOL    C8511733   4.422   3.934   2.261  0.2445 -0.0645  0.1177
   65MOL    O8611734   4.512   3.859   2.212  0.1523  0.1564  0.1149
   65MOL    O8711735   4.430   4.052   2.345  0.3688  0.0094 -0.0437
   65MOL    H8811736   4.210   3.935   2.324  1.4228  1.4394  0.4000
   65MOL    H8911737   4.232   4.066   2.111 -0.2701  0.4423 -0.8507
   65MOL    H9011738   4.260   3.911   2.022 -0.1779 -0.6478  0.9217
   65MOL    H9111739   4.108   3.944   2.086 -0.9388  2.0904  1.4396
   65MOL    C9211740   4.551   4.126   2.340 -0.0272  1.0298 -0.1882
   65MOL    C9311741   4.573   4.185   2.479 -0.2034  0.0367 -0.0455
   65MOL    C9411742   4.552   4.227   2.221  0.1936 -0.2052  0.8370
   65MOL    O9511743   4.623   4.330   2.228 -0.4585  0.3407 -0.2968
   65MOL    O9611744   4.476   4.188   2.113 -0.2674 -0.0036  0.1592
   65MOL    H9711745   4.638   4.063   2.322 -0.6554 -0.3271  1.3354
   65MOL    H9811746   4.633   4.276   2.474 -0.3952  0.0996 -1.6644
   65MOL    H9911747   4.477   4.215   2.521 -0.1033 -0.9398  0.8754
   65MOL   H10011748   4.616   4.109   2.543 -3.0851 -1.9752 -0.3792
   65MOL   C10111749   4.481   4.263   1.992  0.0606 -0.7798 -0.6460
   65MOL   C10211750   4.359   4.359   2.002 -0.1793 -0.3387  0.0270
   65MOL   C10311751   4.471   4.178   1.871  0.8491 -0.2020 -0.0993
   65MOL   O10411752   4.581   4.149   1.814 -0.0073 -0.2585  0.0585
   65MOL   O10511753   4.353   4.120   1.848 -0.1334  0.6058 -0.2465
   65MOL   H10611754   4.570   4.324   1.981  0.2697 -0.6447  1.5880
   65MOL   H10711755   4.264   4.324   2.043  0.2210 -1.0761  0.3315
   65MOL   H10811756   4.388   4.434   2.075  0.2619 -1.3261  0.8637
   65MOL   H10911757   4.344   4.409   1.906  0.9799  0.3217  0.1881
   65MOL   C11011758   4.349   4.029   1.733  0.6553  0.3241  0.6785
   65MOL   C11111759   4.214   4.043   1.669 -0.0887 -0.3071  0.3122
   65MOL   C11211760   4.379   3.887   1.785  0.4784 -0.2940 -0.3459
   65MOL   O11311761   4.297   3.800   1.811 -0.0065  0.1225 -0.5123
   65MOL   O11411762   4.510   3.870   1.795 -0.1770 -0.0758 -0.1094
   65MOL   H11511763   4.412   4.056   1.649  0.5795 -0.6223  0.3087
   65MOL   H11611764   4.185   4.145   1.642 -1.4242 -0.8173 -0.2272
   65MOL   H11711765   4.206   3.979   1.581 -0.6238  0.9905 -0.6047
   65MOL   H11811766   4.148   4.007   1.748  0.1954  0.8331  1.0889
   65MOL   C11911767   4.564   3.752   1.857 -0.5744 -0.2332  0.6973
   65MOL   C12011768   4.703   3.782   1.905 -0.2361  0.5964 -0.3134
   65MOL   C12111769   4.559   3.631   1.771  0.4614 -0.6267  0.4209
   65MOL   O12211770   4.507   3.622   1.652  0.3137 -0.4046  0.6390
   65MOL   O12311771   4.627   3.526   1.834 -0.1316  0.2700  0.4866
   65MOL   H12411772   4.512   3.730   1.950 -0.8241  1.6386  1.0381
   65MOL   H12511773   4.710   3.874   1.962 -0.2317 -0.4983  1.4995
   65MOL   H12611774   4.744   3.702   1.967  3.0224  3.1538  0.9981
   65MOL   H12711775   4.775   3.801   1.825  2.0776  0.4197  1.6507
   65MOL   C12811776   4.640   3.395   1.771  0.0093  0.2673 -0.3281
   65MOL   C12911777   4.725   3.298   1.863  0.4388 -0.0763 -0.1543
   65MOL   C13011778   4.708   3.399   1.630  0.3827 -0.0747 -0.0187
   65MOL   O13111779   4.790   3.486   1.600  0.1321 -1.2497  0.0310
   65MOL   O13211780   4.683   3.292   1.557  0.4264  0.2124  0.2865
   65MOL   H13311781   4.538   3.361   1.759 -0.4883  1.5153  0.2780
   65MOL   H13411782   4.687   3.296   1.965  0.7378 -0.5385 -0.0537
   65MOL   H13511783   4.737   3.202   1.814  1.1125  0.7796 -1.7192
   65MOL   H13611784   4.826   3.332   1.883  0.0528  0.8501  0.2756
   65MOL   C13711785   4.735   3.286   1.431  0.2038 -0.6655  0.8365
   65MOL   C13811786   4.634   3.363   1.334  0.1021  0.5132  0.5058
   65MOL   C13911787   4.748   3.130   1.394  0.2739 -0.7979  0.4023
   65MOL   O14011788   4.704   3.082   1.287  0.3869 -0.5104 -0.4059
   65MOL   O14111789   4.823   3.059   1.483  0.0397 -0.4805  0.3324
   65MOL   H14211790   4.831   3.331   1.404 -0.4028 -0.9113 -1.8892
   65MOL   H14311791   4.654   3.470   1.341  0.6475  0.4494 -0.0588
   65MOL   H14411792   4.656   3.346   1.229 -0.6636  0.4806  0.3498
   65MOL   H14511793   4.527   3.353   1.353  0.4251 -1.5861  1.3796
   65MOL   C14611794   4.848   2.920   1.483 -0.2855 -0.6207  0.2195
   65MOL   C14711795   4.839   2.881   1.633 -0.1733  0.1774 -0.6119
   65MOL   C14811796   4.984   2.890   1.419  0.5516  0.0194 -0.6503
   65MOL   O14911797   5.054   2.981   1.376 -0.2687 -0.4193 -0.3449
   65MOL   O15011798   5.023   2.759   1.433  0.3418 -0.2413  0.1439
   65MOL   H15111799   4.772   2.873   1.420 -1.1525 -1.0841  1.5783
   65MOL   H15211800   4.918   2.923   1.694  1.3148 -1.1063 -1.6143
   65MOL   H15311801   4.742   2.906   1.676 -0.2197 -1.5987  0.3581
   65MOL   H15411802   4.862   2.776   1.649 -1.0176 -0.2862 -2.2836
   65MOL   C15511803   5.159   2.723   1.405  0.3691 -0.0406 -0.4484
   65MOL   C15611804   5.182   2.593   1.329 -0.2145  0.5441 -0.4085
   65MOL   C15711805   5.236   2.721   1.537 -0.5860 -0.1314 -0.4393
   65MOL   O15811806   5.361   2.728   1.541 -0.3567 -0.3004  0.3419
   65MOL   O15911807   5.156   2.715   1.643 -0.3612 -0.0977 -0.1696
   65MOL   H16011808   5.211   2.794   1.340  3.0758 -1.7465 -0.1983
   65MOL   H16111809   5.287   2.566   1.323 -0.3823 -0.0492 -0.7811
   65MOL   H16211810   5.129   2.514   1.383 -0.7543  0.5854 -0.8631
   65MOL   H16311811   5.140   2.590   1.228  1.7645 -0.9358 -1.2213
   65MOL   C16411812   5.205   2.718   1.782  0.3200  0.2386  0.0352
   65MOL   C16511813   5.094   2.674   1.879  0.0572  0.0690 -0.3806
   65MOL   C16611814   5.269   2.859   1.821 -0.0002 -0.5212  0.5459
   65MOL   O16711815   5.377   2.868   1.875 -0.3898 -0.6595 -1.0260
   65MOL   O16811816   5.180   2.955   1.795 -0.0466 -0.1719  0.1386
   65MOL   H16911817   5.289   2.651   1.802  0.9795  0.9371 -0.3457
   65MOL   H17011818   5.042   2.583   1.849  0.2481 -0.5084  1.0041
   65MOL   H17111819   5.128   2.641   1.977 -1.6011  0.1656  0.2306
   65MOL   H17211820   5.017   2.750   1.889  0.0007 -0.1077  0.5888
   65MOL   C17311821   5.196   3.091   1.825 -0.2610 -0.5967 -0.1817
   65MOL   C17411822   5.058   3.161   1.824 -0.3316  0.9894 -0.9939
   65MOL   C17511823   5.300   3.158   1.731 -0.9965  0.7668 -0.6223
   65MOL   O17611824   5.406   3.214   1.771  0.0063 -0.1089 -0.7175
   65MOL   O17711825   5.264   3.144   1.600  0.2591 -0.7158 -0.6722
   65MOL   H17811826   5.241   3.100   1.924 -0.6942 -3.1962  0.2693
   65MOL   H17911827   5.005   3.138   1.732 -0.7021 -1.0117 -0.3022
   65MOL   H18011828   4.996   3.126   1.906  1.1254 -0.7291 -0.5903
   65MOL   H18111829   5.077   3.266   1.843 -2.9187  1.2738  0.2239
   65MOL   H18211830   5.322   3.182   1.535  0.8611 -1.2106 -0.4283
   66MOL     C111831   8.128   2.074   7.423  0.3276 -0.0512 -0.6801
   66MOL     C211832   0.013   2.184   7.523  0.4057  0.0661 -0.1335
   66MOL     C311833   8.060   2.127   7.297 -0.0559  0.3230 -0.2156
   66MOL     O411834   8.096   2.083   7.187 -0.3478  0.0900  0.3367
   66MOL     O511835   7.973   2.227   7.322  0.1940 -0.1337  0.5527
   66MOL     H611836   0.066   2.011   7.398  1.4391  0.9467  0.5080
   66MOL     H711837   0.083   2.256   7.482 -0.3041  0.5676 -0.4718
   66MOL     H811838   8.069   2.241   7.539 -0.4017 -0.4515 -2.7375
   66MOL     H911839   0.041   2.148   7.622 -1.3230 -0.4484  0.1775
   66MOL    H1011840   8.056   2.011   7.475  0.6843  0.8895  0.9781
   66MOL    C1111841   7.926   2.311   7.216  0.2318  0.0361  0.3831
   66MOL    C1211842   7.867   2.433   7.290  0.5047  0.5598 -0.1992
   66MOL    C1311843   7.818   2.247   7.133 -0.2554 -0.5764  0.3126
   66MOL    O1411844   7.738   2.319   7.077  0.0230 -0.1170  0.0098
   66MOL    O1511845   7.819   2.110   7.124  0.1866  0.0411 -0.3589
   66MOL    H1611846   8.011   2.331   7.151 -1.0257  1.1701 -0.9270
   66MOL    H1711847   7.773   2.408   7.340 -1.2297  4.0669 -1.4532
   66MOL    H1811848   7.927   2.476   7.370 -0.4239  0.7435  0.4112
   66MOL    H1911849   7.840   2.514   7.222 -1.7715 -1.9853 -2.4335
   66MOL    C2011850   7.750   2.045   7.015 -0.0145 -0.0110 -0.3263
   66MOL    C2111851   7.738   1.892   7.045  0.7481 -0.5522  0.1578
   66MOL    C2211852   7.819   2.076   6.884 -0.1903 -0.2811  0.0745
   66MOL    O2311853   7.772   2.140   6.789  0.6732 -0.1662 -0.3432
   66MOL    O2411854   7.948   2.021   6.884 -0.2514 -0.1433 -0.3402
   66MOL    H2511855   7.648   2.075   6.993 -1.0732 -2.5292  0.9364
   66MOL    H2611856   7.664   1.848   6.978 -2.4006  1.1819  2.3669
   66MOL    H2711857   7.828   1.832   7.028  0.6392 -0.5391 -0.4497
   66MOL    H2811858   7.710   1.881   7.150 -2.1148  0.5495 -0.4690
   66MOL    C2911859   8.038   2.034   6.777  0.6106  0.1417 -0.8829
   66MOL    C3011860   0.004   1.935   6.802  0.0374 -0.7684  0.1396
   66MOL    C3111861   8.098   2.173   6.776 -0.0179 -1.0439 -0.2661
   66MOL    O3211862   8.072   2.264   6.859  0.4891  0.4799  0.4497
   66MOL    O3311863   0.036   2.190   6.681  0.5181 -0.0092 -0.1654
   66MOL    H3411864   7.991   2.014   6.680 -0.2436 -2.8092  0.0748
   66MOL    H3511865   0.052   1.956   6.898  0.8408 -1.4610 -0.1062
   66MOL    H3611866   8.120   1.831   6.805 -2.2392 -0.0781  0.5160
   66MOL    H3711867   0.081   1.932   6.725  0.7210  3.0242  0.5886
   66MOL    C3811868   0.134   2.299   6.679  0.7026  0.1319 -0.2207
   66MOL    C3911869   0.190   2.290   6.537  0.1499 -0.0368  0.4615
   66MOL    C4011870   0.246   2.282   6.780  0.3576 -0.0715  1.1135
   66MOL    O4111871   0.264   2.181   6.848 -1.1635 -0.0368 -0.2867
   66MOL    O4211872   0.318   2.400   6.782  0.3363 -0.3833 -0.4426
   66MOL    H4311873   0.089   2.397   6.692  0.0955 -0.3986  1.7439
   66MOL    H4411874   0.255   2.377   6.526 -1.3425  0.9677 -0.7038
   66MOL    H4511875   0.244   2.196   6.524 -0.0712 -0.2031  0.7513
   66MOL    H4611876   0.114   2.287   6.458 -0.6930 -0.0119  1.2663
   66MOL    C4711877   0.429   2.416   6.880  0.4775  0.5176  0.3900
   66MOL    C4811878   0.478   2.552   6.922  0.0364  0.2750 -0.9537
   66MOL    C4911879   0.541   2.311   6.842 -0.4357 -0.3014 -0.1579
   66MOL    O5011880   0.563   2.276   6.729 -0.1922 -0.2275  0.3434
   66MOL    O5111881   0.597   2.256   6.952 -0.1764 -0.3958 -0.3928
   66MOL    H5211882   0.392   2.376   6.974 -0.1614  1.0456  0.3726
   66MOL    H5311883   0.527   2.601   6.837  3.1032  0.8375  1.0554
   66MOL    H5411884   0.394   2.615   6.952 -0.6159 -1.8603  1.8562
   66MOL    H5511885   0.546   2.545   7.006  0.0572  1.1955 -0.8927
   66MOL    C5611886   0.696   2.151   6.925 -0.1274  0.2640  0.6273
   66MOL    C5711887   0.737   2.112   7.064  0.7001  0.5105 -0.1988
   66MOL    C5811888   0.821   2.208   6.852 -0.1511  0.1385 -0.0825
   66MOL    O5911889   0.831   2.328   6.822 -0.8141  0.4278 -0.0239
   66MOL    O6011890   0.914   2.116   6.830 -0.8880 -0.0327 -0.5619
   66MOL    H6111891   0.656   2.073   6.861 -0.5274  0.4614  0.6354
   66MOL    H6211892   0.666   2.040   7.105  1.2812 -0.7845 -1.4147
   66MOL    H6311893   0.838   2.069   7.071  1.2926  1.7362 -1.0798
   66MOL    H6411894   0.747   2.200   7.127 -0.1575  1.9400 -2.0315
   66MOL    C6511895   1.050   2.152   6.786  0.8073 -0.2345  0.0889
   66MOL    C6611896   1.076   2.117   6.646 -0.0408  0.0242  0.0183
   66MOL    C6711897   1.155   2.089   6.877 -0.0229 -0.7745  0.2203
   66MOL    O6811898   1.138   1.973   6.908 -0.0036  0.0285  0.1779
   66MOL    O6911899   1.265   2.169   6.908 -0.1423  0.2847 -0.6580
   66MOL    H7011900   1.055   2.260   6.799  1.0398 -0.2723  0.3267
   66MOL    H7111901   0.990   2.143   6.584  0.4841 -0.7913 -1.0571
   66MOL    H7211902   1.164   2.166   6.606  0.1761 -0.4268 -0.0548
   66MOL    H7311903   1.096   2.012   6.627  1.4585  0.2690  0.1714
   66MOL    C7411904   1.385   2.118   6.964  0.4450  0.2448  0.9977
   66MOL    C7511905   1.452   2.212   7.069  0.4712  0.0449  0.6587
   66MOL    C7611906   1.474   2.063   6.859 -0.5524 -0.0406  0.0562
   66MOL    O7711907   1.468   2.097   6.746 -0.4811  0.6609  0.0304
   66MOL    O7811908   1.572   1.981   6.910 -0.4006  0.0994 -0.1201
   66MOL    H7911909   1.357   2.041   7.036  0.2124 -2.0414 -1.5004
   66MOL    H8011910   1.507   2.151   7.141  0.8533  0.0576  0.3802
   66MOL    H8111911   1.521   2.279   7.018  1.7420 -0.8389  1.2022
   66MOL    H8211912   1.379   2.274   7.121  0.2312 -1.4847  2.1950
   66MOL    C8311913   1.689   1.969   6.837 -0.8579 -0.3486  0.1096
   66MOL    C8411914   1.784   1.867   6.899  0.2499  0.3868 -0.5280
   66MOL    C8511915   1.764   2.100   6.816 -0.0835  0.1535 -0.1057
   66MOL    O8611916   1.765   2.197   6.899  0.3713 -0.2320  0.0661
   66MOL    O8711917   1.828   2.095   6.694 -0.2520 -0.1757  0.2746
   66MOL    H8811918   1.665   1.934   6.736  0.4246  5.2837 -2.3690
   66MOL    H8911919   1.735   1.771   6.919  0.3082  0.7243  1.3256
   66MOL    H9011920   1.872   1.843   6.840  0.0430 -0.6268 -0.4312
   66MOL    H9111921   1.802   1.909   6.998 -2.4199  2.2009 -0.7638
   66MOL    C9211922   1.914   2.198   6.647  0.6041  0.3477 -0.2102
   66MOL    C9311923   1.967   2.153   6.504  0.2081 -0.6011 -0.2021
   66MOL    C9411924   2.032   2.233   6.745  0.2071  0.8271  0.3059
   66MOL    O9511925   2.025   2.340   6.808 -0.6923  0.0749  0.4063
   66MOL    O9611926   2.123   2.130   6.763  0.1535  0.2838  0.3001
   66MOL    H9711927   1.865   2.294   6.625  1.2979  1.8775  4.4286
   66MOL    H9811928   2.016   2.235   6.452 -0.8880  0.2421  0.0734
   66MOL    H9911929   2.040   2.074   6.520 -0.3921 -0.8815  1.1780
   66MOL   H10011930   1.880   2.110   6.454 -0.1184 -0.8759  0.5993
   66MOL   C10111931   2.227   2.138   6.862  0.4884  0.2000  0.2671
   66MOL   C10211932   2.335   2.029   6.839  0.4912  0.5068  0.3235
   66MOL   C10311933   2.171   2.115   7.005  0.9743 -0.5065  0.0480
   66MOL   O10411934   2.055   2.082   7.030 -0.0959 -0.1627  0.3217
   66MOL   O10511935   2.268   2.144   7.100  0.1482 -0.3131  0.2990
   66MOL   H10611936   2.274   2.235   6.848  1.6328 -0.5931 -1.5847
   66MOL   H10711937   2.404   2.036   6.755 -0.3691  0.2972 -0.4162
   66MOL   H10811938   2.394   2.017   6.929 -0.2450  2.0828  1.0362
   66MOL   H10911939   2.287   1.932   6.823  0.4223  0.5209  0.4425
   66MOL   C11011940   2.253   2.093   7.236 -0.7270  0.7328  0.4593
   66MOL   C11111941   2.360   2.156   7.321 -0.5631 -0.8232  0.9666
   66MOL   C11211942   2.275   1.939   7.231  0.1064  0.4255 -0.3469
   66MOL   O11311943   2.386   1.890   7.217  0.4969  0.0129 -0.1350
   66MOL   O11411944   2.152   1.879   7.207 -0.6929  0.0465  0.3915
   66MOL   H11511945   2.156   2.121   7.278 -1.2882 -2.0644  1.0805
   66MOL   H11611946   2.456   2.109   7.298 -0.8550 -1.0443  0.1683
   66MOL   H11711947   2.370   2.264   7.328 -0.6306 -0.7385 -0.1264
   66MOL   H11811948   2.340   2.123   7.423 -0.8980 -2.5505  0.3498
   66MOL   C11911949   2.154   1.736   7.200  1.8359  0.4309  0.2488
   66MOL   C12011950   2.101   1.704   7.064 -0.2415 -0.2645 -0.5113
   66MOL   C12111951   2.049   1.698   7.305  0.1005 -0.0538  0.1014
   66MOL   O12211952   1.989   1.776   7.377 -0.6855 -0.4714  0.1267
   66MOL   O12311953   2.034   1.565   7.322 -0.0321  0.4106  0.6241
   66MOL   H12411954   2.251   1.692   7.223  2.2986  1.5933  0.5729
   66MOL   H12511955   2.119   1.597   7.054  0.9729 -0.5532  3.7408
   66MOL   H12611956   1.994   1.722   7.065 -0.5056 -1.7692 -0.5387
   66MOL   H12711957   2.145   1.763   6.984  1.8133 -0.6071  0.3201
   66MOL   C12811958   1.943   1.508   7.422 -0.1247 -0.3265  0.5168
   66MOL   C12911959   1.790   1.552   7.411 -0.4504  0.4716 -0.2833
   66MOL   C13011960   2.005   1.526   7.560 -0.1314  0.0577  0.7931
   66MOL   O13111961   1.949   1.577   7.661  0.3519  0.7234 -0.4935
   66MOL   O13211962   2.129   1.471   7.562  0.6109 -0.3644 -0.0416
   66MOL   H13311963   1.944   1.402   7.398 -0.5460 -0.1935 -0.1246
   66MOL   H13411964   1.771   1.640   7.349 -1.1327 -0.0430 -0.8146
   66MOL   H13511965   1.738   1.482   7.346  0.4096 -0.1112 -0.3562
   66MOL   H13611966   1.742   1.561   7.509  0.1652 -1.2933  0.1887
   66MOL   C13711967   2.208   1.467   7.679 -0.0292  0.1762 -0.9346
   66MOL   C13811968   2.351   1.514   7.641  0.1919 -0.1632  0.0662
   66MOL   C13911969   2.206   1.319   7.724 -0.2320  0.5672  0.1985
   66MOL   O14011970   2.198   1.285   7.843 -0.3254 -0.5579 -0.0160
   66MOL   O14111971   2.221   1.233   7.630 -0.1311 -0.1275 -0.0658
   66MOL   H14211972   2.165   1.534   7.753 -1.3634 -1.6945  0.0184
   66MOL   H14311973   2.424   1.514   7.721  0.4507  0.9423 -0.1658
   66MOL   H14411974   2.387   1.436   7.573 -0.0932 -1.1422  1.0292
   66MOL   H14511975   2.349   1.616   7.603 -1.7374 -0.5984 -1.0760
   66MOL   C14611976   2.163   1.099   7.646 -0.1284 -0.0576  0.4580
   66MOL   C14711977   2.236   1.009   7.549  0.2714  0.5408  0.1172
   66MOL   C14811978   2.012   1.099   7.623  1.0458  0.8006 -0.3015
   66MOL   O14911979   1.945   1.201   7.632  0.5958  0.0927 -0.3759
   66MOL   O15011980   1.960   0.970   7.610 -0.2783 -0.0435  0.8232
   66MOL   H15111981   2.191   1.058   7.743 -3.1457 -0.3757  1.2393
   66MOL   H15211982   2.238   0.905   7.582  1.7147  0.2273 -0.8996
   66MOL   H15311983   2.187   1.012   7.451  2.0758 -0.8794 -0.8476
   66MOL   H15411984   2.340   1.041   7.550  0.3004  0.4422  0.1837
   66MOL   C15511985   1.820   0.944   7.581 -0.0124 -0.5766 -0.2340
   66MOL   C15611986   1.807   0.791   7.572  0.0661 -0.0408 -0.1285
   66MOL   C15711987   1.773   1.021   7.456 -1.0966 -0.2992  0.0800
   66MOL   O15811988   1.677   1.097   7.453 -0.0190  0.0718 -0.0090
   66MOL   O15911989   1.864   0.992   7.355  0.2760  0.4348 -0.4196
   66MOL   H16011990   1.759   0.975   7.666  0.3764  0.7345 -0.4252
   66MOL   H16111991   1.699   0.773   7.572 -0.2668  1.6939 -2.8709
   66MOL   H16211992   1.861   0.735   7.496  0.2906 -2.9426  2.1118
   66MOL   H16311993   1.841   0.744   7.664 -1.0658 -1.1113 -0.2402
   66MOL   C16411994   1.830   1.026   7.221 -0.0222  0.0208 -0.0497
   66MOL   C16511995   1.860   0.900   7.135 -0.0677  0.5759  0.2879
   66MOL   C16611996   1.914   1.149   7.166  0.0847 -0.6066 -0.6630
   66MOL   O16711997   2.037   1.144   7.184 -0.3009 -0.4160 -0.2574
   66MOL   O16811998   1.853   1.240   7.091 -0.3523 -0.8084  0.3073
   66MOL   H16911999   1.724   1.051   7.217 -0.1795 -0.6779 -0.2737
   66MOL   H17012000   1.839   0.814   7.198  0.0508  1.6663  1.8596
   66MOL   H17112001   1.788   0.902   7.053 -0.5059  1.1352  0.6794
   66MOL   H17212002   1.960   0.894   7.093 -0.3432 -1.7186 -0.1024
   66MOL   C17312003   1.921   1.347   7.027  0.4356 -0.1265  0.0026
   66MOL   C17412004   1.818   1.448   6.977  0.2167  0.1154  0.3028
   66MOL   C17512005   2.010   1.301   6.908  0.1214  0.1156 -0.5576
   66MOL   O17612006   2.129   1.330   6.891 -0.3271  0.0763  0.2943
   66MOL   O17712007   1.930   1.216   6.834  0.0414  0.1468 -0.2378
   66MOL   H17812008   1.982   1.395   7.103  0.2056  0.4344 -0.1690
   66MOL   H17912009   1.764   1.500   7.056  0.9096  2.4807 -0.7352
   66MOL   H18012010   1.857   1.528   6.914 -1.2420  0.1103 -0.6213
   66MOL   H18112011   1.756   1.404   6.899  1.7066  1.6103 -1.7776
   66MOL   H18212012   1.840   1.212   6.861  0.3367  1.9667  1.1043
   67MOL     C112013   7.894   6.040   6.924 -0.1826  0.7504  0.4993
   67MOL     C212014   7.787   6.135   6.883  0.6405 -0.6127 -0.1411
   67MOL     C312015   8.030   6.101   6.931 -0.6001 -0.3917  0.0559
   67MOL     O412016   8.118   6.086   6.848 -0.3780  0.0797 -0.1675
   67MOL     O512017   8.034   6.163   7.047  0.1748 -0.0751  0.1138
   67MOL     H612018   7.863   5.996   7.019  0.0577 -0.3093  0.0927
   67MOL     H712019   7.797   6.181   6.784  1.1667 -3.7305 -1.5810
   67MOL     H812020   7.693   6.081   6.867  1.2482 -0.8309 -3.3985
   67MOL     H912021   7.769   6.215   6.955 -2.4382 -0.1969 -1.2876
   67MOL    H1012022   7.895   5.961   6.850 -1.2273  1.5306 -0.3584
   67MOL    C1112023   0.011   6.222   7.087  0.7262 -0.1296 -0.2885
   67MOL    C1212024   0.018   6.227   7.244  0.0051  0.1389 -0.2546
   67MOL    C1312025   0.029   6.358   7.024 -0.3347  0.1597  0.0449
   67MOL    O1412026   8.090   6.441   6.997  0.4456  0.1468 -0.4163
   67MOL    O1512027   0.157   6.395   7.007  0.1522  0.1649 -0.1249
   67MOL    H1612028   0.096   6.162   7.052  0.6292 -1.4984  1.7643
   67MOL    H1712029   0.108   6.274   7.282  0.7390 -2.3495  1.2169
   67MOL    H1812030   8.075   6.276   7.280  0.1342  0.1825  0.0114
   67MOL    H1912031   0.002   6.123   7.274  1.0821 -0.3623 -1.3784
   67MOL    C2012032   0.194   6.526   6.961  0.1989 -0.1313 -0.9790
   67MOL    C2112033   0.330   6.505   6.893  1.3837  0.5325 -0.0775
   67MOL    C2212034   0.202   6.629   7.079 -0.1614  0.0673 -0.5716
   67MOL    O2312035   0.220   6.591   7.194 -0.2360  0.1816 -0.2830
   67MOL    O2412036   0.200   6.750   7.033  0.3314  0.4402  0.3049
   67MOL    H2512037   0.128   6.579   6.892 -0.2123  1.1420  0.3619
   67MOL    H2612038   0.360   6.597   6.843  1.1887  1.4476  1.4527
   67MOL    H2712039   0.407   6.499   6.970  1.5020  0.0612 -0.2368
   67MOL    H2812040   0.341   6.416   6.832  0.0955 -0.1315  0.6412
   67MOL    C2912041   0.213   6.862   7.121  0.0555 -0.4536 -0.2765
   67MOL    C3012042   0.096   6.964   7.103  0.1462  0.6823 -0.1235
   67MOL    C3112043   0.354   6.926   7.111  0.1051  0.5714 -0.3992
   67MOL    O3212044   0.431   6.893   7.024  0.8783  0.6686 -0.3827
   67MOL    O3312045   0.380   7.015   7.199 -0.5069 -0.4853 -0.0238
   67MOL    H3412046   0.222   6.835   7.227 -3.0124  0.7472  0.3221
   67MOL    H3512047   0.098   7.047   7.174 -2.1279 -0.1643  0.9759
   67MOL    H3612048   0.097   7.007   7.003  0.0871  0.5462 -0.1818
   67MOL    H3712049   8.142   6.926   7.112  0.8368 -1.0426  0.6393
   67MOL    C3812050   0.483   7.114   7.186 -0.0871  0.0167  0.1359
   67MOL    C3912051   0.539   7.148   7.323  0.0851 -0.0691 -0.4665
   67MOL    C4012052   0.422   7.240   7.124  0.0397  0.0898 -0.1268
   67MOL    O4112053   0.429   7.349   7.180 -0.0633 -0.2826 -0.2083
   67MOL    O4212054   0.361   7.217   7.013 -0.5784  0.4543 -0.4104
   67MOL    H4312055   0.564   7.070   7.128  0.2856  3.1371 -1.7797
   67MOL    H4412056   0.576   7.053   7.360 -1.8515 -0.7906 -0.2923
   67MOL    H4512057   0.612   7.227   7.310 -0.5113  0.3927 -1.0421
   67MOL    H4612058   0.459   7.179   7.391 -0.5273 -0.7295 -0.8778
   67MOL    C4712059   0.289   7.313   6.942 -0.0801  0.0683  0.0997
   67MOL    C4812060   0.386   7.423   6.883  0.0346  0.2676  0.2051
   67MOL    C4912061   0.179   7.376   7.026 -0.0175  0.6694 -0.4888
   67MOL    O5012062   0.188   7.491   7.068 -0.4769 -0.5184  0.3425
   67MOL    O5112063   0.083   7.295   7.058  0.6692 -0.1822 -0.2563
   67MOL    H5212064   0.240   7.258   6.861  0.1001 -0.4071  0.3074
   67MOL    H5312065   0.431   7.490   6.957  0.9485 -1.0559  0.8709
   67MOL    H5412066   0.460   7.364   6.829  0.0251  0.1700  0.2968
   67MOL    H5512067   0.332   7.484   6.811 -2.3421 -0.6110  1.1599
   67MOL    C5612068   8.108   7.344   7.110  0.8541  0.2524 -0.4760
   67MOL    C5712069   8.035   7.222   7.179 -0.5667 -0.0342  0.8340
   67MOL    C5812070   8.009   7.410   7.012 -0.0953  0.7411 -0.5276
   67MOL    O5912071   7.960   7.514   7.026 -0.5380 -0.3861 -0.5462
   67MOL    O6012072   7.976   7.319   6.910  0.2189 -0.7018 -0.1782
   67MOL    H6112073   8.138   7.412   7.190  1.3753 -2.3525  1.6135
   67MOL    H6212074   7.949   7.256   7.235 -0.5175  1.9130 -0.2271
   67MOL    H6312075   8.014   7.137   7.113 -0.7100  2.2576 -2.1756
   67MOL    H6412076   8.096   7.177   7.258  0.3097 -1.3159 -0.5297
   67MOL    C6512077   7.910   7.357   6.792  0.1603 -0.1767  0.1759
   67MOL    C6612078   7.774   7.293   6.803  0.3133 -0.4505  0.1096
   67MOL    C6712079   7.988   7.296   6.671  0.2721  0.4268  0.4145
   67MOL    O6812080   8.058   7.362   6.600  0.3751  0.1272  0.1244
   67MOL    O6912081   7.982   7.155   6.666 -0.0247  0.0705 -0.0655
   67MOL    H7012082   7.912   7.465   6.779  1.7094 -0.1055  0.8945
   67MOL    H7112083   7.788   7.185   6.805 -0.5536 -0.5888 -0.7360
   67MOL    H7212084   7.725   7.319   6.897  0.6321  1.4252 -0.2317
   67MOL    H7312085   7.705   7.321   6.724  0.0999  0.4218  0.6062
   67MOL    C7412086   8.062   7.074   6.577 -0.6472 -0.0862 -0.0578
   67MOL    C7512087   7.991   6.946   6.550  0.2588 -0.0699  0.3558
   67MOL    C7612088   0.056   7.042   6.643  0.2421 -0.0771 -0.1956
   67MOL    O7712089   0.099   7.103   6.738  0.7767  0.3529 -0.5774
   67MOL    O7812090   0.125   6.950   6.565 -0.6319  0.7368  0.6135
   67MOL    H7912091   8.080   7.129   6.485  0.5657 -0.3418  0.0191
   67MOL    H8012092   8.031   6.872   6.481 -1.1033 -1.2284  0.7752
   67MOL    H8112093   7.956   6.892   6.638  1.4127  2.3299  2.3703
   67MOL    H8212094   7.899   6.986   6.508 -0.4978 -0.4851  1.5678
   67MOL    C8312095   0.265   6.940   6.580 -0.2883  0.8726  0.2901
   67MOL    C8412096   0.304   6.883   6.719 -0.9122 -0.4529 -0.8160
   67MOL    C8512097   0.338   7.066   6.538 -0.0938  0.5530 -0.3762
   67MOL    O8612098   0.398   7.141   6.621  0.3033  0.4471  0.3776
   67MOL    O8712099   0.307   7.094   6.412  0.0879  0.5238 -0.5830
   67MOL    H8812100   0.290   6.868   6.503 -0.2973  5.5211 -4.2965
   67MOL    H8912101   0.308   6.959   6.798  0.5139 -1.8106  0.4420
   67MOL    H9012102   0.213   6.831   6.750 -2.1967  1.0564 -1.9499
   67MOL    H9112103   0.383   6.809   6.712  0.6993  0.8863  2.0956
   67MOL    C9212104   0.344   7.225   6.357  0.2732 -0.0993 -0.2062
   67MOL    C9312105   0.268   7.350   6.410 -1.3946 -0.0047 -0.1154
   67MOL    C9412106   0.319   7.197   6.204 -0.3616 -0.4370  0.8196
   67MOL    O9512107   0.337   7.087   6.143 -0.4486 -0.1204  0.0205
   67MOL    O9612108   0.273   7.305   6.146  0.4103 -0.8511  0.1336
   67MOL    H9712109   0.451   7.236   6.376  0.2908 -0.2086 -0.2394
   67MOL    H9812110   0.307   7.361   6.511 -1.0316 -1.0380 -0.1352
   67MOL    H9912111   0.303   7.443   6.366 -0.5139 -0.3398 -0.1303
   67MOL   H10012112   0.160   7.341   6.406 -1.3186 -0.5617 -1.1196
   67MOL   C10112113   0.224   7.309   6.013 -0.1700 -0.3584 -0.6256
   67MOL   C10212114   0.251   7.449   5.967  1.0996 -0.3705 -0.2397
   67MOL   C10312115   0.073   7.281   6.019 -0.6577  0.1342 -0.6033
   67MOL   O10412116   8.135   7.362   5.979 -0.3021 -0.3239  0.2109
   67MOL   O10512117   0.050   7.153   6.058  0.4514  0.1220 -0.5685
   67MOL   H10612118   0.269   7.245   5.938  0.1482 -0.7214 -0.1312
   67MOL   H10712119   0.207   7.472   5.870 -0.4895  0.0657  0.5800
   67MOL   H10812120   0.228   7.533   6.033  0.8083  1.3197 -2.4179
   67MOL   H10912121   0.357   7.449   5.938  0.6867 -1.1800 -1.8014
   67MOL   C11012122   8.068   7.110   6.078 -0.0308 -0.1754 -0.0331
   67MOL   C11112123   8.073   7.023   6.203  0.0685 -0.8651  0.5449
   67MOL   C11212124   8.011   7.026   5.956  0.2134  0.2479  0.0217
   67MOL   O11312125   8.084   6.990   5.866  0.2504  0.2215 -0.5300
   67MOL   O11412126   7.886   6.982   5.977 -0.2403 -0.0780 -0.8101
   67MOL   H11512127   8.003   7.192   6.107  1.1127  1.2546 -1.4499
   67MOL   H11612128   0.024   7.036   6.247  0.8732  1.3346 -1.7834
   67MOL   H11712129   7.996   7.044   6.277  0.7392 -2.7318  1.8030
   67MOL   H11812130   8.060   6.919   6.173  4.3398 -1.3992  0.2771
   67MOL   C11912131   7.823   6.897   5.883  0.4891  0.3321 -0.3952
   67MOL   C12012132   7.673   6.917   5.893  0.1504 -0.0310  0.0879
   67MOL   C12112133   7.863   6.751   5.904  0.5365  0.2257 -0.4032
   67MOL   O12212134   7.923   6.718   6.007 -0.4480 -0.7570  0.3487
   67MOL   O12312135   7.809   6.667   5.813  0.4859 -0.2362  0.2780
   67MOL   H12412136   7.846   6.927   5.781  0.6187 -0.2095 -0.5293
   67MOL   H12512137   7.630   6.855   5.814 -0.1370  3.5957 -2.7085
   67MOL   H12612138   7.642   6.884   5.993 -0.0566 -0.2314 -0.0419
   67MOL   H12712139   7.636   7.018   5.876  0.6310  0.2338  0.5983
   67MOL   C12812140   7.818   6.529   5.816  0.5027 -0.2448  0.6141
   67MOL   C12912141   7.717   6.475   5.716 -0.3220  0.3924  0.9210
   67MOL   C13012142   7.779   6.472   5.956  0.0223 -0.1494  0.7888
   67MOL   O13112143   7.841   6.373   6.008  0.5082  0.3039 -0.2535
   67MOL   O13212144   7.671   6.536   6.012  0.6074 -0.3053 -0.5770
   67MOL   H13312145   7.912   6.491   5.776  0.2178  1.0063 -1.3329
   67MOL   H13412146   7.742   6.488   5.611 -0.9316  2.6502  1.0445
   67MOL   H13512147   7.689   6.370   5.731  0.0863  0.3032  1.0774
   67MOL   H13612148   7.619   6.524   5.714 -0.9055 -0.7454 -3.1972
   67MOL   C13712149   7.640   6.516   6.153  0.6094  0.3311  0.1709
   67MOL   C13812150   7.753   6.557   6.257  0.2201 -0.0224 -0.2559
   67MOL   C13912151   7.577   6.380   6.184  0.2343  0.1676  0.2883
   67MOL   O14012152   7.583   6.324   6.291  0.0593  0.4576 -0.0284
   67MOL   O14112153   7.497   6.341   6.084 -0.3207  1.0283  0.3626
   67MOL   H14212154   7.562   6.592   6.165 -0.1210  0.0347 -2.2867
   67MOL   H14312155   7.806   6.463   6.275 -1.6682 -0.6165  2.4176
   67MOL   H14412156   7.824   6.633   6.227  2.5742 -1.7910  0.6596
   67MOL   H14512157   7.717   6.586   6.355  0.3051  1.1584 -0.5724
   67MOL   C14612158   7.412   6.224   6.093 -0.3677  0.2073 -0.2587
   67MOL   C14712159   7.481   6.122   6.014  0.4007 -0.0663 -0.1876
   67MOL   C14812160   7.271   6.257   6.039 -0.7522 -0.4572 -1.0332
   67MOL   O14912161   7.240   6.375   6.026  0.0575  0.2209 -0.1099
   67MOL   O15012162   7.192   6.145   6.020  0.3395 -0.1354 -0.3907
   67MOL   H15112163   7.401   6.196   6.198  0.3367 -0.6590 -0.4092
   67MOL   H15212164   7.538   6.168   5.934 -0.2263  2.1309  0.5943
   67MOL   H15312165   7.563   6.072   6.065  1.2551  0.4254 -1.0838
   67MOL   H15412166   7.417   6.042   5.976 -0.9856 -0.5533  2.9888
   67MOL   C15512167   7.056   6.155   5.980  0.2488 -0.5614  0.5894
   67MOL   C15612168   7.034   6.196   5.830  0.1985  0.3955  0.6871
   67MOL   C15712169   6.960   6.237   6.074 -0.3649  1.2100 -0.2505
   67MOL   O15812170   6.882   6.324   6.034 -0.1570  0.2365  0.2809
   67MOL   O15912171   6.985   6.221   6.205  0.6253 -0.3623  0.3746
   67MOL   H16012172   7.021   6.052   5.980  2.3450 -1.3001 -1.2762
   67MOL   H16112173   6.926   6.189   5.817  0.6984 -1.1075 -3.1576
   67MOL   H16212174   7.064   6.296   5.800 -1.8601  0.9224  0.3519
   67MOL   H16312175   7.081   6.119   5.769  0.4731  0.3507  0.9520
   67MOL   C16412176   6.903   6.284   6.300 -0.6100 -0.5936 -0.5122
   67MOL   C16512177   6.975   6.424   6.331  0.3049  0.1098  0.2286
   67MOL   C16612178   6.901   6.192   6.426 -0.1923  0.2234 -1.3060
   67MOL   O16712179   6.928   6.231   6.539  0.5420  0.4432  0.0516
   67MOL   O16812180   6.864   6.068   6.404 -0.4758  0.4061 -0.8254
   67MOL   H16912181   6.802   6.308   6.266 -0.2921  1.1010 -0.2535
   67MOL   H17012182   6.958   6.470   6.429  2.6551  1.1173  0.1883
   67MOL   H17112183   7.083   6.427   6.319  0.3835  1.5511  1.1757
   67MOL   H17212184   6.941   6.499   6.260 -0.0578 -0.0410  0.2406
   67MOL   C17312185   6.856   5.966   6.508 -0.1231 -0.0934 -0.0345
   67MOL   C17412186   6.741   5.997   6.618 -0.2476 -0.0785  0.2427
   67MOL   C17512187   6.994   5.935   6.571 -0.5692  0.0618  0.0371
   67MOL   O17612188   7.028   5.952   6.691 -0.4831 -0.0834 -0.2910
   67MOL   O17712189   7.080   5.888   6.471  0.1976 -0.6321 -0.2471
   67MOL   H17812190   6.819   5.875   6.460  1.4534 -1.1721  0.7479
   67MOL   H17912191   6.635   5.992   6.590  0.0589  1.6535 -1.3447
   67MOL   H18012192   6.753   5.920   6.694 -0.3315 -1.4460 -1.0979
   67MOL   H18112193   6.756   6.096   6.660 -1.5443 -0.6688  2.1637
   67MOL   H18212194   7.163   5.883   6.517  0.6457 -0.5860 -1.0302
   68MOL     C112195   5.425   6.461   3.191  0.8561 -0.2009  0.4330
   68MOL     C212196   5.463   6.500   3.328 -0.1573  0.7904 -0.5261
   68MOL     C312197   5.363   6.563   3.102 -0.7589 -0.8048  1.0920
   68MOL     O412198   5.424   6.591   2.997 -0.1590  0.4197  0.1817
   68MOL     O512199   5.252   6.617   3.160  0.1229 -0.6483 -0.5612
   68MOL     H612200   5.501   6.408   3.134  0.2749 -0.1545 -0.3990
   68MOL     H712201   5.551   6.564   3.326  0.1423  0.4058  0.0775
   68MOL     H812202   5.392   6.558   3.386 -1.7185 -0.4952 -1.1156
   68MOL     H912203   5.483   6.410   3.387  0.1456 -0.1456 -2.0310
   68MOL    H1012204   5.344   6.390   3.208  2.3533 -1.9670  0.2848
   68MOL    C1112205   5.205   6.736   3.096  0.2167  0.8098 -0.1073
   68MOL    C1212206   5.272   6.848   3.176  0.0116  0.4588  0.1107
   68MOL    C1312207   5.053   6.743   3.107 -0.3028  0.3411 -0.0159
   68MOL    O1412208   4.983   6.652   3.165  0.1540 -1.1208  0.2983
   68MOL    O1512209   5.009   6.855   3.067  0.3209 -0.2602 -0.2379
   68MOL    H1612210   5.238   6.754   2.994  0.8872  0.2327 -0.0001
   68MOL    H1712211   5.259   6.946   3.131 -1.2860  0.2959  0.1091
   68MOL    H1812212   5.233   6.857   3.277 -1.0534 -2.8370  0.0449
   68MOL    H1912213   5.379   6.831   3.187  0.5765  1.5586 -3.1582
   68MOL    C2012214   4.878   6.909   3.092  0.5101  0.2729 -0.2053
   68MOL    C2112215   4.841   7.004   2.973  0.3982  0.0794 -0.0025
   68MOL    C2212216   4.860   6.977   3.231  0.5811  0.8038 -0.2687
   68MOL    O2312217   4.947   7.051   3.286  0.0226  0.1117  0.6048
   68MOL    O2412218   4.740   6.935   3.282 -0.5710  0.0654 -0.1648
   68MOL    H2512219   4.809   6.827   3.075  0.0694  0.8124 -1.0571
   68MOL    H2612220   4.736   6.988   2.949 -0.1474  1.8005  1.0953
   68MOL    H2712221   4.835   7.109   3.002 -0.6675  0.5411 -1.8126
   68MOL    H2812222   4.900   6.994   2.882  1.8812 -0.2662  0.9828
   68MOL    C2912223   4.692   7.002   3.395  0.3131 -0.6164  0.0354
   68MOL    C3012224   4.622   6.897   3.493  0.4758 -0.2419 -1.2379
   68MOL    C3112225   4.604   7.126   3.357 -0.1249  0.4253 -1.2505
   68MOL    O3212226   4.548   7.191   3.450 -0.3283  0.3818  0.2519
   68MOL    O3312227   4.589   7.144   3.226  0.1701  0.1904  0.0974
   68MOL    H3412228   4.775   7.043   3.452  0.1017 -1.1166  0.6998
   68MOL    H3512229   4.520   6.873   3.462 -0.5052  0.4860  1.2476
   68MOL    H3612230   4.685   6.808   3.489 -0.0578 -0.8825  2.5103
   68MOL    H3712231   4.628   6.914   3.601 -0.1624 -0.9201 -1.0929
   68MOL    C3812232   4.523   7.263   3.170 -0.2030 -0.0802 -0.2351
   68MOL    C3912233   4.491   7.259   3.017  0.2220  0.0515  0.3099
   68MOL    C4012234   4.611   7.387   3.204  0.2354  1.1739  0.3395
   68MOL    O4112235   4.557   7.483   3.256 -0.0254 -1.0989 -0.0457
   68MOL    O4212236   4.741   7.378   3.158  0.2494  0.1011 -0.1861
   68MOL    H4312237   4.431   7.269   3.228 -1.4691  1.1779 -2.3453
   68MOL    H4412238   4.439   7.163   3.012 -1.6141  1.0930 -1.6878
   68MOL    H4512239   4.422   7.339   2.989 -3.1798 -1.6084  3.4523
   68MOL    H4612240   4.581   7.255   2.955  1.6828 -0.8833  2.4365
   68MOL    C4712241   4.836   7.473   3.197  0.2311 -0.5980  0.1742
   68MOL    C4812242   4.944   7.439   3.088 -0.2580 -0.8170 -0.7351
   68MOL    C4912243   4.883   7.440   3.341 -0.3977  0.2886 -0.4180
   68MOL    O5012244   4.845   7.343   3.406  0.6599  0.2722 -0.0970
   68MOL    O5112245   4.967   7.534   3.391 -0.3283 -0.7654 -0.1937
   68MOL    H5212246   4.815   7.579   3.183  2.4325 -0.4195 -2.1750
   68MOL    H5312247   4.940   7.503   3.000  0.0178 -0.0818 -0.2218
   68MOL    H5412248   5.039   7.473   3.130 -1.0755  0.4226  0.1569
   68MOL    H5512249   4.962   7.336   3.058 -0.6473 -0.7764 -1.1082
   68MOL    C5612250   5.006   7.541   3.526  0.4658  0.8356 -0.1975
   68MOL    C5712251   5.001   7.684   3.580 -0.7736  0.3732  0.3431
   68MOL    C5812252   5.145   7.484   3.524 -0.1567 -0.5559 -0.7210
   68MOL    O5912253   5.250   7.549   3.536  0.1152  0.1320 -0.2683
   68MOL    O6012254   5.142   7.358   3.480  0.0571  0.4976 -0.0521
   68MOL    H6112255   4.946   7.475   3.588  0.5958  1.1002  0.2113
   68MOL    H6212256   4.899   7.717   3.597 -0.7476  0.2183  0.8007
   68MOL    H6312257   5.047   7.667   3.678 -1.4946  0.5601  0.7136
   68MOL    H6412258   5.069   7.756   3.535 -1.1234  1.1817  1.0987
   68MOL    C6512259   5.261   7.278   3.475  0.2070 -0.4658  0.1082
   68MOL    C6612260   5.227   7.146   3.411 -0.5808  0.3770 -0.2367
   68MOL    C6712261   5.323   7.256   3.613  0.2873 -0.0780  0.3594
   68MOL    O6812262   5.429   7.203   3.633 -0.3915  0.0709 -0.1196
   68MOL    O6912263   5.242   7.278   3.716  0.3079 -0.0136 -0.0752
   68MOL    H7012264   5.341   7.329   3.422 -0.5241 -0.4480 -1.0086
   68MOL    H7112265   5.151   7.091   3.466 -0.0443 -0.2972 -0.1697
   68MOL    H7212266   5.203   7.159   3.305  2.3601 -0.5827 -1.0729
   68MOL    H7312267   5.315   7.084   3.397 -0.6288  0.3118 -0.2450
   68MOL    C7412268   5.303   7.305   3.846 -0.6884  0.0290 -0.3712
   68MOL    C7512269   5.190   7.319   3.948 -0.1097 -0.4647 -0.3770
   68MOL    C7612270   5.382   7.434   3.857 -0.2820 -0.3360  0.0109
   68MOL    O7712271   5.502   7.438   3.891  0.6916  0.1151  0.2180
   68MOL    O7812272   5.310   7.541   3.837 -0.5522  0.5611  0.1673
   68MOL    H7912273   5.367   7.227   3.886  0.2747  1.5575  1.1637
   68MOL    H8012274   5.129   7.229   3.956  0.1984 -0.7473 -1.1062
   68MOL    H8112275   5.243   7.336   4.042  1.0541  1.4207 -1.3304
   68MOL    H8212276   5.120   7.392   3.908 -2.3525 -2.0164  0.6739
   68MOL    C8312277   5.354   7.675   3.872 -0.2060 -0.0499  0.6136
   68MOL    C8412278   5.484   7.729   3.796 -0.4049 -0.0478  0.1591
   68MOL    C8512279   5.360   7.699   4.026  0.0525  0.6274  0.2194
   68MOL    O8612280   5.451   7.766   4.075  0.3881  0.0630  0.3052
   68MOL    O8712281   5.259   7.640   4.095 -0.1461 -0.3348 -0.9197
   68MOL    H8812282   5.274   7.738   3.830 -1.5065 -1.6903  0.5800
   68MOL    H8912283   5.487   7.685   3.696 -2.4690 -1.2214  0.5956
   68MOL    H9012284   5.497   7.837   3.783 -0.8883 -0.0561 -0.3968
   68MOL    H9112285   5.575   7.698   3.848  0.4407  0.3309 -1.0564
   68MOL    C9212286   5.242   7.652   4.239  0.3014 -0.6704 -0.1140
   68MOL    C9312287   5.144   7.550   4.306 -0.0651 -0.5630  0.1549
   68MOL    C9412288   5.196   7.791   4.287 -0.1296  0.3008 -0.0459
   68MOL    O9512289   5.119   7.850   4.215  0.2470 -0.6614 -0.2532
   68MOL    O9612290   5.242   7.828   4.408 -0.2989 -0.2739  0.5897
   68MOL    H9712291   5.343   7.639   4.277 -0.3583 -1.3327  1.4884
   68MOL    H9812292   5.189   7.451   4.294  0.6196 -0.1486 -0.7237
   68MOL    H9912293   5.145   7.560   4.415  0.9944 -1.5894  0.2545
   68MOL   H10012294   5.043   7.573   4.275  0.9097  2.9742 -0.5467
   68MOL   C10112295   5.183   7.936   4.479  0.5031 -0.5398 -0.1187
   68MOL   C10212296   5.280   8.006   4.576 -0.1910 -0.2831  0.0206
   68MOL   C10312297   5.052   7.892   4.556  0.3839 -0.1424  1.0362
   68MOL   O10412298   5.025   7.772   4.565 -0.5727  0.1250 -0.5049
   68MOL   O10512299   4.988   7.983   4.615  0.0825  0.0544 -0.2520
   68MOL   H10612300   5.140   8.017   4.421  1.7038  0.7172  0.7147
   68MOL   H10712301   5.367   7.954   4.616  0.5488  0.4859 -0.5625
   68MOL   H10812302   5.304   8.099   4.524 -1.1181  0.7353  1.3758
   68MOL   H10912303   5.230   8.041   4.666  1.0948  4.2394 -0.9006
   68MOL   C11012304   4.866   7.956   4.680  0.2242 -0.5545 -0.1324
   68MOL   C11112305   4.792   8.091   4.673  0.6642 -0.1351  0.2998
   68MOL   C11212306   4.888   7.895   4.817  0.0970  0.0447  0.3577
   68MOL   O11312307   4.817   7.804   4.856 -0.6323 -0.3587 -0.0969
   68MOL   O11412308   5.003   7.948   4.871 -0.3106  0.1274  0.1001
   68MOL   H11512309   4.814   7.884   4.618  0.6216  0.0208 -1.1481
   68MOL   H11612310   4.842   0.030   4.717  1.4182 -0.1854 -0.4594
   68MOL   H11712311   4.754   8.115   4.573  0.0990 -1.2871  0.2331
   68MOL   H11812312   4.695   8.087   4.723 -0.2673 -0.1108 -1.4799
   68MOL   C11912313   5.075   7.890   4.981  0.1743  0.3588  0.2478
   68MOL   C12012314   5.121   8.005   5.080 -0.3141  0.1079  0.6273
   68MOL   C12112315   5.193   7.801   4.933 -0.2905 -0.4307  0.2944
   68MOL   O12212316   5.217   7.771   4.820 -0.0117 -0.2397 -0.1840
   68MOL   O12312317   5.276   7.758   5.036  0.2798  0.6874 -0.1956
   68MOL   H12412318   5.002   7.825   5.028 -0.2574 -1.4352 -2.8184
   68MOL   H12512319   5.039   8.070   5.112  0.9807  1.7466  0.7167
   68MOL   H12612320   5.147   7.959   5.175  1.3062 -1.4661 -0.5677
   68MOL   H12712321   5.198   8.074   5.046  1.3057 -3.1967 -2.7565
   68MOL   C12812322   5.391   7.683   5.023 -0.2149 -0.4874  0.9194
   68MOL   C12912323   5.416   7.585   5.145  0.2267  0.2907  0.6575
   68MOL   C13012324   5.509   7.785   5.010 -0.0290  0.4948 -0.2166
   68MOL   O13112325   5.588   7.775   4.916 -0.0008 -0.6348 -0.6240
   68MOL   O13212326   5.516   7.880   5.116 -0.0147  0.7062  0.6750
   68MOL   H13312327   5.379   7.622   4.933 -0.7365 -1.8007  1.8674
   68MOL   H13412328   5.326   7.552   5.197  0.6694 -2.6344 -0.3477
   68MOL   H13512329   5.474   7.496   5.121  1.1713  1.2592 -0.6988
   68MOL   H13612330   5.470   7.636   5.225  0.3233 -2.6303  2.5228
   68MOL   C13712331   5.624   7.960   5.145 -0.6167  0.7861 -0.4829
   68MOL   C13812332   5.593   8.107   5.098 -0.0431  0.3357 -0.1625
   68MOL   C13912333   5.771   7.904   5.116 -0.6909  0.3344 -1.0452
   68MOL   O14012334   5.858   7.972   5.066  0.3012  0.2491  0.5732
   68MOL   O14112335   5.784   7.780   5.154  0.3005 -0.2580 -0.3352
   68MOL   H14212336   5.623   7.966   5.254  2.4499 -0.6965 -0.3152
   68MOL   H14312337   5.486   8.120   5.085 -0.2229  0.5892  1.5509
   68MOL   H14412338   5.638   0.035   5.163 -0.2013  0.4701 -0.2095
   68MOL   H14512339   5.638   8.119   4.999  0.9233  0.3848  0.2783
   68MOL   C14612340   5.918   7.731   5.161  0.3008 -0.2172 -0.3851
   68MOL   C14712341   5.901   7.583   5.189  0.0269 -0.8101 -0.0286
   68MOL   C14812342   5.999   7.787   5.277 -0.1275  0.0666 -0.1678
   68MOL   O14912343   5.950   7.819   5.385  1.0532  0.1047  0.7176
   68MOL   O15012344   6.132   7.775   5.252 -0.5226  0.0931  0.1848
   68MOL   H15112345   5.973   7.725   5.067  0.2939 -0.5733 -0.3658
   68MOL   H15212346   5.864   7.525   5.105 -0.2978  0.4893 -0.7925
   68MOL   H15312347   5.986   7.520   5.216 -0.7454 -2.8870 -2.3467
   68MOL   H15412348   5.833   7.567   5.272 -1.9298  2.4353 -0.9017
   68MOL   C15512349   6.231   7.813   5.350  0.1885  0.5538 -0.5996
   68MOL   C15612350   6.358   7.862   5.272 -0.2557 -0.5255  0.1618
   68MOL   C15712351   6.250   7.694   5.445 -0.5235  0.1502  0.2208
   68MOL   O15812352   6.179   7.595   5.440  0.4076 -0.1452  0.4445
   68MOL   O15912353   6.343   7.720   5.537 -0.0160  0.0754 -0.3444
   68MOL   H16012354   6.203   7.895   5.417  1.0236  1.9394 -1.9319
   68MOL   H16112355   6.454   7.829   5.314  2.2010  2.8309 -2.4893
   68MOL   H16212356   6.350   7.808   5.178  0.5381 -0.6542  0.1577
   68MOL   H16312357   6.359   7.968   5.246  1.1396 -0.1682  1.5184
   68MOL   C16412358   6.400   7.614   5.607  0.2252 -0.6786 -0.3419
   68MOL   C16512359   6.474   7.670   5.727  0.1422 -0.2290 -0.1733
   68MOL   C16612360   6.502   7.540   5.518  0.3899 -0.0959  0.3401
   68MOL   O16712361   6.475   7.431   5.475 -0.3010 -0.1517  0.0060
   68MOL   O16812362   6.603   7.621   5.482  0.2720  0.3526 -0.0860
   68MOL   H16912363   6.329   7.543   5.649  2.1612 -0.2487  3.9781
   68MOL   H17012364   6.573   7.631   5.747  1.2123  1.3317 -2.2721
   68MOL   H17112365   6.473   7.779   5.729 -0.0043 -0.2378  0.6624
   68MOL   H17212366   6.416   7.653   5.818  1.4913  2.3773  1.2344
   68MOL   C17312367   6.703   7.567   5.398  0.4185  0.2580  0.2383
   68MOL   C17412368   6.831   7.655   5.435  0.7637  0.3793 -0.1901
   68MOL   C17512369   6.651   7.591   5.258 -0.0879  0.5143  0.5182
   68MOL   O17612370   6.542   7.621   5.215 -0.3980 -0.5493 -0.1139
   68MOL   O17712371   6.752   7.558   5.168  0.6765  0.3431 -0.0594
   68MOL   H17812372   6.715   7.462   5.425  1.8547  0.8653  2.0987
   68MOL   H17912373   6.829   7.758   5.399  2.8693  0.7640  0.6962
   68MOL   H18012374   6.842   7.661   5.543  1.4080 -0.3654 -0.2038
   68MOL   H18112375   6.924   7.617   5.391 -0.4402 -1.1889 -1.4771
   68MOL   H18212376   6.733   7.553   5.076  2.3886  0.1769 -0.4216
   69MOL     C112377   1.462   6.899   4.471  0.1202  0.1626  0.1390
   69MOL     C212378   1.452   6.860   4.322  0.5056  0.1508  0.0063
   69MOL     C312379   1.326   6.914   4.533  0.1476 -0.1218 -0.1988
   69MOL     O412380   1.218   6.910   4.469 -0.1034  0.2369 -0.7602
   69MOL     O512381   1.334   6.947   4.657 -0.2762  0.3321 -0.1437
   69MOL     H612382   1.514   6.813   4.513  2.1813  0.3964 -1.7973
   69MOL     H712383   1.361   6.805   4.299  1.7759 -1.3432 -1.5766
   69MOL     H812384   1.449   6.944   4.252  0.0029  0.3685  0.2841
   69MOL     H912385   1.535   6.795   4.295 -0.5552 -1.7354  1.2161
   69MOL    H1012386   1.521   6.988   4.489 -2.0321  1.2556  1.9777
   69MOL    C1112387   1.218   6.984   4.734 -0.3088  0.3329  0.2493
   69MOL    C1212388   1.274   7.061   4.856  0.1306 -0.1762  0.6833
   69MOL    C1312389   1.124   6.876   4.775  0.1503  0.4288  0.7920
   69MOL    O1412390   1.004   6.900   4.768  0.0647 -0.3690 -0.0212
   69MOL    O1512391   1.187   6.760   4.823 -0.2702 -0.2262 -0.2704
   69MOL    H1612392   1.169   7.057   4.670 -0.9736 -0.2174  0.1219
   69MOL    H1712393   1.321   6.985   4.918  1.8458 -0.9973 -1.5399
   69MOL    H1812394   1.352   7.133   4.830  1.3293 -0.7585  2.5432
   69MOL    H1912395   1.193   7.119   4.899  1.1732  0.8295  1.3301
   69MOL    C2012396   1.104   6.655   4.876 -0.1795  0.1393  0.2402
   69MOL    C2112397   1.189   6.554   4.946 -0.2151  0.2131  0.2236
   69MOL    C2212398   1.031   6.587   4.763  0.1638 -0.0499  1.0675
   69MOL    O2312399   0.912   6.583   4.749 -0.1357 -0.6661  0.4222
   69MOL    O2412400   1.121   6.537   4.675 -0.6394 -0.4792 -0.4695
   69MOL    H2512401   1.032   6.706   4.941 -1.0384 -0.8238  0.0477
   69MOL    H2612402   1.236   6.602   5.032 -1.3722 -1.1520  1.6341
   69MOL    H2712403   1.126   6.472   4.978  1.7636 -1.4420 -0.0273
   69MOL    H2812404   1.275   6.517   4.891  0.6606  0.5860  1.3115
   69MOL    C2912405   1.070   6.463   4.567  0.0185 -0.5307  0.6216
   69MOL    C3012406   1.185   6.362   4.531  0.1782 -0.4345  0.1166
   69MOL    C3112407   1.051   6.556   4.443  0.1851 -0.3085 -0.3594
   69MOL    O3212408   1.088   6.524   4.328  0.3150 -1.0355  0.8214
   69MOL    O3312409   0.980   6.662   4.479  0.1759 -0.2128 -0.0693
   69MOL    H3412410   0.975   6.413   4.586  1.0076 -2.2932  1.0569
   69MOL    H3512411   1.243   6.344   4.622 -0.0164 -1.5803  0.0203
   69MOL    H3612412   1.146   6.266   4.498 -1.7089  0.6891 -0.9608
   69MOL    H3712413   1.254   6.405   4.459 -1.7410  3.5734  0.5326
   69MOL    C3812414   0.926   6.761   4.385  0.2474  0.7176  0.3657
   69MOL    C3912415   0.866   6.876   4.465  0.0291  0.8012  0.2114
   69MOL    C4012416   0.818   6.698   4.304  0.7132 -0.6466  0.0376
   69MOL    O4112417   0.760   6.594   4.330 -0.0822  0.0231 -0.1387
   69MOL    O4212418   0.801   6.760   4.185 -0.1523  0.2819 -0.5149
   69MOL    H4312419   1.003   6.802   4.319 -0.1488  0.1850 -0.4302
   69MOL    H4412420   0.955   6.905   4.521  0.8280  1.5015 -1.3925
   69MOL    H4512421   0.832   6.960   4.404  0.5772 -0.4828 -1.8979
   69MOL    H4612422   0.784   6.851   4.533 -0.3320  1.6523  0.1002
   69MOL    C4712423   0.730   6.686   4.078 -0.8297  0.0414 -0.4816
   69MOL    C4812424   0.580   6.680   4.094  0.5350  0.3409  0.1422
   69MOL    C4912425   0.807   6.548   4.046  0.8534  0.4883  0.0674
   69MOL    O5012426   0.747   6.447   4.018 -0.3046  0.7427 -0.1409
   69MOL    O5112427   0.935   6.574   4.035  0.2112  0.3083 -0.0881
   69MOL    H5212428   0.751   6.742   3.987  1.3426 -1.4819 -0.9454
   69MOL    H5312429   0.547   6.683   4.198  1.1273  0.7375  0.3188
   69MOL    H5412430   0.535   6.774   4.063  1.6088  1.3712  1.6329
   69MOL    H5512431   0.532   6.599   4.039  0.3456 -0.0172  0.8279
   69MOL    C5612432   1.020   6.501   3.952  0.0275 -0.5938  0.2504
   69MOL    C5712433   1.164   6.549   3.979  0.8286  0.7815 -0.3943
   69MOL    C5812434   0.987   6.526   3.802 -0.2258 -0.4790  0.5397
   69MOL    O5912435   0.921   6.619   3.752  0.7328  0.2830  0.1859
   69MOL    O6012436   1.064   6.440   3.734  0.5703 -0.5015  0.5114
   69MOL    H6112437   1.024   6.396   3.984  2.6778 -0.6813 -0.2730
   69MOL    H6212438   1.233   6.495   3.914 -1.2259 -2.7228  0.1859
   69MOL    H6312439   1.175   6.658   3.976  0.4078  0.9098  1.8551
   69MOL    H6412440   1.191   6.517   4.079 -1.9588 -1.9032 -0.4235
   69MOL    C6512441   1.084   6.440   3.594 -0.3827  0.8501 -1.0033
   69MOL    C6612442   1.164   6.307   3.564 -0.0865 -0.4904 -0.6751
   69MOL    C6712443   1.154   6.576   3.560 -0.1349 -0.0218  0.3578
   69MOL    O6812444   1.105   6.636   3.465 -0.0517 -0.0010 -0.1288
   69MOL    O6912445   1.281   6.594   3.607  0.0386 -0.5770 -0.0503
   69MOL    H7012446   0.990   6.444   3.540 -0.6768 -0.7382 -0.6396
   69MOL    H7112447   1.193   6.298   3.459  2.3217  0.2747 -0.0880
   69MOL    H7212448   1.259   6.328   3.613 -0.4877  1.7864 -0.8131
   69MOL    H7312449   1.119   6.221   3.614  1.0378 -1.0677 -0.6594
   69MOL    C7412450   1.355   6.711   3.588 -0.4364 -0.0721  0.2525
   69MOL    C7512451   1.494   6.686   3.653  0.1028 -0.4508 -0.2054
   69MOL    C7612452   1.284   6.838   3.646  0.6525  0.4174  0.2421
   69MOL    O7712453   1.253   6.932   3.576  0.4955  0.8553 -0.8464
   69MOL    O7812454   1.269   6.841   3.782  0.6583 -0.2972  0.3093
   69MOL    H7912455   1.361   6.741   3.483  0.8368  1.9218  0.8597
   69MOL    H8012456   1.535   6.597   3.606 -0.5244  0.0097 -1.6617
   69MOL    H8112457   1.559   6.774   3.645 -0.0758  0.0705  3.1799
   69MOL    H8212458   1.496   6.664   3.760  0.6432 -1.1361 -0.3519
   69MOL    C8312459   1.192   6.944   3.843  0.8152  0.5961  0.0990
   69MOL    C8412460   1.252   6.966   3.984  0.2011  0.2420 -0.0083
   69MOL    C8512461   1.043   6.919   3.848  0.0224  0.6907 -0.1692
   69MOL    O8612462   0.989   6.847   3.935  0.1326  0.1726 -0.1598
   69MOL    O8712463   0.980   6.981   3.748  0.4485 -0.0869 -0.0056
   69MOL    H8812464   1.210   7.041   3.796 -0.9193  1.4786  1.2261
   69MOL    H8912465   1.351   7.012   3.982 -0.5649  2.2346  3.4591
   69MOL    H9012466   1.200   7.042   4.041  0.9798 -0.6503  1.9466
   69MOL    H9112467   1.259   6.876   4.046 -0.3915 -0.3084 -0.7271
   69MOL    C9212468   0.839   6.986   3.725 -0.7331  0.5865 -1.0669
   69MOL    C9312469   0.808   7.077   3.610  0.2681  0.0744 -0.3233
   69MOL    C9412470   0.760   7.031   3.854 -0.0613 -0.6378  0.4657
   69MOL    O9512471   0.657   6.982   3.893  0.3772 -0.3437  0.1165
   69MOL    O9612472   0.824   7.130   3.914 -0.2630  0.8607 -0.2993
   69MOL    H9712473   0.804   6.886   3.700  0.3535 -0.2570  0.6642
   69MOL    H9812474   0.702   7.064   3.588 -0.4819  1.9378  1.9482
   69MOL    H9912475   0.840   7.178   3.636 -1.0977 -0.2022  2.5849
   69MOL   H10012476   0.856   7.035   3.521  0.3327  0.5716 -0.5203
   69MOL   C10112477   0.779   7.204   4.022 -0.4127  0.3639 -0.1030
   69MOL   C10212478   0.751   7.115   4.151  0.2900 -0.0800  0.1378
   69MOL   C10312479   0.662   7.299   3.995  0.8355  0.3720 -0.0110
   69MOL   O10412480   0.618   7.368   4.085  0.1885  0.2978 -0.2634
   69MOL   O10512481   0.620   7.297   3.868 -0.1413 -0.2050 -0.0278
   69MOL   H10612482   0.863   7.267   4.050  0.4565 -0.6186 -0.4574
   69MOL   H10712483   0.823   7.034   4.166 -0.7895 -1.1527 -0.3935
   69MOL   H10812484   0.746   7.174   4.242 -3.0227 -1.4973  0.9662
   69MOL   H10912485   0.652   7.070   4.142  0.2639  0.5482 -3.5538
   69MOL   C11012486   0.525   7.382   3.811 -0.0885  0.2308  0.1703
   69MOL   C11112487   0.441   7.304   3.712  0.2493 -0.2048  0.7461
   69MOL   C11212488   0.604   7.495   3.744  0.3283 -0.7038 -0.3281
   69MOL   O11312489   0.616   7.611   3.784  0.4757  0.2177 -0.0582
   69MOL   O11412490   0.672   7.448   3.642  0.6069 -0.2007  0.3919
   69MOL   H11512491   0.459   7.415   3.891 -0.3326 -0.3798  0.2222
   69MOL   H11612492   0.441   7.355   3.616  1.6437 -0.7126  0.4590
   69MOL   H11712493   0.487   7.207   3.692  0.9856  0.8549 -3.2925
   69MOL   H11812494   0.337   7.281   3.734 -0.9133  2.5851 -1.4917
   69MOL   C11912495   0.748   7.538   3.551 -0.3023  0.2838  0.0885
   69MOL   C12012496   0.732   7.479   3.406  0.5399  0.5735 -0.4065
   69MOL   C12112497   0.899   7.541   3.597  0.3078  0.1814 -0.0042
   69MOL   O12212498   0.947   7.635   3.661  0.0539  0.2398 -0.3671
   69MOL   O12312499   0.968   7.427   3.568  0.3461 -0.4484 -0.3675
   69MOL   H12412500   0.713   7.641   3.554 -2.3371 -0.3818 -0.0466
   69MOL   H12512501   0.785   7.536   3.329  1.6980  0.1193  0.0380
   69MOL   H12612502   0.786   7.384   3.405  0.0718  0.3105 -0.8169
   69MOL   H12712503   0.628   7.461   3.379  1.0950 -0.1524 -2.1779
   69MOL   C12812504   1.098   7.402   3.624 -0.9485 -1.0156  0.3082
   69MOL   C12912505   1.165   7.272   3.566  0.9165 -0.7465  0.0820
   69MOL   C13012506   1.092   7.390   3.780  0.8507  0.0999  0.4621
   69MOL   O13112507   0.987   7.346   3.840 -0.0806 -0.4436  0.3133
   69MOL   O13212508   1.204   7.432   3.836 -0.2758  0.2204 -0.4133
   69MOL   H13312509   1.159   7.484   3.587 -0.6685 -0.7037  1.4328
   69MOL   H13412510   1.264   7.265   3.612  0.9781 -4.4022 -0.5068
   69MOL   H13512511   1.102   7.190   3.598 -1.8178  1.1966 -0.1639
   69MOL   H13612512   1.182   7.270   3.458 -1.2237  0.2230 -0.2885
   69MOL   C13712513   1.218   7.431   3.981  0.2234 -0.3055 -0.1398
   69MOL   C13812514   1.184   7.573   4.022 -0.0924  0.1423 -0.4517
   69MOL   C13912515   1.354   7.370   4.021  0.2624 -0.2670 -0.1785
   69MOL   O14012516   1.373   7.278   4.103  0.0036  0.5830 -0.2992
   69MOL   O14112517   1.444   7.433   3.947 -0.0594  0.2889  0.1363
   69MOL   H14212518   1.153   7.351   4.018 -0.1894  0.4531  0.7723
   69MOL   H14312519   1.235   7.654   3.970 -0.2752 -0.0179 -0.8793
   69MOL   H14412520   1.080   7.594   4.000 -0.4094 -0.2023  0.6610
   69MOL   H14512521   1.187   7.574   4.131 -1.9166 -2.7384 -0.3189
   69MOL   C14612522   1.585   7.392   3.946 -0.0674 -0.0132 -0.3465
   69MOL   C14712523   1.663   7.504   4.004  0.6027  0.1526 -0.2076
   69MOL   C14812524   1.617   7.361   3.800 -0.1326 -0.4334  0.2369
   69MOL   O14912525   1.647   7.441   3.719  0.2661  0.2584 -0.2751
   69MOL   O15012526   1.625   7.230   3.784 -0.1999 -0.4420  0.2155
   69MOL   H15112527   1.605   7.302   4.004 -1.2174 -1.3803 -2.0585
   69MOL   H15212528   1.640   7.518   4.109 -0.9493 -0.2725 -0.4740
   69MOL   H15312529   1.771   7.499   4.001  0.6300 -0.3888  1.3557
   69MOL   H15412530   1.634   7.603   3.967 -1.5882 -0.2377  0.3980
   69MOL   C15512531   1.654   7.174   3.657 -0.2566  0.5835 -0.0910
   69MOL   C15612532   1.530   7.113   3.601 -0.1210  0.2312 -0.1105
   69MOL   C15712533   1.769   7.064   3.671 -0.1383 -0.4096 -0.3497
   69MOL   O15812534   1.752   6.950   3.629 -0.5769 -0.4184  0.0679
   69MOL   O15912535   1.875   7.101   3.748  0.0206  0.0588  0.3848
   69MOL   H16012536   1.693   7.244   3.583 -1.2503  1.1151 -0.1177
   69MOL   H16112537   1.444   7.165   3.641  0.9061  0.7648  1.4481
   69MOL   H16212538   1.534   7.128   3.493  0.0960  1.1752  0.0211
   69MOL   H16312539   1.510   7.009   3.623 -0.1253  0.1937 -0.2847
   69MOL   C16412540   1.989   7.013   3.764 -0.9098 -1.1052  0.1798
   69MOL   C16512541   2.071   7.063   3.881  0.6835  0.0760  0.7052
   69MOL   C16612542   2.079   7.007   3.641 -0.4024  0.0470 -0.0173
   69MOL   O16712543   2.062   7.091   3.553 -0.0920 -0.4490 -0.2389
   69MOL   O16812544   2.169   6.903   3.639  0.6685  0.3161  0.3489
   69MOL   H16912545   1.953   6.913   3.788 -1.8722 -0.8123 -0.0339
   69MOL   H17012546   2.141   7.139   3.847  0.7044 -1.4925 -3.0061
   69MOL   H17112547   2.006   7.100   3.960 -1.0099 -1.1489 -0.0920
   69MOL   H17212548   2.132   6.986   3.929 -0.6311  0.3212  2.8473
   69MOL   C17312549   2.275   6.899   3.539 -0.0501  0.3236  0.3753
   69MOL   C17412550   2.227   6.849   3.402 -0.2840 -0.0138  0.5358
   69MOL   C17512551   2.385   6.810   3.602 -0.0947 -0.0055  0.1037
   69MOL   O17612552   2.431   6.713   3.541  0.1529 -0.6333 -0.0274
   69MOL   O17712553   2.426   6.847   3.725  0.0126  0.4322  0.1436
   69MOL   H17812554   2.300   7.005   3.527 -2.1301  0.9785  1.5401
   69MOL   H17912555   2.169   6.757   3.412  0.8746 -0.8135 -0.0699
   69MOL   H18012556   2.161   6.918   3.350  0.2170 -0.5039 -0.7492
   69MOL   H18112557   2.317   6.820   3.349  0.6060  2.6364  0.5299
   69MOL   H18212558   2.376   6.923   3.750 -0.6745 -0.0204  0.1709
   70MOL     C112559   0.178   3.686   0.928 -0.1821 -0.1145 -0.6906
   70MOL     C212560   0.235   3.766   1.044  0.3163 -0.3729  0.5010
   70MOL     C312561   0.097   3.778   0.835 -0.0124  0.0403  0.1197
   70MOL     O412562   0.146   3.835   0.737  0.5428  0.0247  0.6365
   70MOL     O512563   8.132   3.803   0.888  0.2345  0.7750  0.6848
   70MOL     H612564   0.261   3.639   0.875  0.1698  0.8936 -1.0595
   70MOL     H712565   0.159   3.825   1.094  0.9530 -0.2940  1.3926
   70MOL     H812566   0.286   3.701   1.116 -0.4057 -0.2104  1.1644
   70MOL     H912567   0.306   3.837   1.001  0.6127 -1.6331 -1.1811
   70MOL    H1012568   0.105   3.617   0.970 -1.6769  0.9081 -1.5580
   70MOL    C1112569   8.041   3.904   0.843 -0.4008  0.1759  0.2647
   70MOL    C1212570   8.093   4.045   0.883 -0.6334 -0.3307 -0.2025
   70MOL    C1312571   7.906   3.899   0.913 -0.4469  0.3609  0.2543
   70MOL    O1412572   7.796   3.896   0.855 -0.1409 -0.1983 -0.4594
   70MOL    O1512573   7.915   3.893   1.051  0.3663 -0.3343 -0.0229
   70MOL    H1612574   8.025   3.881   0.737  0.1505 -0.2866  0.2804
   70MOL    H1712575   8.102   4.057   0.991 -1.1218 -0.4593 -0.1484
   70MOL    H1812576   0.031   4.065   0.818 -0.5039  0.5296  0.2372
   70MOL    H1912577   8.020   4.118   0.851 -2.6065 -2.6079 -1.0809
   70MOL    C2012578   7.808   3.850   1.141  0.5026  0.2072 -0.0805
   70MOL    C2112579   7.773   3.703   1.103  0.7260  0.3169 -0.6935
   70MOL    C2212580   7.683   3.951   1.134  0.2496 -0.0208 -0.1269
   70MOL    O2312581   7.575   3.907   1.100 -0.3902 -0.0107 -0.1871
   70MOL    O2412582   7.717   4.073   1.169 -0.0435  0.0579 -0.0980
   70MOL    H2512583   7.856   3.853   1.239  0.3397 -1.0680  0.0517
   70MOL    H2612584   7.692   3.664   1.164  2.4006 -1.2607  0.6275
   70MOL    H2712585   7.733   3.701   1.002 -0.6204  0.7639 -0.1682
   70MOL    H2812586   7.857   3.632   1.109  2.2654  2.2426  1.5717
   70MOL    C2912587   7.626   4.183   1.167 -0.4666 -0.1494 -0.1128
   70MOL    C3012588   7.631   4.262   1.038 -0.2186 -0.5001 -0.0522
   70MOL    C3112589   7.666   4.263   1.286  0.2452 -0.7116  0.0959
   70MOL    O3212590   7.780   4.254   1.334 -0.2656 -0.1006  0.8696
   70MOL    O3312591   7.569   4.340   1.322 -0.2305 -0.3157  0.1272
   70MOL    H3412592   7.525   4.148   1.187  0.9759 -3.2858  2.2147
   70MOL    H3512593   7.714   4.333   1.035 -3.1783  3.1540  1.6082
   70MOL    H3612594   7.640   4.197   0.951  0.2666  0.3837 -0.6710
   70MOL    H3712595   7.546   4.328   1.020  0.0096  0.1286  1.1426
   70MOL    C3812596   7.575   4.423   1.436  0.1026  1.0543  0.7173
   70MOL    C3912597   7.426   4.474   1.442 -0.2536 -0.1933 -0.0937
   70MOL    C4012598   7.682   4.535   1.416  0.0879 -0.4295 -0.3664
   70MOL    O4112599   7.756   4.562   1.509  0.2666 -0.1379 -0.7222
   70MOL    O4212600   7.671   4.595   1.295  0.2714  0.5996 -0.6670
   70MOL    H4312601   7.602   4.353   1.515  2.8995 -0.5414 -1.5740
   70MOL    H4412602   7.359   4.388   1.439 -1.5196  0.7750  0.1892
   70MOL    H4512603   7.425   4.522   1.540  2.1654  0.7966 -0.5283
   70MOL    H4612604   7.404   4.556   1.373 -1.0747 -1.4321 -1.3425
   70MOL    C4712605   7.756   4.701   1.255 -1.0962 -0.3915 -0.1501
   70MOL    C4812606   7.695   4.769   1.130  0.6473  0.1476 -0.5523
   70MOL    C4912607   7.902   4.651   1.229 -0.3509 -0.3475 -0.2761
   70MOL    O5012608   8.003   4.716   1.246 -0.0814 -0.6290  0.0777
   70MOL    O5112609   7.905   4.523   1.190 -0.2033  0.2448 -0.5782
   70MOL    H5212610   7.751   4.766   1.343  1.4929 -1.4978  0.8454
   70MOL    H5312611   7.769   4.830   1.080 -0.0047  0.3855 -1.2428
   70MOL    H5412612   7.664   4.699   1.053  0.1111 -0.9632  0.6448
   70MOL    H5512613   7.608   4.833   1.148 -0.8630 -2.0061  0.0865
   70MOL    C5612614   8.028   4.465   1.141 -1.0634  0.1096  0.1562
   70MOL    C5712615   7.986   4.336   1.048  0.8420  0.0208  0.1742
   70MOL    C5812616   8.134   4.426   1.242  0.0919  0.3790  0.3485
   70MOL    O5912617   0.106   4.419   1.204 -0.6634  0.0337 -0.0068
   70MOL    O6012618   8.089   4.417   1.369  0.1550  0.4819 -0.4225
   70MOL    H6112619   8.078   4.536   1.075 -1.3597 -1.7140 -2.0833
   70MOL    H6212620   8.062   4.285   0.989 -0.8762 -2.4028 -0.0363
   70MOL    H6312621   7.936   4.250   1.092  0.1804 -0.0540 -0.7136
   70MOL    H6412622   7.915   4.373   0.974 -0.1070 -0.3949  0.8780
   70MOL    C6512623   0.036   4.390   1.475 -0.7667  0.3851 -0.0036
   70MOL    C6612624   0.130   4.513   1.492  0.2151  0.2376 -0.0861
   70MOL    C6712625   0.101   4.251   1.466 -0.2852 -0.9715  0.1469
   70MOL    O6812626   0.217   4.238   1.502 -0.4952  0.3750  0.6794
   70MOL    O6912627   0.026   4.149   1.426 -0.7654 -0.0196  0.4869
   70MOL    H7012628   8.119   4.387   1.563 -0.2218 -0.9505  0.3526
   70MOL    H7112629   0.085   4.610   1.512 -0.6616 -0.6283  2.3804
   70MOL    H7212630   0.191   4.492   1.581  0.7574  1.6578 -0.1087
   70MOL    H7312631   0.195   4.533   1.407 -0.1634 -1.2562 -0.7445
   70MOL    C7412632   0.073   4.012   1.435  0.3444  0.2026  0.2305
   70MOL    C7512633   8.139   3.937   1.328  0.0397  0.3329 -0.1994
   70MOL    C7612634   0.046   3.952   1.571 -0.3255 -0.4136  0.3593
   70MOL    O7712635   8.133   4.011   1.660 -0.0538 -0.0930 -0.4556
   70MOL    O7812636   0.121   3.838   1.587 -1.0874 -0.2298  0.4040
   70MOL    H7912637   0.176   4.008   1.401 -0.7463  0.6828 -3.3583
   70MOL    H8012638   8.030   3.938   1.333 -0.0147  0.6626 -1.4077
   70MOL    H8112639   0.018   3.989   1.236  0.7615  0.9201  0.3323
   70MOL    H8212640   0.020   3.833   1.313 -0.6859  0.1451 -0.3266
   70MOL    C8312641   0.086   3.750   1.694 -0.0251  0.3589 -0.8381
   70MOL    C8412642   0.200   3.738   1.787  0.1099  0.2921  0.3117
   70MOL    C8512643   0.036   3.616   1.632  0.2841 -0.8131 -0.0705
   70MOL    O8612644   8.086   3.556   1.687 -0.1142  0.0794 -0.1341
   70MOL    O8712645   0.115   3.573   1.533  0.2308  0.3931 -0.3845
   70MOL    H8812646   0.007   3.787   1.759  1.2095 -0.7612  1.3310
   70MOL    H8912647   0.287   3.689   1.745  1.8986  1.9058  2.0164
   70MOL    H9012648   0.226   3.833   1.832  0.1648  0.9796 -1.1557
   70MOL    H9112649   0.165   3.693   1.880  0.1436  1.3372  0.8355
   70MOL    C9212650   0.148   3.438   1.509  0.0919 -0.5238  0.6027
   70MOL    C9312651   0.019   3.349   1.477 -0.4076  0.6739  0.8481
   70MOL    C9412652   0.234   3.377   1.620  0.3372  0.9330  0.2825
   70MOL    O9512653   0.247   3.439   1.726 -0.0930  0.7095  0.0555
   70MOL    O9612654   0.286   3.262   1.597  0.0838 -0.5045 -0.1458
   70MOL    H9712655   0.209   3.437   1.420  1.3405 -0.2743  1.4498
   70MOL    H9812656   0.054   3.249   1.449  2.1952  1.4099  1.3524
   70MOL    H9912657   8.098   3.342   1.561  0.5121  0.6963  1.6037
   70MOL   H10012658   8.111   3.394   1.395  0.1835  1.1229  0.6921
   70MOL   C10112659   0.381   3.204   1.682 -0.1687 -0.4387  0.5265
   70MOL   C10212660   0.445   3.109   1.583 -0.0976  0.3758  0.1560
   70MOL   C10312661   0.301   3.124   1.794  0.1639 -0.2387  0.1683
   70MOL   O10412662   0.318   3.143   1.917  0.0086  0.0174  0.0922
   70MOL   O10512663   0.206   3.058   1.744 -0.0997 -0.3531  0.0954
   70MOL   H10612664   0.462   3.258   1.730 -1.6303  0.9772  1.4599
   70MOL   H10712665   0.485   3.140   1.487  0.9668 -0.6555  0.2612
   70MOL   H10812666   0.527   3.061   1.638 -1.6256  1.3553  3.4457
   70MOL   H10912667   0.372   3.031   1.563  0.1391  0.3412 -0.5672
   70MOL   C11012668   0.100   3.009   1.830 -0.8083 -0.0040 -0.4542
   70MOL   C11112669   0.088   2.860   1.785  0.3723  0.0670  0.0816
   70MOL   C11212670   8.120   3.087   1.818 -0.1741  0.6040 -0.7322
   70MOL   O11312671   8.099   3.180   1.742 -0.0302  0.1018  0.3094
   70MOL   O11412672   8.028   3.040   1.910  0.0510 -0.5951  0.4025
   70MOL   H11512673   0.133   3.000   1.934  1.4536 -1.9723 -1.2960
   70MOL   H11612674   0.005   2.813   1.838 -0.7581  1.3926 -0.4989
   70MOL   H11712675   0.079   2.847   1.677 -1.8980  2.4487 -0.0517
   70MOL   H11812676   0.176   2.800   1.810 -0.4426 -1.4519 -0.6212
   70MOL   C11912677   7.891   3.087   1.899 -0.0791 -0.3795  0.4538
   70MOL   C12012678   7.828   3.085   2.040  0.4421  0.3039  0.5132
   70MOL   C12112679   7.815   3.001   1.800  0.7944  0.3985 -0.7191
   70MOL   O12212680   7.760   3.051   1.701 -0.0026 -0.1508 -0.0152
   70MOL   O12312681   7.824   2.872   1.839  0.5284  0.7260 -0.1407
   70MOL   H12412682   7.885   3.187   1.854 -2.1117 -1.3115 -1.4634
   70MOL   H12512683   7.733   3.139   2.034 -1.7844 -3.3557  1.1886
   70MOL   H12612684   7.818   2.985   2.083  1.8965 -0.9968 -2.0103
   70MOL   H12712685   7.886   3.149   2.105 -1.5231  1.7151  0.9267
   70MOL   C12812686   7.741   2.777   1.774  0.5076 -1.1587 -0.4892
   70MOL   C12912687   7.613   2.778   1.851  0.0989 -0.4019 -0.1071
   70MOL   C13012688   7.802   2.636   1.756 -0.0208 -0.0977 -0.8037
   70MOL   O13112689   7.775   2.548   1.830  0.0092  0.7884 -0.4036
   70MOL   O13212690   7.885   2.627   1.654  0.1758 -0.2903 -0.0880
   70MOL   H13312691   7.719   2.811   1.673 -2.0078  0.1017  0.4219
   70MOL   H13412692   7.566   2.876   1.859  0.2788 -0.2639 -0.7166
   70MOL   H13512693   7.547   2.713   1.794 -0.6262 -0.5360  0.8620
   70MOL   H13612694   7.634   2.737   1.950 -1.2460 -1.6919 -0.3423
   70MOL   C13712695   7.960   2.506   1.623 -0.5516  0.1399 -0.8192
   70MOL   C13812696   8.097   2.542   1.564 -0.0930  0.3943 -0.1961
   70MOL   C13912697   7.881   2.408   1.540 -0.2423 -0.0395  0.8711
   70MOL   O14012698   7.854   2.299   1.593 -0.3224 -0.5207  0.0320
   70MOL   O14112699   7.844   2.452   1.415  0.1376  0.1433 -0.1234
   70MOL   H14212700   7.984   2.451   1.714 -1.0824  1.6499  0.2474
   70MOL   H14312701   0.007   2.605   1.631  0.3062  0.0073 -0.1781
   70MOL   H14412702   8.145   2.444   1.555  1.5752  0.9564  2.1401
   70MOL   H14512703   8.081   2.590   1.467  2.5795  1.0997 -0.3138
   70MOL   C14612704   7.764   2.370   1.334 -0.4114 -0.3045 -0.3976
   70MOL   C14712705   7.851   2.324   1.216  0.5350  0.5742 -0.6124
   70MOL   C14812706   7.641   2.451   1.310  0.2267  0.2717 -0.5078
   70MOL   O14912707   7.601   2.469   1.196 -0.3880  0.2403 -0.3242
   70MOL   O15012708   7.587   2.496   1.427  1.0370 -0.1297 -0.1486
   70MOL   H15112709   7.736   2.283   1.393 -0.9496  0.1760  0.0480
   70MOL   H15212710   7.942   2.279   1.256  0.5074  1.4901  0.5054
   70MOL   H15312711   7.809   2.243   1.158 -1.7233 -0.0907  1.8677
   70MOL   H15412712   7.884   2.410   1.157 -0.3573  0.8056 -0.7719
   70MOL   C15512713   7.464   2.571   1.418  0.6818  1.0543  0.3171
   70MOL   C15612714   7.518   2.706   1.454 -0.0356 -0.0516  0.1667
   70MOL   C15712715   7.371   2.521   1.537  0.1088 -1.0300 -0.1248
   70MOL   O15812716   7.262   2.468   1.521  0.4096 -0.1689 -0.2780
   70MOL   O15912717   7.430   2.529   1.658  0.1531  0.0258 -0.1738
   70MOL   H16012718   7.412   2.563   1.322 -0.3617  0.8271  0.8971
   70MOL   H16112719   7.559   2.711   1.554 -0.5222 -1.5339  0.4501
   70MOL   H16212720   7.597   2.732   1.383  0.3336  0.1432  0.6463
   70MOL   H16312721   7.437   2.778   1.442 -1.5268 -2.1933 -3.5361
   70MOL   C16412722   7.366   2.492   1.779 -0.0190  0.3897  0.5071
   70MOL   C16512723   7.350   2.349   1.793 -0.2518  0.3146 -0.1312
   70MOL   C16612724   7.244   2.583   1.806  0.1665  0.3518 -0.2515
   70MOL   O16712725   7.226   2.690   1.749 -0.5495 -0.3186 -0.1256
   70MOL   O16812726   7.165   2.526   1.901  0.4378 -0.4244 -0.0765
   70MOL   H16912727   7.434   2.526   1.857 -0.3444  2.3819 -0.0484
   70MOL   H17012728   7.444   2.294   1.785 -0.3286  0.1423  0.1308
   70MOL   H17112729   7.320   2.326   1.895  0.5742  2.0454  0.5105
   70MOL   H17212730   7.280   2.302   1.724 -1.1118  1.9995 -0.4436
   70MOL   C17312731   7.040   2.589   1.922  0.1090 -0.0838 -0.4241
   70MOL   C17412732   7.011   2.546   2.060 -0.2300 -1.2231 -0.3049
   70MOL   C17512733   6.938   2.538   1.825 -0.4256 -0.3818 -0.5224
   70MOL   O17612734   6.826   2.498   1.859  0.0480 -0.0184 -0.2810
   70MOL   O17712735   6.979   2.552   1.698 -0.2733 -0.2355 -0.3638
   70MOL   H17812736   7.040   2.697   1.908 -0.3233  0.3654  2.6257
   70MOL   H17912737   7.092   2.576   2.127 -0.9563  1.0703 -0.4297
   70MOL   H18012738   6.923   2.602   2.090  0.6627  0.2956 -0.4692
   70MOL   H18112739   7.000   2.438   2.071  0.9529 -1.1836  1.6191
   70MOL   H18212740   6.914   2.520   1.638  0.5400 -2.4814 -0.0763
   71MOL     C112741   4.918   4.683   3.598 -0.2725 -0.5756 -0.0919
   71MOL     C212742   4.971   4.725   3.736 -0.5704  0.3942 -0.1074
   71MOL     C312743   4.767   4.654   3.615 -0.6364  0.0541  0.0137
   71MOL     O412744   4.712   4.549   3.583 -0.1436  0.0815 -0.2479
   71MOL     O512745   4.699   4.763   3.664 -0.2683 -0.3712  0.7978
   71MOL     H612746   4.937   4.762   3.525 -0.7691 -1.2947 -1.0144
   71MOL     H712747   5.077   4.750   3.743 -0.2920 -1.1607  2.1187
   71MOL     H812748   4.923   4.817   3.770 -2.6238 -0.0480 -1.6807
   71MOL     H912749   4.952   4.639   3.801  0.5202  0.9166  0.9195
   71MOL    H1012750   4.972   4.599   3.554  0.7797 -0.6557  1.3219
   71MOL    C1112751   4.559   4.777   3.675  0.1891 -0.5311 -0.2627
   71MOL    C1212752   4.518   4.922   3.703  0.4209  0.1256 -0.3122
   71MOL    C1312753   4.511   4.687   3.779 -0.6231  0.3460  0.0681
   71MOL    O1412754   4.407   4.621   3.766 -0.0204 -0.2837 -0.3807
   71MOL    O1512755   4.582   4.691   3.890 -0.0531 -0.4881 -0.3462
   71MOL    H1612756   4.521   4.757   3.575  0.9900 -1.0774 -0.4609
   71MOL    H1712757   4.413   4.916   3.730  0.7310 -2.0704  0.4972
   71MOL    H1812758   4.576   4.949   3.791  0.3184  2.4490 -0.9337
   71MOL    H1912759   4.533   4.992   3.621  0.3994  0.3093 -0.1583
   71MOL    C2012760   4.550   4.636   4.020 -0.4525  0.5664  0.6772
   71MOL    C2112761   4.652   4.692   4.121  0.8238 -0.2455  0.2165
   71MOL    C2212762   4.555   4.484   4.006 -0.1688 -0.5035  1.0419
   71MOL    O2312763   4.444   4.425   4.025  0.2766  0.2088 -0.0783
   71MOL    O2412764   4.678   4.435   3.977 -0.1503  0.3495 -0.1789
   71MOL    H2512765   4.446   4.662   4.038 -0.5886 -0.1310  0.9067
   71MOL    H2612766   4.662   4.800   4.123 -1.3558 -0.0317  0.5913
   71MOL    H2712767   4.605   4.668   4.216  1.7947 -1.9077  0.3057
   71MOL    H2812768   4.753   4.649   4.121 -0.5068 -3.4939 -0.2354
   71MOL    C2912769   4.691   4.295   3.963  0.0694  0.2631  0.3986
   71MOL    C3012770   4.833   4.257   4.014 -0.2802  0.1282  0.2082
   71MOL    C3112771   4.678   4.263   3.815 -0.5042  0.0461  0.7820
   71MOL    O3212772   4.774   4.291   3.738 -0.1708 -0.1128 -0.2279
   71MOL    O3312773   4.555   4.208   3.781  0.2908  0.1012 -0.2681
   71MOL    H3412774   4.613   4.246   4.021 -0.4937 -0.5006 -0.9865
   71MOL    H3512775   4.838   4.290   4.118 -2.7471  1.8738 -0.1593
   71MOL    H3612776   4.858   4.151   4.013 -0.3410  0.1297 -1.8060
   71MOL    H3712777   4.913   4.318   3.973 -0.7087  0.5383 -0.0365
   71MOL    C3812778   4.529   4.173   3.642  0.2105  0.2859 -0.0237
   71MOL    C3912779   4.390   4.114   3.636 -0.0514 -0.2857  0.0274
   71MOL    C4012780   4.636   4.076   3.596 -0.3005 -0.2270  0.3998
   71MOL    O4112781   4.698   4.095   3.492 -0.4177  0.0699  0.2572
   71MOL    O4212782   4.648   3.975   3.680 -0.4585 -0.0941 -0.0552
   71MOL    H4312783   4.532   4.267   3.587  3.4408  1.3391  1.7961
   71MOL    H4412784   4.352   4.119   3.533 -1.1927  0.5390  0.4753
   71MOL    H4512785   4.385   4.017   3.684  1.1400  0.3633  1.5058
   71MOL    H4612786   4.314   4.179   3.680 -0.7977  0.5282 -2.3475
   71MOL    C4712787   4.718   3.853   3.656 -0.0707  0.9433 -0.8499
   71MOL    C4812788   4.685   3.777   3.787 -0.1394 -0.3467  0.0188
   71MOL    C4912789   4.873   3.873   3.644  0.8561  0.0282 -0.0855
   71MOL    O5012790   4.935   3.868   3.536  0.5229  0.9604  0.5469
   71MOL    O5112791   4.925   3.911   3.765  0.2954 -0.0247  0.1712
   71MOL    H5212792   4.681   3.805   3.565 -0.1527  0.8452 -0.7644
   71MOL    H5312793   4.701   3.832   3.880  1.6453 -0.6753 -0.0700
   71MOL    H5412794   4.579   3.754   3.775 -1.0540  2.7521  1.6972
   71MOL    H5512795   4.741   3.685   3.770 -0.6091 -0.7922  0.8731
   71MOL    C5612796   5.060   3.946   3.790 -0.5879 -0.2944 -0.5325
   71MOL    C5712797   5.104   3.896   3.935  0.2588 -0.0987  0.3869
   71MOL    C5812798   5.078   4.099   3.789 -0.2940 -0.3442 -0.4679
   71MOL    O5912799   5.100   4.172   3.890 -0.3607 -0.1154 -0.9233
   71MOL    O6012800   5.074   4.150   3.670 -0.3828 -0.6948 -0.1614
   71MOL    H6112801   5.131   3.905   3.719 -0.5930  0.0069 -0.7091
   71MOL    H6212802   5.200   3.943   3.959 -0.6567  0.7281  2.4565
   71MOL    H6312803   5.043   3.933   4.016  0.6234  0.4474  0.4091
   71MOL    H6412804   5.109   3.787   3.944 -1.3262 -0.3722 -1.5560
   71MOL    C6512805   5.114   4.278   3.632 -0.1282 -0.3931 -0.4184
   71MOL    C6612806   5.061   4.314   3.491  0.4461  0.9173 -0.3197
   71MOL    C6712807   5.263   4.298   3.640  0.0725  0.1250 -0.0323
   71MOL    O6812808   5.335   4.214   3.692 -0.7176 -0.4906 -0.1989
   71MOL    O6912809   5.312   4.424   3.600 -0.0233 -0.3385  0.2158
   71MOL    H7012810   5.084   4.353   3.705 -1.0826 -0.5965 -0.6053
   71MOL    H7112811   4.953   4.312   3.482  0.2553  1.4042  1.7643
   71MOL    H7212812   5.110   4.408   3.464  0.7760  1.0952  0.8659
   71MOL    H7312813   5.097   4.243   3.416 -1.1587 -0.7089  0.3998
   71MOL    C7412814   5.452   4.446   3.581  0.3004 -0.5533  0.0265
   71MOL    C7512815   5.466   4.597   3.533 -0.5322  0.2946 -0.3374
   71MOL    C7612816   5.496   4.359   3.462 -0.1288 -0.1921 -0.8522
   71MOL    O7712817   5.420   4.305   3.380 -0.0027 -0.2223  0.4385
   71MOL    O7812818   5.628   4.360   3.448 -0.1870  0.0752  0.4459
   71MOL    H7912819   5.505   4.425   3.674  0.0182 -2.1011 -0.1413
   71MOL    H8012820   5.415   4.654   3.610  0.7545  0.7334  0.2106
   71MOL    H8112821   5.573   4.619   3.529 -0.0579 -1.4298  1.7442
   71MOL    H8212822   5.434   4.607   3.430 -2.1226 -2.2791 -0.1286
   71MOL    C8312823   5.681   4.305   3.332 -0.2477  0.4024 -0.2959
   71MOL    C8412824   5.835   4.295   3.347 -0.0991 -0.1216  0.3218
   71MOL    C8512825   5.645   4.402   3.215  1.0715  0.2115  0.3658
   71MOL    O8612826   5.664   4.527   3.227 -0.5020  0.2735 -0.5381
   71MOL    O8712827   5.610   4.335   3.102 -0.3111 -0.0874 -0.0982
   71MOL    H8812828   5.644   4.205   3.311 -1.2199  0.1199  2.5841
   71MOL    H8912829   5.864   4.228   3.267  0.9523  0.3054  0.3373
   71MOL    H9012830   5.885   4.388   3.320 -1.5040  0.3181 -0.8466
   71MOL    H9112831   5.879   4.265   3.442 -0.1076 -0.7565  0.1299
   71MOL    C9212832   5.593   4.400   2.975  0.2318 -0.1366 -0.5285
   71MOL    C9312833   5.725   4.458   2.919  0.1885 -0.4791  0.1267
   71MOL    C9412834   5.469   4.498   2.974  0.0096  0.5026  0.2294
   71MOL    O9512835   5.463   4.606   2.910 -0.1997 -0.0461 -0.0352
   71MOL    O9612836   5.375   4.442   3.057 -0.2185 -0.3360 -0.0090
   71MOL    H9712837   5.562   4.319   2.909 -1.9874  0.7722 -0.6367
   71MOL    H9812838   5.695   4.500   2.823 -1.7816 -1.5526  0.2385
   71MOL    H9912839   5.777   4.532   2.980 -1.6713  2.5241 -1.7942
   71MOL   H10012840   5.785   4.368   2.910  1.2337  0.3782 -1.8339
   71MOL   C10112841   5.246   4.504   3.073  0.2426  0.4008  0.6625
   71MOL   C10212842   5.222   4.539   3.224  0.0659 -0.4114 -0.3164
   71MOL   C10312843   5.140   4.418   3.005  0.3231 -0.0630 -0.4171
   71MOL   O10412844   5.109   4.442   2.890 -0.0616 -0.5711  0.6721
   71MOL   O10512845   5.099   4.318   3.090 -0.3837  1.1670  0.0127
   71MOL   H10612846   5.235   4.601   3.023  1.5607 -0.3630 -1.1657
   71MOL   H10712847   5.285   4.624   3.251 -0.7230  0.3710 -0.9244
   71MOL   H10812848   5.117   4.563   3.233  0.1582 -0.2621  0.4209
   71MOL   H10912849   5.243   4.460   3.297 -0.6925  1.5184  2.0767
   71MOL   C11012850   5.015   4.212   3.044  0.3397 -0.1116 -0.4889
   71MOL   C11112851   4.967   4.142   3.172  0.2983 -0.8052  0.0158
   71MOL   C11212852   5.090   4.104   2.959 -0.7776 -0.1617 -0.2634
   71MOL   O11312853   5.021   4.040   2.874 -0.6339  0.7589  0.0455
   71MOL   O11412854   5.213   4.078   2.998 -0.2341  0.4348 -0.2620
   71MOL   H11512855   4.949   4.265   2.975 -0.6911 -1.5603 -0.6352
   71MOL   H11612856   5.052   4.088   3.213 -0.3519 -1.5566  0.3921
   71MOL   H11712857   4.921   4.207   3.247  2.6018  0.4793  0.3660
   71MOL   H11812858   4.894   4.068   3.138 -0.7232  0.5710 -0.8757
   71MOL   C11912859   5.294   3.998   2.909  0.3383  0.2547 -0.0138
   71MOL   C12012860   5.418   3.958   2.988  0.1038 -0.7847  0.0821
   71MOL   C12112861   5.336   4.086   2.794  0.0748 -0.2778  0.8064
   71MOL   O12212862   5.450   4.136   2.785  0.2169  1.0810 -0.0291
   71MOL   O12312863   5.235   4.115   2.713 -0.3008 -0.2813 -0.0541
   71MOL   H12412864   5.240   3.912   2.871  0.4214 -0.4275  1.3698
   71MOL   H12512865   5.486   3.914   2.915  0.3579 -0.6119  0.2126
   71MOL   H12612866   5.467   4.048   3.025 -1.6715  0.3969 -0.4209
   71MOL   H12712867   5.404   3.899   3.079 -0.2697 -1.3036 -0.3142
   71MOL   C12812868   5.237   4.217   2.621 -0.1618 -1.0807 -0.6303
   71MOL   C12912869   5.087   4.246   2.598  0.4484 -0.2743 -0.3029
   71MOL   C13012870   5.307   4.170   2.493  0.1911  0.0200  0.1399
   71MOL   O13112871   5.357   4.061   2.477  0.3617 -0.2937 -0.2185
   71MOL   O13212872   5.299   4.265   2.395 -0.3051  0.8082 -0.1328
   71MOL   H13312873   5.297   4.301   2.657 -1.7570 -0.7607  1.3533
   71MOL   H13412874   5.031   4.152   2.600 -1.2928  0.7543 -0.7087
   71MOL   H13512875   5.044   4.298   2.683  1.9699 -0.1707  0.4264
   71MOL   H13612876   5.064   4.302   2.508  1.2389 -0.2342 -0.4881
   71MOL   C13712877   5.363   4.238   2.269  0.6681 -0.2616  0.0119
   71MOL   C13812878   5.446   4.356   2.229  0.6683  0.5907 -0.7341
   71MOL   C13912879   5.273   4.199   2.152 -0.1744 -0.1979  0.2409
   71MOL   O14012880   5.287   4.243   2.040 -0.4628  0.0904 -0.0992
   71MOL   O14112881   5.174   4.118   2.195  0.1218 -0.4743  0.0934
   71MOL   H14212882   5.440   4.162   2.281  0.6191 -0.1727  0.9066
   71MOL   H14312883   5.492   4.353   2.131  0.8760  1.5314 -0.6740
   71MOL   H14412884   5.380   4.443   2.231  0.3399  0.3470 -0.8248
   71MOL   H14512885   5.528   4.371   2.298  0.5673 -2.4829  0.0987
   71MOL   C14612886   5.063   4.105   2.113 -0.3274  0.1033  0.1350
   71MOL   C14712887   4.943   4.175   2.180  0.1709 -0.0939 -0.0533
   71MOL   C14812888   5.041   3.959   2.094  0.0714  0.2442  0.6696
   71MOL   O14912889   4.928   3.912   2.081 -0.3848  0.0385  0.2227
   71MOL   O15012890   5.153   3.882   2.082  0.2427  0.3460 -0.5873
   71MOL   H15112891   5.071   4.151   2.015 -1.7310  1.4480  0.6300
   71MOL   H15212892   4.979   4.273   2.211  1.1792  0.3052 -2.4330
   71MOL   H15312893   4.875   4.179   2.095 -2.9034  2.8177  2.3542
   71MOL   H15412894   4.893   4.109   2.252  2.1941 -1.2837  0.2856
   71MOL   C15512895   5.152   3.740   2.080  0.8357  0.0620  0.9795
   71MOL   C15612896   5.290   3.682   2.088  1.1577 -0.1944 -0.3839
   71MOL   C15712897   5.071   3.676   1.967  0.7257 -0.3329  0.4010
   71MOL   O15812898   4.972   3.610   1.993 -0.0853  0.2981 -0.7087
   71MOL   O15912899   5.120   3.694   1.842  0.5284  0.5861  0.0607
   71MOL   H16012900   5.111   3.718   2.178  0.2079  0.2465  0.7646
   71MOL   H16112901   5.345   3.720   2.002 -0.3174  2.2469 -0.2904
   71MOL   H16212902   5.350   3.719   2.170  1.4398 -1.4303 -0.0155
   71MOL   H16312903   5.284   3.573   2.093 -0.6052 -0.0512  0.9634
   71MOL   C16412904   5.093   3.609   1.734  0.5482 -0.2417 -0.8103
   71MOL   C16512905   5.214   3.517   1.700 -0.3899 -0.5181  0.3890
   71MOL   C16612906   5.058   3.705   1.620 -0.3410  0.4308  0.7725
   71MOL   O16712907   5.142   3.741   1.538 -0.3223 -1.1389  0.1385
   71MOL   O16812908   4.929   3.748   1.618  0.0050 -0.0384  0.0854
   71MOL   H16912909   5.004   3.547   1.743 -0.0853  0.7263 -0.2681
   71MOL   H17012910   5.300   3.567   1.657  0.2431 -1.6299  0.3513
   71MOL   H17112911   5.254   3.457   1.781 -2.0682 -0.9630  0.9176
   71MOL   H17212912   5.180   3.452   1.619 -1.3589 -1.5763  1.6222
   71MOL   C17312913   4.884   3.845   1.521  0.3375 -0.8653  0.3988
   71MOL   C17412914   4.760   3.917   1.581 -0.0986 -1.2451 -0.0858
   71MOL   C17512915   4.850   3.778   1.386  0.0261  0.3818 -0.2283
   71MOL   O17612916   4.880   3.837   1.284 -0.3541  0.0819 -0.1049
   71MOL   O17712917   4.763   3.681   1.400  0.1074  0.3075 -0.1443
   71MOL   H17812918   4.970   3.911   1.513  1.1431 -1.8396  0.9654
   71MOL   H17912919   4.785   3.977   1.669  0.8089  1.4445 -2.1108
   71MOL   H18012920   4.716   3.983   1.507  1.9091  0.2220 -0.0343
   71MOL   H18112921   4.684   3.842   1.603  1.3484 -2.9296 -0.7286
   71MOL   H18212922   4.758   3.674   1.494  1.7164 -0.9110 -0.1198
   72MOL     C112923   0.772   3.005   0.859  0.1066 -0.4850  0.0905
   72MOL     C212924   0.721   3.145   0.836  0.9288 -0.5661  0.6315
   72MOL     C312925   0.913   3.005   0.927  1.0264  0.4087 -0.0901
   72MOL     O412926   0.958   3.100   0.981  0.5304 -0.4050  0.4820
   72MOL     O512927   0.971   2.883   0.913 -0.0497 -0.0285 -0.5474
   72MOL     H612928   0.701   2.953   0.924 -0.5037 -0.3898 -0.4953
   72MOL     H712929   0.627   3.156   0.782  1.8540 -0.5085 -0.9907
   72MOL     H812930   0.709   3.193   0.933 -0.0307  3.9332 -1.5742
   72MOL     H912931   0.793   3.204   0.780  1.4797 -0.8514  1.0316
   72MOL    H1012932   0.791   2.954   0.765  1.4121  1.3980 -0.6922
   72MOL    C1112933   1.106   2.863   0.945  0.2655  0.3119 -0.3703
   72MOL    C1212934   1.132   2.726   0.878 -0.1255  0.6129 -0.0146
   72MOL    C1312935   1.117   2.852   1.093 -0.2818  0.2618 -0.5170
   72MOL    O1412936   1.095   2.756   1.158  0.0706  0.7004  0.4707
   72MOL    O1512937   1.166   2.973   1.142 -0.2778  0.1076 -0.5886
   72MOL    H1612938   1.157   2.955   0.917  0.3493  0.9818  1.8537
   72MOL    H1712939   1.090   2.727   0.777  0.4121 -1.8014 -0.2939
   72MOL    H1812940   1.235   2.697   0.858 -0.2930  0.1223 -0.1897
   72MOL    H1912941   1.091   2.647   0.941 -0.5769 -0.0401 -1.0995
   72MOL    C2012942   1.204   2.994   1.283 -0.3066 -0.6953  0.4459
   72MOL    C2112943   1.241   3.143   1.293 -0.2517 -0.0984  0.4132
   72MOL    C2212944   1.320   2.899   1.330 -1.5332 -0.6016  0.6180
   72MOL    O2312945   1.396   2.836   1.253 -0.4752 -0.5595  0.4807
   72MOL    O2412946   1.338   2.910   1.468  0.1814 -0.2153  0.3984
   72MOL    H2512947   1.123   2.964   1.350 -0.2988  0.2505  0.8806
   72MOL    H2612948   1.153   3.206   1.307  1.4706  2.5900 -0.5279
   72MOL    H2712949   1.291   3.174   1.385 -1.1569  0.6132  0.6702
   72MOL    H2812950   1.287   3.182   1.202  1.0951 -2.4997  0.0286
   72MOL    C2912951   1.453   2.851   1.523 -0.4609  0.0128 -0.1703
   72MOL    C3012952   1.419   2.807   1.673 -0.5047  0.3913 -0.0225
   72MOL    C3112953   1.566   2.948   1.528 -0.1716  0.4779  0.5512
   72MOL    O3212954   1.555   3.068   1.504 -0.1388  0.0984  0.4637
   72MOL    O3312955   1.677   2.885   1.577 -0.6797  0.7960  0.1338
   72MOL    H3412956   1.484   2.767   1.462 -0.5790  0.4322 -0.8048
   72MOL    H3512957   1.337   2.735   1.669 -0.3466  0.0940  1.8398
   72MOL    H3612958   1.492   2.762   1.740  0.5859 -0.8869 -2.0179
   72MOL    H3712959   1.371   2.888   1.729 -0.9615 -1.1449  1.8416
   72MOL    C3812960   1.801   2.957   1.584 -0.4751 -0.3025  0.2528
   72MOL    C3912961   1.915   2.865   1.528  0.2007  0.4764  0.5117
   72MOL    C4012962   1.827   2.989   1.729 -0.2568 -0.7495 -0.2792
   72MOL    O4112963   1.936   2.960   1.786 -0.5022  0.2466 -0.2216
   72MOL    O4212964   1.730   3.057   1.791 -0.2491 -0.0252  0.3483
   72MOL    H4312965   1.792   3.055   1.537  2.0681  0.7004  1.7125
   72MOL    H4412966   1.923   2.773   1.585 -1.6830  0.9407  1.5579
   72MOL    H4512967   1.887   2.849   1.424 -0.8113  1.8277  0.5587
   72MOL    H4612968   2.012   2.916   1.529 -0.1796  1.2343 -0.3216
   72MOL    C4712969   1.741   3.098   1.931  1.0586 -0.3804 -0.3082
   72MOL    C4812970   1.611   3.156   1.977 -0.3779  0.1201  0.1414
   72MOL    C4912971   1.861   3.187   1.947 -0.2755  0.2253  0.1052
   72MOL    O5012972   1.890   3.268   1.851  0.0980  0.3192 -0.4463
   72MOL    O5112973   1.914   3.167   2.069  0.0652 -0.0288  0.3753
   72MOL    H5212974   1.755   3.009   1.993 -1.4689  0.3971  1.4919
   72MOL    H5312975   1.592   3.238   1.909  0.0804  0.6806  0.6827
   72MOL    H5412976   1.537   3.077   1.969  1.5823 -2.0972  2.7903
   72MOL    H5512977   1.620   3.191   2.080  0.2187  0.4307 -0.0131
   72MOL    C5612978   2.025   3.250   2.106  0.3025 -0.3476 -0.0059
   72MOL    C5712979   2.157   3.167   2.103 -0.5406 -0.2854  0.4071
   72MOL    C5812980   1.999   3.306   2.245 -0.5826 -0.6874  0.1236
   72MOL    O5912981   2.097   3.322   2.322  0.6414  0.2992  0.4596
   72MOL    O6012982   1.871   3.318   2.278  0.2813 -0.0593 -0.4800
   72MOL    H6112983   2.035   3.329   2.031  0.1501 -1.5566 -1.2982
   72MOL    H6212984   2.244   3.208   2.155  0.2191 -0.1196 -0.9726
   72MOL    H6312985   2.139   3.084   2.171 -1.2776  1.5740  2.5529
   72MOL    H6412986   2.185   3.120   2.009  2.6154 -1.7665  1.9940
   72MOL    C6512987   1.823   3.339   2.409 -0.2410 -0.2136  0.2003
   72MOL    C6612988   1.677   3.296   2.405 -0.0678  0.5490 -0.1282
   72MOL    C6712989   1.831   3.489   2.446 -0.2878  0.2942 -0.3178
   72MOL    O6812990   1.896   3.569   2.382 -0.1647  0.4133 -0.2618
   72MOL    O6912991   1.764   3.514   2.568 -0.3135 -0.4221 -0.8521
   72MOL    H7012992   1.883   3.288   2.484  2.3384  2.1836 -0.1294
   72MOL    H7112993   1.644   3.268   2.505 -0.1893 -0.8421 -0.5564
   72MOL    H7212994   1.611   3.375   2.367  1.0044  2.5425  1.9879
   72MOL    H7312995   1.665   3.220   2.328  1.5542  2.3016 -2.1630
   72MOL    C7412996   1.744   3.650   2.607  0.0381 -0.0112 -0.2817
   72MOL    C7512997   1.687   3.664   2.755  0.0929 -0.4503  0.1952
   72MOL    C7612998   1.655   3.720   2.502  0.0428 -0.4240 -0.4999
   72MOL    O7712999   1.693   3.817   2.429  0.2988 -0.5528 -0.2464
   72MOL    O7813000   1.536   3.657   2.491  0.3158 -0.0317 -0.4462
   72MOL    H7913001   1.837   3.707   2.604 -0.5237  0.9395  0.0957
   72MOL    H8013002   1.669   3.770   2.776  2.4301 -0.2811  1.4735
   72MOL    H8113003   1.589   3.617   2.749  0.7955 -1.9711  0.5215
   72MOL    H8213004   1.751   3.610   2.825 -0.6742 -0.7746  0.6567
   72MOL    C8313005   1.427   3.707   2.411  0.2924  0.1635  0.0389
   72MOL    C8413006   1.322   3.593   2.414  0.0967 -0.3862  1.0344
   72MOL    C8513007   1.456   3.730   2.263  0.1072  0.1318  0.2593
   72MOL    O8613008   1.410   3.828   2.201  0.2945  0.1126 -0.0883
   72MOL    O8713009   1.537   3.644   2.210  1.4045 -0.0819  0.2978
   72MOL    H8813010   1.401   3.802   2.458  2.5201  0.3513  0.9824
   72MOL    H8913011   1.363   3.500   2.374  1.0506  1.8544 -3.5379
   72MOL    H9013012   1.286   3.566   2.513 -0.2980 -0.9453  0.7459
   72MOL    H9113013   1.240   3.604   2.342 -0.0177 -0.4462  1.1548
   72MOL    C9213014   1.578   3.652   2.075 -0.3554 -0.4760 -1.1461
   72MOL    C9313015   1.626   3.512   2.041  0.2898 -1.0827  0.1383
   72MOL    C9413016   1.689   3.759   2.069 -0.5412 -0.6642  0.1976
   72MOL    O9513017   1.688   3.845   1.984 -0.8387  0.5277 -0.4734
   72MOL    O9613018   1.799   3.742   2.152  0.5147 -0.0465  0.3923
   72MOL    H9713019   1.497   3.676   2.007  0.8482  3.4366 -1.3505
   72MOL    H9813020   1.714   3.475   2.093 -0.0823  1.5060  2.7523
   72MOL    H9913021   1.555   3.443   2.087 -0.0490 -0.7697  0.0945
   72MOL   H10013022   1.633   3.504   1.933 -1.4127  2.7466 -0.3471
   72MOL   C10113023   1.919   3.816   2.152  0.0729 -0.5627  0.2184
   72MOL   C10213024   1.903   3.960   2.212 -0.8556  0.5920 -1.1066
   72MOL   C10313025   1.992   3.815   2.019 -0.0158 -0.8413  0.3023
   72MOL   O10413026   2.066   3.913   1.993  0.0097 -0.3453  0.3570
   72MOL   O10513027   1.971   3.708   1.940 -0.0416 -0.0394 -0.1415
   72MOL   H10613028   1.991   3.773   2.222  1.8817  0.8965 -0.7072
   72MOL   H10713029   1.995   4.018   2.210 -1.3448  1.3642 -1.5212
   72MOL   H10813030   1.817   4.014   2.172 -0.6215  1.7503 -0.0843
   72MOL   H10913031   1.870   3.949   2.315  1.1838  1.2714 -0.3687
   72MOL   C11013032   2.031   3.698   1.811  0.4295 -0.6010 -0.3644
   72MOL   C11113033   1.953   3.602   1.724  0.3339  0.1249 -0.5457
   72MOL   C11213034   2.180   3.666   1.828  0.2344 -1.0704  0.8690
   72MOL   O11313035   2.225   3.569   1.889 -0.0129  0.1827 -0.3262
   72MOL   O11413036   2.263   3.764   1.774 -0.9308  0.2750  0.3464
   72MOL   H11513037   2.023   3.796   1.764 -0.0757  0.2619  1.4755
   72MOL   H11613038   1.858   3.643   1.691  0.1536 -1.4887 -2.0920
   72MOL   H11713039   2.020   3.566   1.645 -0.3257 -1.2828 -0.4774
   72MOL   H11813040   1.934   3.513   1.783  2.9661  0.2850  0.6173
   72MOL   C11913041   2.402   3.746   1.794 -0.2897  0.7907  0.4500
   72MOL   C12013042   2.474   3.885   1.789  0.2283  0.5483 -0.6118
   72MOL   C12113043   2.467   3.640   1.700 -0.1282 -0.8622 -0.2069
   72MOL   O12213044   2.587   3.625   1.694  0.4362  0.6635 -0.2627
   72MOL   O12313045   2.382   3.562   1.632  0.4707 -0.0094  0.0374
   72MOL   H12413046   2.419   3.709   1.896 -1.2219  3.4403  1.6210
   72MOL   H12513047   2.431   3.947   1.867  0.0730 -1.8091  1.2486
   72MOL   H12613048   2.582   3.872   1.791  0.0157 -1.1622  0.5494
   72MOL   H12713049   2.455   3.930   1.691  1.4489  0.9328 -0.6794
   72MOL   C12813050   2.426   3.439   1.577 -0.4016 -0.0106  1.1638
   72MOL   C12913051   2.457   3.460   1.430 -0.3052 -0.2320  0.0421
   72MOL   C13013052   2.315   3.329   1.596  0.1405  0.1404 -0.5915
   72MOL   O13113053   2.327   3.239   1.683 -0.5986 -0.1305 -0.6003
   72MOL   O13213054   2.208   3.352   1.522 -0.3637 -0.5297 -0.1876
   72MOL   H13313055   2.518   3.402   1.623 -0.4718 -0.1930  1.1597
   72MOL   H13413056   2.544   3.403   1.396 -0.3706 -0.2235 -0.1373
   72MOL   H13513057   2.376   3.440   1.360  1.2092 -2.8363 -1.0127
   72MOL   H13613058   2.486   3.564   1.421  0.9994 -0.3479  2.4751
   72MOL   C13713059   2.089   3.277   1.522 -0.3721  0.2811 -0.9728
   72MOL   C13813060   2.115   3.171   1.414 -0.0847 -0.6431 -0.1728
   72MOL   C13913061   1.971   3.365   1.477 -0.2583 -0.0459 -0.5947
   72MOL   O14013062   1.983   3.445   1.388 -0.2212  0.2329 -0.0776
   72MOL   O14113063   1.858   3.335   1.540 -0.0103 -0.3706 -0.1739
   72MOL   H14213064   2.074   3.223   1.615 -0.4681  0.0792 -1.1035
   72MOL   H14313065   2.026   3.140   1.360  0.2753 -1.0934 -0.5100
   72MOL   H14413066   2.178   3.207   1.332  1.5997 -2.0278  0.4687
   72MOL   H14513067   2.160   3.085   1.462 -0.5502  0.3499  2.1324
   72MOL   C14613068   1.731   3.393   1.518  0.7587  0.0810  0.6864
   72MOL   C14713069   1.638   3.376   1.644  0.3542 -0.5013  0.8251
   72MOL   C14813070   1.663   3.343   1.392 -0.1084 -0.1176  0.1581
   72MOL   O14913071   1.555   3.391   1.357 -0.1843  0.0181 -0.3337
   72MOL   O15013072   1.723   3.243   1.333 -0.6981 -0.5331 -0.2226
   72MOL   H15113073   1.742   3.501   1.503 -0.9906  0.0813 -0.7467
   72MOL   H15213074   1.533   3.403   1.636  0.0210 -2.3584 -1.3134
   72MOL   H15313075   1.632   3.272   1.674 -1.5824 -0.7041 -0.1875
   72MOL   H15413076   1.678   3.431   1.729 -0.2001  1.6547 -0.2618
   72MOL   C15513077   1.682   3.185   1.204 -0.0557 -0.4484  0.2847
   72MOL   C15613078   1.757   3.051   1.197  0.4981 -0.0644 -1.2772
   72MOL   C15713079   1.720   3.276   1.087  0.4678 -0.0995  0.1920
   72MOL   O15813080   1.638   3.285   0.996  0.4341 -0.9446 -0.2241
   72MOL   O15913081   1.841   3.335   1.099  0.2624  0.2958  0.1428
   72MOL   H16013082   1.576   3.159   1.205 -0.0140 -0.5929  2.7967
   72MOL   H16113083   1.736   3.000   1.291 -0.4561  2.8997  0.1977
   72MOL   H16213084   1.723   2.986   1.117 -0.2202 -1.6865  0.3061
   72MOL   H16313085   1.864   3.063   1.179  0.4316  0.7103 -1.1963
   72MOL   C16413086   1.875   3.457   1.030  0.0021  0.7391  0.1015
   72MOL   C16513087   2.017   3.498   1.083 -0.3647 -0.2979 -0.4752
   72MOL   C16613088   1.764   3.562   1.058 -0.0088  0.1606  0.3010
   72MOL   O16713089   1.759   3.612   1.169 -0.4225  0.4167 -0.3615
   72MOL   O16813090   1.687   3.600   0.947 -0.2830  0.2105  0.2352
   72MOL   H16913091   1.882   3.447   0.922  0.2661  1.1613  0.0780
   72MOL   H17013092   2.012   3.542   1.182 -2.0310 -2.0859  0.2781
   72MOL   H17113093   2.067   3.403   1.105 -0.7302  0.2133  2.7736
   72MOL   H17213094   2.085   3.550   1.016  0.1587 -0.5315 -0.1274
   72MOL   C17313095   1.598   3.709   0.965 -0.1949  0.2338 -0.0895
   72MOL   C17413096   1.521   3.732   0.843 -0.1717  0.5116 -0.0871
   72MOL   C17513097   1.661   3.842   1.021  0.6562  0.0269  0.5085
   72MOL   O17613098   1.607   3.897   1.112  0.2756 -0.1838 -0.5801
   72MOL   O17713099   1.765   3.892   0.951  0.1207 -0.3255 -0.0571
   72MOL   H17813100   1.520   3.673   1.033  2.5151 -0.7993  2.5953
   72MOL   H17913101   1.579   3.775   0.761 -1.3707  1.1637 -0.6061
   72MOL   H18013102   1.472   3.646   0.798  2.5488  0.0269 -2.2488
   72MOL   H18113103   1.454   3.815   0.868 -1.7254 -0.7538  0.0036
   72MOL   H18213104   1.803   3.967   0.995 -0.3881  0.6574 -1.2677
   73MOL     C113105   5.657   6.251   2.826  0.2140  0.9880  0.6345
   73MOL     C213106   5.519   6.213   2.877 -0.0320  0.0861  0.0485
   73MOL     C313107   5.748   6.259   2.948  0.0988 -0.2375  0.5814
   73MOL     O413108   5.804   6.365   2.972 -0.5360 -0.0397  0.0822
   73MOL     O513109   5.756   6.141   3.013 -0.3486  0.4675 -0.4646
   73MOL     H613110   5.702   6.172   2.767  2.3995  1.6654  1.3340
   73MOL     H713111   5.523   6.122   2.937  2.4093  1.5747  2.2688
   73MOL     H813112   5.484   6.295   2.941 -0.3671 -0.0881  0.0896
   73MOL     H913113   5.446   6.209   2.796 -0.5799 -0.5718  0.5769
   73MOL    H1013114   5.650   6.342   2.765 -0.2613  0.5957  0.0936
   73MOL    C1113115   5.805   6.124   3.146  0.0761  0.4954  0.0266
   73MOL    C1213116   5.925   6.032   3.159 -0.0398  0.0708  0.0748
   73MOL    C1313117   5.686   6.069   3.235 -0.3336 -0.0564 -0.3547
   73MOL    O1413118   5.713   5.998   3.334  0.5798 -0.1733 -0.1837
   73MOL    O1513119   5.565   6.106   3.197 -0.5704 -0.0990  0.0649
   73MOL    H1613120   5.834   6.222   3.184 -1.4117  1.1183 -0.4146
   73MOL    H1713121   5.973   6.058   3.254 -1.0388  0.7412  0.4026
   73MOL    H1813122   5.908   5.925   3.155 -1.4800  0.2899  0.2765
   73MOL    H1913123   5.986   6.046   3.069 -0.6786  2.2543 -0.0375
   73MOL    C2013124   5.446   6.042   3.244 -0.5056 -0.6100  0.1518
   73MOL    C2113125   5.330   6.088   3.161 -0.6247 -0.2222 -0.1743
   73MOL    C2213126   5.427   6.072   3.389 -0.4542  0.1880 -0.1594
   73MOL    O2313127   5.484   6.160   3.451  0.0934 -0.0579  0.7106
   73MOL    O2413128   5.336   5.994   3.439  0.0504  0.2919 -0.6898
   73MOL    H2513129   5.460   5.935   3.225  0.5885 -0.4205 -0.1768
   73MOL    H2613130   5.340   6.173   3.093 -1.9006  0.0887  0.0203
   73MOL    H2713131   5.293   6.005   3.101 -2.7601 -0.0062  0.8030
   73MOL    H2813132   5.245   6.121   3.221  0.9050  1.3381  1.1836
   73MOL    C2913133   5.313   5.989   3.576  0.2465 -0.1604 -0.4173
   73MOL    C3013134   5.303   5.837   3.607 -0.3863 -0.4816  0.1656
   73MOL    C3113135   5.182   6.061   3.601 -0.0568  0.3808  0.4151
   73MOL    O3213136   5.081   6.002   3.643  0.3802  0.4208 -0.5114
   73MOL    O3313137   5.190   6.190   3.566 -0.6023  0.0106  0.4156
   73MOL    H3413138   5.381   6.028   3.652  1.4296 -1.6945 -0.6478
   73MOL    H3513139   5.208   5.794   3.575 -1.2455  0.8554  0.8659
   73MOL    H3613140   5.374   5.777   3.550 -0.6041  0.0395 -0.6621
   73MOL    H3713141   5.310   5.815   3.713 -0.0147  0.2771  0.3038
   73MOL    C3813142   5.084   6.274   3.526  0.1429  0.0692 -0.1058
   73MOL    C3913143   5.132   6.392   3.445 -0.1895  0.2169 -0.1888
   73MOL    C4013144   4.998   6.306   3.656  0.2893 -0.0093 -0.1899
   73MOL    O4113145   4.881   6.277   3.668 -0.1501  0.7816  0.4456
   73MOL    O4213146   5.062   6.375   3.745  0.3286  0.4401 -0.3389
   73MOL    H4313147   5.019   6.221   3.455 -1.9870  0.5627  1.4162
   73MOL    H4413148   5.167   6.349   3.351  1.8081  0.2012  0.5367
   73MOL    H4513149   5.045   6.452   3.420  1.0010  0.9909 -2.6649
   73MOL    H4613150   5.221   6.444   3.481  0.8467  0.3663 -2.8959
   73MOL    C4713151   5.005   6.389   3.881  0.5008 -0.1901 -0.4238
   73MOL    C4813152   5.073   6.507   3.953 -0.3592 -0.1855 -0.3064
   73MOL    C4913153   5.019   6.261   3.961 -0.4852  0.2843  0.3774
   73MOL    O5013154   5.116   6.188   3.957  0.3177  0.3286  0.1543
   73MOL    O5113155   4.906   6.230   4.034 -0.2671  0.7918 -1.0164
   73MOL    H5213156   4.900   6.418   3.877  0.5828  0.5735  2.2589
   73MOL    H5313157   5.041   6.526   4.056  2.2685 -0.7326  0.6405
   73MOL    H5413158   5.181   6.504   3.962 -0.3516  1.1926  0.1756
   73MOL    H5513159   5.052   6.591   3.887 -2.2613 -1.0414 -0.8195
   73MOL    C5613160   4.882   6.108   4.108  0.3536  0.3149 -0.1572
   73MOL    C5713161   4.847   5.993   4.013 -0.0840  0.3880 -0.1760
   73MOL    C5813162   4.777   6.137   4.213 -0.6325  0.1834  0.9922
   73MOL    O5913163   4.678   6.065   4.215  0.0258  0.2448 -0.5994
   73MOL    O6013164   4.811   6.242   4.292  0.0957  0.5012 -0.0715
   73MOL    H6113165   4.974   6.081   4.159 -0.1661 -1.0268  0.0995
   73MOL    H6213166   4.813   5.908   4.072  0.2245 -0.0294 -0.5968
   73MOL    H6313167   4.760   6.016   3.951 -0.8706 -0.3823  0.6309
   73MOL    H6413168   4.927   5.974   3.942  0.8670  1.9953  0.4533
   73MOL    C6513169   4.715   6.265   4.397 -0.0731 -0.5892  0.2002
   73MOL    C6613170   4.640   6.394   4.377 -0.7539  0.0723  0.0061
   73MOL    C6713171   4.786   6.269   4.532  1.4132 -0.1681 -0.5071
   73MOL    O6813172   4.893   6.326   4.547 -0.4485  0.8363 -0.4625
   73MOL    O6913173   4.720   6.204   4.631  0.9056  0.2274  0.2638
   73MOL    H7013174   4.641   6.186   4.411  1.2466 -1.8148  0.3312
   73MOL    H7113175   4.560   6.384   4.303 -2.0962  3.3643  0.9031
   73MOL    H7213176   4.605   6.444   4.467  1.1398  0.4981  0.5323
   73MOL    H7313177   4.712   6.468   4.341 -0.6887 -0.4804 -1.0230
   73MOL    C7413178   4.775   6.178   4.764 -0.4892  0.7032 -0.3724
   73MOL    C7513179   4.693   6.069   4.829 -0.9388 -0.2161 -0.1359
   73MOL    C7613180   4.772   6.295   4.860 -0.1442  0.6101 -0.4683
   73MOL    O7713181   4.868   6.312   4.934  0.7386 -0.1089 -0.1272
   73MOL    O7813182   4.663   6.379   4.843  0.2412  0.2159 -0.3870
   73MOL    H7913183   4.877   6.140   4.755 -1.2443 -1.1381 -1.5201
   73MOL    H8013184   4.733   6.024   4.920  1.4164  0.8803 -0.5776
   73MOL    H8113185   4.591   6.104   4.844 -0.3395  0.5846  2.3039
   73MOL    H8213186   4.684   5.986   4.759  2.4975 -0.2005 -0.7017
   73MOL    C8313187   4.657   6.502   4.914  0.4273  0.3717 -0.5211
   73MOL    C8413188   4.514   6.561   4.931 -0.2425  0.0533  0.3159
   73MOL    C8513189   4.756   6.600   4.848  0.4054  0.0365 -0.7609
   73MOL    O8613190   4.819   6.570   4.748  0.0727  0.0181  0.1093
   73MOL    O8713191   4.759   6.717   4.915  0.1109  0.4023  0.5220
   73MOL    H8813192   4.684   6.474   5.016  1.6333 -1.9589 -1.4400
   73MOL    H8913193   4.459   6.559   4.838  0.9232  3.1592 -0.4918
   73MOL    H9013194   4.450   6.509   5.003 -0.0587  1.0045  1.1826
   73MOL    H9113195   4.517   6.664   4.964 -0.7453 -0.0738  0.7784
   73MOL    C9213196   4.829   6.827   4.849  1.0063  0.4966  0.1528
   73MOL    C9313197   4.874   6.923   4.955  0.4194 -0.0981  0.7046
   73MOL    C9413198   4.738   6.892   4.735  0.9181 -0.0903 -0.0147
   73MOL    O9513199   4.621   6.851   4.719 -0.2853 -0.3575 -0.3374
   73MOL    O9613200   4.804   6.986   4.674 -0.1388 -0.2860  0.1563
   73MOL    H9713201   4.918   6.793   4.796 -0.0796 -1.8134 -0.2621
   73MOL    H9813202   4.814   6.926   5.046  0.9084 -0.5521  1.0432
   73MOL    H9913203   4.977   6.922   4.989  0.3552  0.3334  0.9162
   73MOL   H10013204   4.859   7.026   4.921 -1.6186  0.0715  1.9903
   73MOL   C10113205   4.743   7.065   4.570  0.1005  0.1363  0.1068
   73MOL   C10213206   4.860   7.136   4.489 -0.2389 -0.4461 -0.5476
   73MOL   C10313207   4.651   7.171   4.629  0.1129  0.3512 -0.2338
   73MOL   O10413208   4.664   7.215   4.745 -0.8378  0.4019 -0.6857
   73MOL   O10513209   4.573   7.224   4.541 -0.4442  0.2229  0.0794
   73MOL   H10613210   4.687   7.018   4.489  2.7436 -0.8054 -1.2259
   73MOL   H10713211   4.925   7.060   4.446  0.7064 -1.2443  2.1546
   73MOL   H10813212   4.820   7.202   4.413 -0.8850 -1.0378 -0.7273
   73MOL   H10913213   4.921   7.198   4.555 -0.9786 -0.1565 -0.1301
   73MOL   C11013214   4.488   7.330   4.559 -0.2702  0.5490  0.4547
   73MOL   C11113215   4.363   7.306   4.467  0.0007 -0.7565  0.1028
   73MOL   C11213216   4.554   7.469   4.522  0.1961  0.6172  0.4183
   73MOL   O11313217   4.669   7.469   4.479  0.2635 -0.0672  0.4032
   73MOL   O11413218   4.480   7.571   4.571  1.0404  0.2239  0.2524
   73MOL   H11513219   4.445   7.339   4.658  2.8394  0.8414  1.8590
   73MOL   H11613220   4.287   7.384   4.474  1.3157  0.4828  0.8955
   73MOL   H11713221   4.379   7.298   4.360  2.3490  0.1212  0.3691
   73MOL   H11813222   4.322   7.210   4.499 -1.0759 -0.1094  0.7136
   73MOL   C11913223   4.535   7.704   4.581 -0.3708 -0.0018 -0.2809
   73MOL   C12013224   4.472   7.792   4.692 -0.0904 -0.2292 -0.1288
   73MOL   C12113225   4.511   7.771   4.445  0.1099  0.3382 -0.3768
   73MOL   O12213226   4.424   7.743   4.362 -0.0277 -0.5466 -0.2464
   73MOL   O12313227   4.610   7.858   4.429 -0.6762  0.1589  0.1481
   73MOL   H12413228   4.643   7.687   4.588 -0.8613 -3.8888 -1.0097
   73MOL   H12513229   4.534   7.876   4.723 -2.4865  2.0826 -1.3696
   73MOL   H12613230   4.372   7.831   4.673 -0.4980 -0.0020  2.3575
   73MOL   H12713231   4.451   7.728   4.778  0.8251 -0.2335  0.0958
   73MOL   C12813232   4.611   7.939   4.309  0.7559  0.0215  0.0761
   73MOL   C12913233   4.755   7.974   4.282  0.5209  0.2798  0.3097
   73MOL   C13013234   4.516   8.061   4.319 -0.3497 -0.2510 -0.4190
   73MOL   O13113235   4.442   8.091   4.230  0.2054  0.0416 -0.0942
   73MOL   O13213236   4.544   8.139   4.430 -0.0025 -0.5955  0.6472
   73MOL   H13313237   4.576   7.889   4.218 -1.1599  0.0181  0.7823
   73MOL   H13413238   4.765   8.023   4.185 -1.5665 -1.5745 -0.9101
   73MOL   H13513239   4.791   8.043   4.358  0.6399  0.2479  0.2804
   73MOL   H13613240   4.822   7.888   4.287 -1.3899 -1.4893 -2.8204
   73MOL   C13713241   4.471   0.114   4.448  0.7258 -0.3787  0.4703
   73MOL   C13813242   4.563   0.213   4.523  0.2847 -0.3763 -0.4924
   73MOL   C13913243   4.331   0.091   4.505  0.5417 -0.0524 -1.2070
   73MOL   O14013244   4.299   8.129   4.553  0.1289  0.5029  0.0001
   73MOL   O14113245   4.251   0.197   4.526 -0.0810 -0.2469 -0.0870
   73MOL   H14213246   4.447   0.153   4.349  1.6537 -0.5229  0.1776
   73MOL   H14313247   4.644   0.245   4.457  1.5142 -2.1517  0.1157
   73MOL   H14413248   4.510   0.296   4.569  2.3702  0.4265  0.5235
   73MOL   H14513249   4.592   0.174   4.621 -1.0314  0.1857  0.1310
   73MOL   C14613250   4.111   0.175   4.546 -0.4206 -0.5692 -0.3800
   73MOL   C14713251   4.046   0.283   4.459  0.9277  0.4134 -0.1391
   73MOL   C14813252   4.075   0.190   4.699  0.2215  0.5411 -0.4421
   73MOL   O14913253   4.147   0.250   4.779 -0.8655  0.2543  0.3754
   73MOL   O15013254   3.957   0.131   4.720  0.5296 -0.1959 -0.2350
   73MOL   H15113255   4.071   0.085   4.500 -1.4086 -0.3776  0.0677
   73MOL   H15213256   4.079   0.373   4.513  1.1041 -1.2203  2.5873
   73MOL   H15313257   4.087   0.297   4.359  1.8795 -3.3777 -0.3407
   73MOL   H15413258   3.938   0.285   4.474  0.9208  0.6919 -0.2234
   73MOL   C15513259   3.864   0.171   4.821  0.0183 -0.3076 -0.4769
   73MOL   C15613260   3.771   0.052   4.832 -0.5646 -0.1094 -0.0697
   73MOL   C15713261   3.793   0.298   4.777 -0.2265  0.2817  0.1182
   73MOL   O15813262   3.812   0.359   4.674 -0.5186  0.7550  0.5049
   73MOL   O15913263   3.699   0.333   4.870 -0.3173  0.3755  0.0023
   73MOL   H16013264   3.903   0.187   4.921 -0.5217  0.6259 -0.4077
   73MOL   H16113265   3.700   0.070   4.913 -1.0134  0.4715 -0.5925
   73MOL   H16213266   3.716   0.038   4.739 -1.4765 -1.2656  0.6248
   73MOL   H16313267   3.831   8.113   4.858 -0.0263 -0.0369 -1.0529
   73MOL   C16413268   3.603   0.438   4.848 -0.3377 -0.6868 -0.4267
   73MOL   C16513269   3.527   0.474   4.981 -0.2973 -0.3752  0.7724
   73MOL   C16613270   3.498   0.400   4.743  0.0015 -0.4036 -0.1364
   73MOL   O16713271   3.470   0.477   4.653  0.1855 -0.2971 -0.0188
   73MOL   O16813272   3.444   0.278   4.754 -0.5057  0.8586 -0.3701
   73MOL   H16913273   3.654   0.527   4.812 -1.7880  0.2724 -0.1584
   73MOL   H17013274   3.483   0.573   4.968 -0.8805 -0.5961  1.0487
   73MOL   H17113275   3.440   0.410   4.994  1.4807 -3.0180  0.1060
   73MOL   H17213276   3.588   0.466   5.071 -1.1766 -1.1939  1.3051
   73MOL   C17313277   3.361   0.216   4.659  0.4138 -0.6188  0.4565
   73MOL   C17413278   3.228   0.180   4.731  0.4277  0.2052 -0.2687
   73MOL   C17513279   3.439   0.095   4.607  0.2493 -0.8223  0.0062
   73MOL   O17613280   3.387   8.135   4.595 -0.0290  0.2946 -0.5496
   73MOL   O17713281   3.561   0.130   4.557 -0.0874 -0.9787 -0.4994
   73MOL   H17813282   3.335   0.285   4.578 -0.8210 -1.8129 -0.1817
   73MOL   H17913283   3.253   0.128   4.823 -1.7516  0.5496  0.5555
   73MOL   H18013284   3.160   0.262   4.756  0.0053 -0.2790  0.1727
   73MOL   H18113285   3.172   0.118   4.661  1.4789  0.5489 -1.4427
   73MOL   H18213286   3.611   0.062   4.514 -0.4626 -0.7239 -1.3413
   74MOL     C113287   7.792   3.666   0.332  0.2729  0.3595 -0.0029
   74MOL     C213288   7.884   3.590   0.236  0.3388 -0.0107  0.8958
   74MOL     C313289   7.799   3.818   0.326 -0.7801 -0.3928 -0.1925
   74MOL     O413290   7.868   3.884   0.406 -0.8410  0.6469  0.2476
   74MOL     O513291   7.745   3.869   0.215  0.2574 -0.4044  0.8082
   74MOL     H613292   7.690   3.634   0.313 -0.8133  3.4328  0.2493
   74MOL     H713293   7.823   3.532   0.168  0.2831  2.5019 -1.2658
   74MOL     H813294   7.943   3.662   0.180  0.5711 -3.1584 -3.1637
   74MOL     H913295   7.948   3.524   0.296 -0.1938  0.2588  1.7798
   74MOL    H1013296   7.804   3.641   0.438 -1.6933 -1.6154 -0.2373
   74MOL    C1113297   7.779   4.003   0.181 -0.2632 -0.7118 -0.4368
   74MOL    C1213298   7.670   4.061   0.090  0.0833  0.4436 -0.0718
   74MOL    C1313299   7.914   4.021   0.109 -0.1088  0.2703 -0.5763
   74MOL    O1413300   7.975   3.922   0.065  0.0081  0.1164 -0.5096
   74MOL    O1513301   7.956   4.151   0.099  0.0844  0.0417 -0.7090
   74MOL    H1613302   7.792   4.077   0.259 -2.4544 -0.1434 -0.5836
   74MOL    H1713303   7.692   4.156   0.041  0.5466 -0.4138 -1.5483
   74MOL    H1813304   7.649   3.992   0.009  1.0502  1.7348 -1.4468
   74MOL    H1913305   7.576   4.085   0.141  0.5525 -0.8848  1.4465
   74MOL    C2013306   8.064   4.182   0.013 -0.0591 -0.2944 -0.4672
   74MOL    C2113307   8.108   4.320   0.071  0.0126  0.1818 -0.2350
   74MOL    C2213308   8.031   4.201   8.013  0.8825  0.2496  0.5644
   74MOL    O2313309   8.116   4.182   7.927  0.2300  0.5307 -0.1326
   74MOL    O2413310   7.904   4.232   8.000 -0.8334  0.0784  0.0383
   74MOL    H2513311   0.007   4.124   0.025 -0.2022 -0.3212  0.5276
   74MOL    H2613312   8.046   4.406   0.043  0.8343  0.5963 -0.7971
   74MOL    H2713313   8.115   4.318   0.179  0.6209  0.1513 -0.2725
   74MOL    H2813314   0.060   4.343   0.032 -0.4910  2.1669 -0.4175
   74MOL    C2913315   7.857   4.270   7.870 -0.3117  0.3197 -0.3451
   74MOL    C3013316   7.748   4.378   7.907  0.2838 -0.4724  0.5241
   74MOL    C3113317   7.808   4.143   7.798  0.0156  0.6373  0.1707
   74MOL    O3213318   7.860   4.100   7.699 -0.3376 -0.2581  0.2077
   74MOL    O3313319   7.696   4.093   7.860  0.9482 -0.5219 -0.4443
   74MOL    H3413320   7.939   4.307   7.808  0.5669  0.0363  0.6194
   74MOL    H3513321   7.775   4.453   7.981 -1.1507  1.5058 -0.9051
   74MOL    H3613322   7.737   4.436   7.815 -1.9871  0.7900  1.5532
   74MOL    H3713323   7.652   4.330   7.926  1.2503 -3.0976 -0.9103
   74MOL    C3813324   7.625   3.996   7.786  0.0511 -0.2255 -0.0162
   74MOL    C3913325   7.482   3.996   7.852  0.1609  0.7215  0.0322
   74MOL    C4013326   7.679   3.854   7.785  0.0394 -0.2168 -0.6196
   74MOL    O4113327   7.696   3.786   7.681  0.0213  0.0108 -0.3879
   74MOL    O4213328   7.705   3.813   7.908 -0.2074  0.0448 -0.1175
   74MOL    H4313329   7.595   4.028   7.687  2.3098 -2.0931 -1.3406
   74MOL    H4413330   7.485   3.986   7.960  0.8450 -0.9973 -0.1232
   74MOL    H4513331   7.434   4.092   7.832 -3.2773 -0.9361  0.1493
   74MOL    H4613332   7.414   3.926   7.804  1.5557 -0.2060 -0.6304
   74MOL    C4713333   7.720   3.677   7.938 -0.1153  0.6384  0.3675
   74MOL    C4813334   7.693   3.659   8.086 -0.3785 -0.8911 -0.0769
   74MOL    C4913335   7.866   3.645   7.911 -0.3048 -0.3555 -0.3354
   74MOL    O5013336   7.900   3.561   7.824  0.3907 -0.2718  0.7240
   74MOL    O5113337   7.959   3.708   7.985 -0.3030 -0.1507  0.1981
   74MOL    H5213338   7.663   3.613   7.871 -1.8218  3.3755 -0.9013
   74MOL    H5313339   7.591   3.692   8.105 -0.2389  0.1920 -1.1468
   74MOL    H5413340   7.714   3.557   8.117  0.7004  0.2099  2.9589
   74MOL    H5513341   7.748   3.719   0.011  0.4436  0.3082 -1.6647
   74MOL    C5613342   8.100   3.680   7.972  0.2961  0.1479  0.0594
   74MOL    C5713343   0.013   3.648   8.115  0.4047  0.7582 -0.3942
   74MOL    C5813344   0.018   3.800   7.914  0.4120  0.1030 -0.2719
   74MOL    O5913345   0.067   3.889   7.979  0.5767  0.2086 -0.5548
   74MOL    O6013346   0.009   3.797   7.779 -0.0621 -0.8115  0.0109
   74MOL    H6113347   8.132   3.600   7.905 -0.4885  0.3858 -0.6021
   74MOL    H6213348   8.110   3.567   0.019 -1.3841  0.2454 -2.8536
   74MOL    H6313349   0.120   3.625   8.111  0.6862  2.0404 -0.5225
   74MOL    H6413350   0.027   3.735   0.030  2.6944 -0.5930  1.0507
   74MOL    C6513351   0.056   3.904   7.699 -0.0601 -0.1089 -0.0804
   74MOL    C6613352   0.007   3.878   7.556  0.0751  0.3475 -0.4964
   74MOL    C6713353   0.211   3.917   7.702  0.0936 -0.3173  0.9157
   74MOL    O6813354   0.290   3.839   7.755  0.6572  0.8473  0.0989
   74MOL    O6913355   0.245   4.032   7.643 -0.0843  0.0512  0.6627
   74MOL    H7013356   0.020   4.004   7.724  1.6143  0.7123 -0.9057
   74MOL    H7113357   8.046   3.871   7.551  0.1541 -0.1258 -1.5167
   74MOL    H7213358   0.031   3.964   7.493 -0.0354  0.0109 -0.9942
   74MOL    H7313359   0.048   3.779   7.537  1.1684  0.6121  0.4476
   74MOL    C7413360   0.380   4.063   7.623  0.0328 -0.0960  0.3764
   74MOL    C7513361   0.394   4.205   7.686 -0.2862 -0.2058  0.1356
   74MOL    C7613362   0.418   4.062   7.472 -0.4154 -0.0551  0.2146
   74MOL    O7713363   0.454   4.162   7.406  0.4741 -0.3358 -0.0689
   74MOL    O7813364   0.407   3.942   7.427 -0.0934  0.6282  0.2123
   74MOL    H7913365   0.453   3.993   7.663 -0.0032 -0.4536 -0.1821
   74MOL    H8013366   0.486   4.251   7.649 -0.6045 -1.0360 -1.7592
   74MOL    H8113367   0.312   4.268   7.652 -1.1391  0.0030  2.4996
   74MOL    H8213368   0.406   4.200   7.794 -1.5946  0.1594  0.2990
   74MOL    C8313369   0.420   3.910   7.288  0.0239 -0.8503  0.2298
   74MOL    C8413370   0.392   3.760   7.268  0.0599  0.3698 -0.1733
   74MOL    C8513371   0.560   3.938   7.227 -0.0867  0.3970 -0.1340
   74MOL    O8613372   0.665   3.880   7.263  0.0665 -0.6849 -0.1154
   74MOL    O8713373   0.557   4.028   7.128 -0.0320  0.1997 -0.2698
   74MOL    H8813374   0.350   3.975   7.235 -0.8479 -0.8698  1.3325
   74MOL    H8913375   0.426   3.721   7.172  1.3870  1.8001 -0.3034
   74MOL    H9013376   0.457   3.709   7.340  0.4202 -0.8902 -1.3770
   74MOL    H9113377   0.289   3.730   7.286 -0.0730  1.0542  0.2064
   74MOL    C9213378   0.672   4.098   7.095 -0.2917 -0.3556  0.1095
   74MOL    C9313379   0.638   4.242   7.058 -1.1390  0.8221 -0.7001
   74MOL    C9413380   0.735   4.022   6.980  0.1336 -0.3490  0.4897
   74MOL    O9513381   0.673   3.935   6.915 -0.1219 -0.0811  0.0563
   74MOL    O9613382   0.866   4.068   6.951  0.7221  0.1735 -0.1456
   74MOL    H9713383   0.738   4.099   7.182 -0.1921  0.4992  0.0317
   74MOL    H9813384   0.597   4.248   6.957 -1.3750 -1.9647 -0.8146
   74MOL    H9913385   0.577   4.292   7.133 -0.6402  2.4380 -1.3578
   74MOL   H10013386   0.724   4.308   7.048 -0.3205 -0.0808  0.2031
   74MOL   C10113387   0.923   4.047   6.821 -0.1153  0.2582 -0.5210
   74MOL   C10213388   1.082   4.065   6.847  0.3471 -1.0675  0.0065
   74MOL   C10313389   0.863   4.147   6.710 -0.1856  0.2781 -0.9511
   74MOL   O10413390   0.784   4.235   6.744  0.2190 -0.5549 -0.2080
   74MOL   O10513391   0.914   4.126   6.583 -0.0373  0.5057 -0.5010
   74MOL   H10613392   0.901   3.943   6.796  3.0858 -0.4266 -0.7277
   74MOL   H10713393   1.104   4.127   6.934 -2.9236  0.8966 -0.5171
   74MOL   H10813394   1.123   3.965   6.867  1.4909 -0.7393 -0.6391
   74MOL   H10913395   1.128   4.116   6.763  2.0684 -2.5608 -0.0147
   74MOL   C11013396   0.862   4.208   6.479 -0.2269 -0.2957 -0.2965
   74MOL   C11113397   0.910   4.159   6.347 -0.9980 -0.2765 -0.0303
   74MOL   C11213398   0.904   4.352   6.506  0.0032 -0.4039  0.6284
   74MOL   O11313399   0.830   4.448   6.482 -0.1894 -0.4079 -0.7724
   74MOL   O11413400   1.031   4.365   6.557 -0.4486 -0.0100  0.2558
   74MOL   H11513401   0.753   4.196   6.474 -0.2217 -1.1860  1.6938
   74MOL   H11613402   1.018   4.164   6.330 -1.0876 -1.1487 -0.9355
   74MOL   H11713403   0.877   4.056   6.329  0.8664 -0.8897 -0.0532
   74MOL   H11813404   0.857   4.220   6.274  2.8597  0.7264 -2.1045
   74MOL   C11913405   1.083   4.495   6.562  0.0860  0.1043 -0.2803
   74MOL   C12013406   1.153   4.524   6.431 -0.0955  0.9169  0.6049
   74MOL   C12113407   1.179   4.517   6.682 -0.4512 -0.2877  0.3702
   74MOL   O12213408   1.274   4.592   6.669 -0.9933 -0.1353  0.0195
   74MOL   O12313409   1.152   4.442   6.783  0.2433 -0.0705 -0.5629
   74MOL   H12413410   1.007   4.572   6.579  0.3817  0.5411 -0.9035
   74MOL   H12513411   1.196   4.623   6.416  1.8015  0.0383  0.0733
   74MOL   H12613412   1.227   4.446   6.414 -2.0650 -0.6804 -0.9668
   74MOL   H12713413   1.075   4.528   6.354  0.8882  1.7091 -0.3665
   74MOL   C12813414   1.197   4.471   6.917  0.6737  0.3087 -0.3044
   74MOL   C12913415   1.305   4.363   6.938 -0.0166 -0.0456  0.0255
   74MOL   C13013416   1.083   4.457   7.021 -0.5539  0.2010 -0.5208
   74MOL   O13113417   0.966   4.420   6.995 -0.0385 -0.4177 -0.0702
   74MOL   O13213418   1.135   4.470   7.144  0.3462 -0.2745 -0.2218
   74MOL   H13313419   1.245   4.569   6.923  2.4103 -0.6016  1.3314
   74MOL   H13413420   1.388   4.384   6.870  0.0889 -1.4108 -0.2807
   74MOL   H13513421   1.334   4.370   7.043  1.2036  0.6965 -0.3504
   74MOL   H13613422   1.266   4.264   6.918 -0.5929 -0.3229  2.4157
   74MOL   C13713423   1.047   4.475   7.258 -0.1917  0.1263 -0.4919
   74MOL   C13813424   1.127   4.556   7.347 -0.3284 -0.0661  0.3643
   74MOL   C13913425   1.012   4.340   7.323  0.2897  0.1848  0.6287
   74MOL   O14013426   1.084   4.234   7.303  0.4714 -0.0644  0.3449
   74MOL   O14113427   0.912   4.344   7.401  0.3298  0.8250  0.0779
   74MOL   H14213428   0.954   4.529   7.242  0.0088  0.9616  1.0527
   74MOL   H14313429   1.070   4.591   7.433 -2.0653  1.9899 -1.5358
   74MOL   H14413430   1.220   4.506   7.369  1.1241  2.8038  1.0227
   74MOL   H14513431   1.153   4.652   7.302  1.6562 -0.7088  0.1235
   74MOL   C14613432   0.886   4.247   7.505  0.2144 -0.4074 -0.2946
   74MOL   C14713433   0.754   4.187   7.461  0.3619  0.5062  0.3578
   74MOL   C14813434   0.883   4.303   7.642 -0.2197  0.4463 -0.1155
   74MOL   O14913435   0.799   4.379   7.682 -0.2389 -0.3113  0.3170
   74MOL   O15013436   0.985   4.266   7.718 -0.5492  0.7745 -0.1933
   74MOL   H15113437   0.956   4.163   7.506  0.5342 -0.1296  1.6841
   74MOL   H15213438   0.760   4.084   7.426  0.5043 -0.2814  2.6564
   74MOL   H15313439   0.680   4.180   7.541 -0.9537  1.5419 -0.7403
   74MOL   H15413440   0.698   4.244   7.387 -0.7649 -1.5424 -0.4154
   74MOL   C15513441   1.011   4.313   7.851  0.2194 -0.3461  0.9616
   74MOL   C15613442   1.165   4.308   7.869 -0.4027 -1.1936  0.0267
   74MOL   C15713443   0.933   4.233   7.958 -0.3492 -0.4413  0.4814
   74MOL   O15813444   0.947   4.250   8.075  0.7085  0.1369  0.2938
   74MOL   O15913445   0.853   4.146   7.906  0.2871 -0.0179  0.0043
   74MOL   H16013446   0.982   4.418   7.852 -1.2484 -0.7485  2.5250
   74MOL   H16113447   1.201   4.401   7.825 -2.1251 -0.3338  0.3642
   74MOL   H16213448   1.188   4.326   7.974  2.2173 -0.3521 -0.6630
   74MOL   H16313449   1.218   4.217   7.840 -0.5203 -1.0322 -0.7153
   74MOL   C16413450   0.752   4.077   7.981 -0.0232 -0.1250  0.3510
   74MOL   C16513451   0.710   3.960   7.889  0.3725  0.2802  0.8180
   74MOL   C16613452   0.631   4.173   8.020  0.3358  0.3610 -0.0789
   74MOL   O16713453   0.622   4.287   7.977  0.1052  0.2310 -0.0407
   74MOL   O16813454   0.552   4.116   8.117 -0.1283 -0.0951  0.1408
   74MOL   H16913455   0.804   4.055   8.074  0.6466  0.6489  0.1717
   74MOL   H17013456   0.680   3.883   7.960 -0.6241 -2.0168 -2.0172
   74MOL   H17113457   0.630   3.988   7.821 -1.2277 -2.2987  1.5888
   74MOL   H17213458   0.794   3.920   7.833  1.1788 -0.2743  2.3830
   74MOL   C17313459   0.452   4.200   0.037  0.0032  0.3193 -0.2137
   74MOL   C17413460   0.430   4.147   0.183  0.7160  0.6814  0.3642
   74MOL   C17513461   0.324   4.202   8.103 -0.0654 -0.3376 -0.0102
   74MOL   O17613462   0.286   4.302   8.044  0.0137 -0.0622  0.0845
   74MOL   O17713463   0.256   4.087   8.103 -0.2024  0.1680  0.1112
   74MOL   H17813464   0.482   4.305   0.034  0.2704  0.1991 -2.4559
   74MOL   H17913465   0.395   4.044   0.190  0.9020  0.7137  2.0229
   74MOL   H18013466   0.528   4.147   0.230  1.4026  1.5928 -1.0314
   74MOL   H18113467   0.369   4.213   0.245  0.9463  0.7732  0.4890
   74MOL   H18213468   0.182   4.084   8.044  0.0265  1.4361 -0.2557
   75MOL     C113469   5.658   3.556   2.145 -0.1720  0.6875 -0.3912
   75MOL     C213470   5.551   3.452   2.136 -0.3774  0.0646 -0.2176
   75MOL     C313471   5.626   3.688   2.207  0.6306  0.8945 -0.0649
   75MOL     O413472   5.599   3.700   2.329  0.3550  0.7319 -0.5229
   75MOL     O513473   5.616   3.788   2.116  0.0510  0.1872 -0.3846
   75MOL     H613474   5.737   3.518   2.209  0.4907  1.9808 -0.4313
   75MOL     H713475   5.479   3.474   2.215 -0.3997  2.9237 -0.9694
   75MOL     H813476   5.496   3.467   2.043 -4.1810  0.9760  2.0619
   75MOL     H913477   5.594   3.354   2.155  1.1162  0.8098  0.3156
   75MOL    H1013478   5.701   3.571   2.046  1.4504 -0.8409  0.0564
   75MOL    C1113479   5.591   3.924   2.148  0.0087 -0.1711 -0.1531
   75MOL    C1213480   5.537   3.995   2.027  0.0361  0.7092  0.0525
   75MOL    C1313481   5.717   3.983   2.209 -0.1629 -0.3916 -0.6858
   75MOL    O1413482   5.721   4.074   2.295 -0.2815 -0.4851  0.0575
   75MOL    O1513483   5.827   3.930   2.148 -0.4231 -0.1251 -0.0829
   75MOL    H1613484   5.516   3.926   2.227  1.0506  1.0675  0.8321
   75MOL    H1713485   5.439   3.949   2.010 -0.4016  1.8609 -0.5895
   75MOL    H1813486   5.539   4.103   2.041  2.3773  0.6746  0.1532
   75MOL    H1913487   5.591   3.969   1.936 -0.3054 -1.3176  0.3993
   75MOL    C2013488   5.959   3.955   2.179 -0.5464 -0.5535 -0.5651
   75MOL    C2113489   6.048   3.869   2.082 -0.3239 -0.3612 -0.1718
   75MOL    C2213490   6.003   3.910   2.320 -0.5612 -0.4648 -0.9220
   75MOL    O2313491   5.941   3.824   2.380 -0.1515 -0.1001  0.2282
   75MOL    O2413492   6.107   3.980   2.371  0.5054 -0.1047 -0.4967
   75MOL    H2513493   5.974   4.061   2.161 -1.0865 -0.1837  1.1105
   75MOL    H2613494   6.041   3.914   1.983 -2.3825 -0.3680 -0.0611
   75MOL    H2713495   6.153   3.864   2.109 -0.4502  2.5350  1.0253
   75MOL    H2813496   5.997   3.778   2.050  1.1868 -1.6374  0.9688
   75MOL    C2913497   6.180   3.945   2.493  0.0956  0.3392  0.0115
   75MOL    C3013498   6.289   4.052   2.498 -0.0979  0.1301 -0.0237
   75MOL    C3113499   6.242   3.800   2.483 -0.1588 -0.0267  0.3087
   75MOL    O3213500   6.265   3.737   2.580  0.3920 -0.2027 -0.4433
   75MOL    O3313501   6.281   3.765   2.356  0.0641 -0.2089  0.3251
   75MOL    H3413502   6.106   3.949   2.574 -1.3140 -0.2409 -1.2210
   75MOL    H3513503   6.352   4.031   2.411  0.3031  0.1470  0.2618
   75MOL    H3613504   6.252   4.154   2.489 -2.6415 -0.8764 -1.5573
   75MOL    H3713505   6.353   4.031   2.583  0.0964  0.3753 -0.1084
   75MOL    C3813506   6.351   3.636   2.324  0.0878  0.0821 -0.4892
   75MOL    C3913507   6.411   3.648   2.182 -0.3735  0.0713 -0.5340
   75MOL    C4013508   6.254   3.521   2.332 -0.0921  0.7628  0.0043
   75MOL    O4113509   6.130   3.546   2.326 -0.2213 -0.1944  0.3006
   75MOL    O4213510   6.307   3.404   2.324 -0.3557  0.4351  0.2801
   75MOL    H4313511   6.438   3.624   2.390 -0.8569  0.0925  0.7779
   75MOL    H4413512   6.485   3.726   2.168  0.5420 -0.3388  1.7947
   75MOL    H4513513   6.457   3.555   2.149  2.4811  1.1479  0.3181
   75MOL    H4613514   6.334   3.659   2.106 -0.5440  2.5171 -0.0288
   75MOL    C4713515   6.224   3.285   2.313  0.6826  0.7607  0.5366
   75MOL    C4813516   6.246   3.208   2.437 -0.5137 -0.0180  0.0393
   75MOL    C4913517   6.259   3.198   2.191 -0.7414  0.3761 -0.3803
   75MOL    O5013518   6.335   3.225   2.101 -0.0206  0.1631 -0.0298
   75MOL    O5113519   6.197   3.072   2.189  0.1714 -0.3233  0.1951
   75MOL    H5213520   6.118   3.307   2.298  0.3095 -1.4050 -0.2421
   75MOL    H5313521   6.181   3.122   2.452 -1.4119  0.5748 -0.3541
   75MOL    H5413522   6.349   3.171   2.437 -1.2386 -2.0937 -0.6990
   75MOL    H5513523   6.226   3.266   2.528 -0.1356  1.6740 -0.9385
   75MOL    C5613524   6.238   2.973   2.093 -0.2220  0.2916 -1.1330
   75MOL    C5713525   6.151   2.851   2.117 -0.1424 -0.1437 -0.7042
   75MOL    C5813526   6.388   2.930   2.124  0.1407 -0.2898 -0.6404
   75MOL    O5913527   6.473   2.938   2.041 -0.6653 -0.1858 -0.4774
   75MOL    O6013528   6.411   2.893   2.251  0.1413  0.4977 -0.3035
   75MOL    H6113529   6.230   3.007   1.990 -1.8271 -0.0157 -1.1339
   75MOL    H6213530   6.048   2.879   2.092 -0.1686  0.9866  0.6429
   75MOL    H6313531   6.187   2.762   2.064  2.6913 -0.6920  2.0316
   75MOL    H6413532   6.162   2.820   2.221  0.2445 -0.3326 -0.8007
   75MOL    C6513533   6.537   2.872   2.324  0.9137  0.1021 -0.1336
   75MOL    C6613534   6.612   3.004   2.337  0.3238  0.7266 -0.0993
   75MOL    C6713535   6.617   2.759   2.249  0.5927 -0.2238 -0.3050
   75MOL    O6813536   6.736   2.777   2.220  0.3882 -0.2813  0.1846
   75MOL    O6913537   6.544   2.651   2.221  0.6997  0.3447  0.6376
   75MOL    H7013538   6.514   2.827   2.421 -0.5494 -0.2009 -0.6040
   75MOL    H7113539   6.716   2.979   2.358  0.5885 -0.0509 -2.1746
   75MOL    H7213540   6.606   3.054   2.240  0.1388  1.9116  0.5234
   75MOL    H7313541   6.565   3.073   2.407  1.7864  1.8699 -0.2325
   75MOL    C7413542   6.598   2.542   2.137  0.4909 -0.5438 -1.1151
   75MOL    C7513543   6.478   2.511   2.043 -0.3498  0.1264  0.2402
   75MOL    C7613544   6.633   2.418   2.217  0.5589 -0.1193 -0.1411
   75MOL    O7713545   6.745   2.367   2.207  0.2414 -0.0499 -0.2183
   75MOL    O7813546   6.531   2.372   2.302 -0.4282  0.4168  0.3845
   75MOL    H7913547   6.689   2.562   2.080  1.3822  1.4536  0.9614
   75MOL    H8013548   6.425   2.597   2.001 -1.5785 -0.2399  1.0213
   75MOL    H8113549   6.516   2.440   1.969 -0.4286  0.9205 -0.5779
   75MOL    H8213550   6.398   2.466   2.101 -0.1835  0.3861  0.6761
   75MOL    C8313551   6.570   2.289   2.404  0.6525 -0.2752  0.3893
   75MOL    C8413552   6.451   2.188   2.399  0.1543  0.0957  0.1965
   75MOL    C8513553   6.569   2.359   2.540  0.0500  0.7285  0.4095
   75MOL    O8613554   6.533   2.479   2.559 -0.5315  0.2530  0.4047
   75MOL    O8713555   6.606   2.276   2.642  0.3052  0.1732  0.6208
   75MOL    H8813556   6.666   2.239   2.391  0.8027  0.1993 -0.3557
   75MOL    H8913557   6.470   2.116   2.479  0.2722 -0.2832 -0.1655
   75MOL    H9013558   6.349   2.225   2.412  0.1162  1.8414 -4.1906
   75MOL    H9113559   6.450   2.131   2.306  0.6709 -3.4633  2.2703
   75MOL    C9213560   6.617   2.306   2.776  0.4369 -0.1292 -0.8537
   75MOL    C9313561   6.719   2.212   2.841 -0.2201  0.3861 -0.0957
   75MOL    C9413562   6.480   2.301   2.836  0.3198  0.4925 -0.0719
   75MOL    O9513563   6.435   2.370   2.928  0.2866 -0.0900 -0.1529
   75MOL    O9613564   6.409   2.191   2.786 -0.2822  0.0121 -0.3407
   75MOL    H9713565   6.654   2.408   2.783  1.0668 -0.3688 -0.6017
   75MOL    H9813566   6.745   2.246   2.941  1.4392  2.1064 -1.0872
   75MOL    H9913567   6.683   2.109   2.841 -0.8182  0.5908  0.5114
   75MOL   H10013568   6.815   2.213   2.790 -0.2713  1.7464 -0.1810
   75MOL   C10113569   6.265   2.170   2.807 -0.9684 -0.9890  0.3638
   75MOL   C10213570   6.227   2.043   2.730 -0.3511  0.4715 -0.6348
   75MOL   C10313571   6.176   2.293   2.765 -0.6665 -0.5358  0.3076
   75MOL   O10413572   6.062   2.311   2.815 -0.7374 -0.2823  0.0060
   75MOL   O10513573   6.236   2.364   2.658  0.0324 -0.9806  0.1269
   75MOL   H10613574   6.231   2.157   2.910 -1.4569 -0.3543  0.2899
   75MOL   H10713575   6.123   2.018   2.747 -0.2125 -1.4514 -2.4409
   75MOL   H10813576   6.245   2.068   2.625 -3.0348  1.1016 -0.9936
   75MOL   H10913577   6.283   1.961   2.774 -1.5189  1.3823  2.6572
   75MOL   C11013578   6.151   2.477   2.604 -0.2626 -0.5490 -1.3107
   75MOL   C11113579   6.202   2.503   2.463  0.8532  0.9242  0.2609
   75MOL   C11213580   6.158   2.601   2.692 -0.4078  0.1764  0.4417
   75MOL   O11313581   6.258   2.628   2.756  0.3738  0.0522  0.2002
   75MOL   O11413582   6.043   2.668   2.681  0.2993  0.6873  0.3031
   75MOL   H11513583   6.046   2.451   2.593 -0.1215 -1.3139 -0.8492
   75MOL   H11613584   6.288   2.569   2.447 -0.6472  2.2721 -2.7090
   75MOL   H11713585   6.230   2.410   2.413 -1.1281  0.5073 -0.0966
   75MOL   H11813586   6.131   2.544   2.390  2.0767  1.6236 -0.5594
   75MOL   C11913587   6.032   2.803   2.728 -0.4299  1.5141 -0.8508
   75MOL   C12013588   6.130   2.884   2.644  0.3987  0.0884  1.0221
   75MOL   C12113589   6.065   2.806   2.881 -0.3360  0.0821 -0.6136
   75MOL   O12213590   6.143   2.893   2.921  0.1896  0.0211  0.4172
   75MOL   O12313591   6.013   2.702   2.951 -0.8589  0.2698  0.2233
   75MOL   H12413592   5.930   2.840   2.715 -1.1158 -0.2828 -0.8345
   75MOL   H12513593   6.229   2.863   2.686  1.3914  2.6395  0.0771
   75MOL   H12613594   6.108   2.877   2.537 -0.4498  0.9989  1.1318
   75MOL   H12713595   6.110   2.988   2.671  2.3417  0.5272  0.8502
   75MOL   C12813596   6.034   2.668   3.087 -0.0513 -1.0767  0.2162
   75MOL   C12913597   6.021   2.513   3.095 -0.4226  0.1833  0.0904
   75MOL   C13013598   5.937   2.750   3.175  0.4391  0.1562  0.1170
   75MOL   O13113599   5.978   2.781   3.285 -0.3523 -0.7050  0.0940
   75MOL   O13213600   5.821   2.783   3.115 -0.8188  0.5810  0.4622
   75MOL   H13313601   6.135   2.700   3.116 -0.0811  0.3806 -1.2564
   75MOL   H13413602   6.099   2.461   3.040 -0.8602 -0.5252  0.1404
   75MOL   H13513603   6.031   2.478   3.197 -0.9819 -1.3922 -0.3828
   75MOL   H13613604   5.922   2.487   3.058 -2.9094  4.8531  2.9822
   75MOL   C13713605   5.707   2.802   3.198  0.2659 -0.2408 -0.2993
   75MOL   C13813606   5.587   2.747   3.127  0.3134 -0.1844  0.0122
   75MOL   C13913607   5.688   2.954   3.235  0.3551 -0.1222  0.4554
   75MOL   O14013608   5.772   3.037   3.206  0.2678 -0.0876 -0.6820
   75MOL   O14113609   5.578   2.973   3.304 -0.2860 -0.4494 -0.2843
   75MOL   H14213610   5.710   2.742   3.288 -1.3322 -1.1667 -0.8498
   75MOL   H14313611   5.606   2.642   3.105  0.7594 -0.1547  0.2410
   75MOL   H14413612   5.490   2.762   3.174  1.2641 -0.8869  2.2888
   75MOL   H14513613   5.572   2.802   3.034 -3.1345  2.0353  1.7947
   75MOL   C14613614   5.520   3.102   3.328 -0.2265 -0.3134 -0.1187
   75MOL   C14713615   5.422   3.100   3.442  0.3222 -0.4943  0.6538
   75MOL   C14813616   5.458   3.167   3.206  0.5557 -0.0638  0.0508
   75MOL   O14913617   5.401   3.102   3.116  0.5761 -0.1283 -0.4353
   75MOL   O15013618   5.477   3.302   3.203 -0.5902  0.4151 -0.7868
   75MOL   H15113619   5.604   3.164   3.359 -0.4650  0.1364 -0.3698
   75MOL   H15213620   5.475   3.130   3.532 -2.3699  0.7893  1.8634
   75MOL   H15313621   5.353   3.182   3.424 -0.7380 -1.3926  0.5142
   75MOL   H15413622   5.363   3.009   3.455 -0.9565  0.2607  0.1539
   75MOL   C15513623   5.417   3.386   3.098  0.3428  0.8777 -0.4998
   75MOL   C15613624   5.479   3.524   3.127  0.0177 -0.5816 -0.0161
   75MOL   C15713625   5.268   3.405   3.122 -0.2655 -0.3837  0.1788
   75MOL   O15813626   5.215   3.371   3.225  0.4531  0.1145  0.4384
   75MOL   O15913627   5.223   3.466   3.012  0.7908 -0.6425  0.0148
   75MOL   H16013628   5.439   3.339   3.002 -1.8861 -1.1053 -0.0803
   75MOL   H16113629   5.584   3.524   3.095 -0.0849 -1.7773 -0.3997
   75MOL   H16213630   5.439   3.596   3.057  0.8441 -2.2245 -2.2452
   75MOL   H16313631   5.454   3.564   3.225 -1.1847  0.9119 -0.9133
   75MOL   C16413632   5.086   3.479   2.968 -0.0015 -0.6556  0.4180
   75MOL   C16513633   5.040   3.629   2.930  0.7793 -0.5944 -0.0246
   75MOL   C16613634   4.979   3.421   3.064 -0.1862  0.0114 -0.1326
   75MOL   O16713635   4.921   3.318   3.042 -0.4256  0.4055 -0.4035
   75MOL   O16813636   4.956   3.503   3.176 -0.6671  0.0061  0.0394
   75MOL   H16913637   5.070   3.420   2.878 -1.4182 -0.6019  0.6227
   75MOL   H17013638   5.055   3.652   2.825 -1.6118  0.2480 -0.2099
   75MOL   H17113639   4.933   3.648   2.940  0.8318  0.4830 -1.3506
   75MOL   H17213640   5.097   3.710   2.977 -0.6315 -0.0134  0.7014
   75MOL   C17313641   4.844   3.476   3.255  0.6148  0.4616 -0.5850
   75MOL   C17413642   4.725   3.563   3.207  0.2485 -0.4407  0.8532
   75MOL   C17513643   4.891   3.503   3.401  0.3876  0.0174  0.3397
   75MOL   O17613644   4.819   3.563   3.482  0.2177 -0.3346  0.3204
   75MOL   O17713645   5.012   3.443   3.427  0.5067 -0.1307 -0.1402
   75MOL   H17813646   4.813   3.372   3.256 -1.4035  1.0386 -0.9756
   75MOL   H17913647   4.685   3.550   3.106 -1.8795  1.2788  1.4356
   75MOL   H18013648   4.635   3.522   3.253  0.0512 -0.2009  0.6864
   75MOL   H18113649   4.734   3.668   3.236  0.4444 -0.1380 -0.2618
   75MOL   H18213650   5.064   3.417   3.353  0.3401 -2.5117  0.5479
   76MOL     C113651   5.156   2.465   7.512 -0.0160  0.0762  0.5607
   76MOL     C213652   5.184   2.616   7.530  0.2170 -0.5716  0.0817
   76MOL     C313653   5.158   2.432   7.361 -0.4393 -1.0877  0.5873
   76MOL     O413654   5.090   2.489   7.279 -0.6086  0.8003 -1.1037
   76MOL     O513655   5.239   2.322   7.336 -0.2952  0.1211  0.4166
   76MOL     H613656   5.241   2.411   7.554  0.0879 -0.4974 -0.3736
   76MOL     H713657   5.087   2.663   7.513  1.1661  1.4907  0.3031
   76MOL     H813658   5.224   2.634   7.630  0.1569 -0.1974  0.0370
   76MOL     H913659   5.254   2.653   7.456 -1.7694  2.0693 -0.5251
   76MOL    H1013660   5.063   2.434   7.560 -1.2781  1.7379 -0.7269
   76MOL    C1113661   5.250   2.277   7.198 -0.3662  0.3351  0.5306
   76MOL    C1213662   5.306   2.131   7.197 -0.5138  0.2416 -0.4311
   76MOL    C1313663   5.328   2.368   7.100  0.0197  0.1327  0.2554
   76MOL    O1413664   5.410   2.445   7.145 -0.0505  0.0262  0.5841
   76MOL    O1513665   5.297   2.352   6.968 -0.4037  0.3148  1.1800
   76MOL    H1613666   5.147   2.274   7.164  0.2622  0.4776 -1.4663
   76MOL    H1713667   5.235   2.056   7.233 -0.4196  0.4149  0.1288
   76MOL    H1813668   5.339   2.106   7.097 -0.8090 -1.7094 -0.0569
   76MOL    H1913669   5.389   2.120   7.268  0.0525  0.6022 -1.0352
   76MOL    C2013670   5.383   2.413   6.867  0.3887  0.6050  0.6091
   76MOL    C2113671   5.358   2.563   6.859 -0.1888 -0.3186 -0.1749
   76MOL    C2213672   5.365   2.339   6.733  0.0042 -0.0514  0.2516
   76MOL    O2313673   5.277   2.250   6.725 -0.0201  0.2264  0.5383
   76MOL    O2413674   5.450   2.387   6.634 -0.7399 -0.7467  0.3457
   76MOL    H2513675   5.482   2.378   6.898 -1.0637 -0.7392  3.9613
   76MOL    H2613676   5.254   2.587   6.839 -0.0985 -0.4031 -0.7554
   76MOL    H2713677   5.386   2.597   6.958 -3.5034  1.5497  0.1810
   76MOL    H2813678   5.422   2.617   6.789  0.9960  0.8128  1.7439
   76MOL    C2913679   5.437   2.339   6.499 -0.3619  0.4055  0.5273
   76MOL    C3013680   5.554   2.401   6.419  0.0696  0.1895  0.3710
   76MOL    C3113681   5.304   2.395   6.440 -0.4675 -0.5063 -0.3422
   76MOL    O3213682   5.282   2.513   6.436 -0.0593 -0.3721  0.1310
   76MOL    O3313683   5.255   2.310   6.353  0.1827  0.3709  0.2174
   76MOL    H3413684   5.452   2.231   6.493 -3.2442  0.0900 -2.3656
   76MOL    H3513685   5.556   2.364   6.317  0.1746 -0.5483  0.6343
   76MOL    H3613686   5.552   2.510   6.416  0.5851  0.1738 -0.5466
   76MOL    H3713687   5.645   2.377   6.474 -1.5292 -1.1770  2.5266
   76MOL    C3813688   5.165   2.347   6.248  0.2994 -0.4181  0.6068
   76MOL    C3913689   5.081   2.221   6.205 -0.2486  0.0192  0.5051
   76MOL    C4013690   5.235   2.406   6.125  0.1437 -0.7978 -0.0001
   76MOL    O4113691   5.201   2.507   6.071  0.1624 -0.1744 -0.1716
   76MOL    O4213692   5.341   2.332   6.094  0.1408  0.8258 -0.1115
   76MOL    H4313693   5.095   2.420   6.289 -1.6968 -1.9151 -0.1045
   76MOL    H4413694   5.143   2.132   6.196  0.4171  0.4472  0.8631
   76MOL    H4513695   4.990   2.212   6.263 -2.6267  0.9934 -2.8906
   76MOL    H4613696   5.042   2.249   6.107  1.4298  2.3678  0.4627
   76MOL    C4713697   5.416   2.350   5.974 -0.0802  0.3960 -0.3745
   76MOL    C4813698   5.511   2.472   5.994 -0.1987  0.4505  0.1512
   76MOL    C4913699   5.339   2.338   5.849 -0.0343  0.2872  0.2399
   76MOL    O5013700   5.321   2.426   5.769  0.1713  0.0599 -0.3721
   76MOL    O5113701   5.286   2.214   5.837 -0.6499 -0.3894 -0.2677
   76MOL    H5213702   5.480   2.262   5.977 -1.0566 -0.2868  2.2659
   76MOL    H5313703   5.579   2.448   6.075  0.7349  0.5367 -0.6048
   76MOL    H5413704   5.568   2.494   5.904  1.4827  4.8974  2.1422
   76MOL    H5513705   5.450   2.558   6.023 -1.0597  0.1904 -0.8310
   76MOL    C5613706   5.198   2.182   5.736  0.6161 -0.1242 -0.1388
   76MOL    C5713707   5.061   2.163   5.806  0.5303 -0.4017 -0.3502
   76MOL    C5813708   5.240   2.048   5.657 -0.0051 -0.1541  0.1631
   76MOL    O5913709   5.360   2.030   5.630  0.2647  0.1454 -0.2992
   76MOL    O6013710   5.137   1.975   5.605 -0.8826 -0.6065 -0.1266
   76MOL    H6113711   5.193   2.257   5.657  0.5050  1.0379  0.9555
   76MOL    H6213712   4.996   2.129   5.725  0.2631 -0.9599  0.1007
   76MOL    H6313713   5.061   2.100   5.895 -2.3140  0.7723  0.5080
   76MOL    H6413714   5.025   2.255   5.851 -0.8207 -2.1615  2.2519
   76MOL    C6513715   5.151   1.846   5.542  0.5173  0.1999 -0.4774
   76MOL    C6613716   5.044   1.831   5.437  0.2648 -0.8097 -0.0065
   76MOL    C6713717   5.170   1.728   5.639 -0.2773 -0.5842  0.3436
   76MOL    O6813718   5.129   1.729   5.753  0.3495 -0.1223 -0.2473
   76MOL    O6913719   5.233   1.620   5.579  0.9944 -0.0266  0.6960
   76MOL    H7013720   5.239   1.845   5.477 -0.7026  2.1750 -2.2328
   76MOL    H7113721   5.063   1.903   5.359  1.2739 -1.0902 -0.0300
   76MOL    H7213722   5.039   1.726   5.407 -0.1347 -1.0705  0.9524
   76MOL    H7313723   4.950   1.864   5.481  1.6198  1.5914  1.1792
   76MOL    C7413724   5.247   1.492   5.643  1.4482 -0.2766 -1.2944
   76MOL    C7513725   5.345   1.420   5.551 -0.1772  0.7852 -0.1436
   76MOL    C7613726   5.112   1.415   5.642  0.0315  0.6125 -0.1666
   76MOL    O7713727   5.074   1.361   5.742  0.1334  0.0494  0.7555
   76MOL    O7813728   5.044   1.404   5.525  0.1431 -0.6372 -0.5234
   76MOL    H7913729   5.288   1.498   5.743 -2.7498 -3.5471  0.7568
   76MOL    H8013730   5.397   1.336   5.598  0.0381  0.6108 -0.6879
   76MOL    H8113731   5.305   1.370   5.462  3.0875 -2.1387 -0.0882
   76MOL    H8213732   5.422   1.485   5.510 -0.3793  1.5022  0.5948
   76MOL    C8313733   4.918   1.338   5.524 -0.2932 -0.2595  0.2201
   76MOL    C8413734   4.900   1.296   5.379 -0.4603 -0.1377  0.6560
   76MOL    C8513735   4.792   1.426   5.568  0.2150 -0.2318  0.6056
   76MOL    O8613736   4.674   1.395   5.539 -0.0051 -0.2137  0.2074
   76MOL    O8713737   4.824   1.525   5.653 -0.3483  0.0493 -0.2372
   76MOL    H8813738   4.928   1.243   5.575  2.8967 -0.4102 -0.6055
   76MOL    H8913739   4.808   1.239   5.363 -2.8343  3.3400  1.4104
   76MOL    H9013740   4.916   1.386   5.319  0.6128  1.0757  2.7285
   76MOL    H9113741   4.978   1.229   5.341 -0.8974  0.3016 -1.0860
   76MOL    C9213742   4.726   1.611   5.715 -0.7532 -0.2140  0.3900
   76MOL    C9313743   4.766   1.760   5.691  0.4043 -0.1107  0.1172
   76MOL    C9413744   4.723   1.564   5.867  0.1232 -0.1778  0.2805
   76MOL    O9513745   4.614   1.580   5.932 -0.2635  0.0993 -0.6771
   76MOL    O9613746   4.842   1.528   5.909  0.2219 -0.0272  0.0349
   76MOL    H9713747   4.630   1.598   5.666  0.0909  0.3311 -1.4593
   76MOL    H9813748   4.714   1.825   5.762  1.3619 -1.1086  1.7545
   76MOL    H9913749   4.873   1.779   5.696 -0.0298  2.1434  1.3730
   76MOL   H10013750   4.729   1.787   5.592 -0.2270 -0.3960  0.2707
   76MOL   C10113751   4.857   1.476   6.042  0.4276  0.3023  0.1142
   76MOL   C10213752   5.007   1.465   6.082  0.4193 -0.1201 -0.0372
   76MOL   C10313753   4.786   1.347   6.055  0.2906  0.4446 -0.4537
   76MOL   O10413754   4.711   1.326   6.156 -0.1993 -0.0468 -0.0918
   76MOL   O10513755   4.821   1.252   5.959  0.4775  0.0181  0.1362
   76MOL   H10613756   4.821   1.553   6.111  0.0862  0.7544 -0.5608
   76MOL   H10713757   5.056   1.563   6.074  0.9184 -0.4767 -1.4714
   76MOL   H10813758   5.017   1.441   6.188  0.3252 -0.4792 -0.1119
   76MOL   H10913759   5.062   1.391   6.024  1.4995 -0.0760  0.9251
   76MOL   C11013760   4.745   1.128   5.941 -0.4195  0.7139 -0.5068
   76MOL   C11113761   4.846   1.025   5.884 -0.0966 -0.7623  0.5650
   76MOL   C11213762   4.619   1.154   5.852  0.5958  0.3628  0.2095
   76MOL   O11313763   4.583   1.268   5.829  0.4939  0.0133  0.0156
   76MOL   O11413764   4.562   1.041   5.819  0.0318  0.3997 -0.0940
   76MOL   H11513765   4.698   1.099   6.034 -0.6206  0.8755 -0.5567
   76MOL   H11613766   4.947   1.044   5.919 -0.8106 -0.3889  2.4858
   76MOL   H11713767   4.823   0.921   5.909  0.7828 -0.4725  2.6420
   76MOL   H11813768   4.836   1.046   5.777 -0.7734 -0.5702  0.6662
   76MOL   C11913769   4.445   1.028   5.736  0.7686 -0.8803 -0.2688
   76MOL   C12013770   4.400   0.885   5.763  0.0760  0.3113  0.9871
   76MOL   C12113771   4.489   1.058   5.604  0.0575 -0.4591  0.7278
   76MOL   O12213772   4.457   1.166   5.547  1.0762  0.1360 -0.0051
   76MOL   O12313773   4.574   0.968   5.558 -0.4446  0.3110  0.5105
   76MOL   H12413774   4.371   1.103   5.767  1.7436  0.5873 -1.4253
   76MOL   H12513775   4.301   0.869   5.720  0.6474  2.5682 -1.2611
   76MOL   H12613776   4.469   0.812   5.721 -0.1402  1.5371 -1.5351
   76MOL   H12713777   4.408   0.873   5.871  2.6414 -0.1699  0.7525
   76MOL   C12813778   4.632   0.987   5.432 -0.0986 -0.9046  0.6648
   76MOL   C12913779   4.547   0.944   5.311  0.3151 -0.5104 -0.3132
   76MOL   C13013780   4.757   0.905   5.442 -0.8445  1.2207  0.2785
   76MOL   O13113781   4.871   0.953   5.460 -0.1220  0.2626 -0.6078
   76MOL   O13213782   4.728   0.775   5.433  0.5181  0.0852  0.2378
   76MOL   H13313783   4.659   1.092   5.426 -0.1559 -0.9807 -0.9391
   76MOL   H13413784   4.479   0.865   5.341 -1.4176  0.4810 -1.5760
   76MOL   H13513785   4.480   1.023   5.279 -1.7747 -2.3499 -0.5872
   76MOL   H13613786   4.587   0.910   5.215  0.3458  0.1003 -0.5155
   76MOL   C13713787   4.804   0.667   5.493 -0.2900 -0.4766 -0.1828
   76MOL   C13813788   4.751   0.637   5.634 -0.0215 -0.0734 -0.1861
   76MOL   C13913789   4.962   0.678   5.486 -0.4223 -0.2734  0.6565
   76MOL   O14013790   5.032   0.675   5.588 -0.0102 -0.1361  0.2435
   76MOL   O14113791   5.006   0.693   5.357  0.2541 -0.3144  0.0774
   76MOL   H14213792   4.767   0.581   5.437 -1.1114 -0.4438  0.3005
   76MOL   H14313793   4.808   0.559   5.684  1.5576  1.5539  0.6306
   76MOL   H14413794   4.760   0.725   5.697  0.5069 -1.2652  1.4236
   76MOL   H14513795   4.649   0.599   5.632  0.2291 -0.7351 -0.6491
   76MOL   C14613796   5.144   0.725   5.332 -0.3123  0.0028 -0.2573
   76MOL   C14713797   5.167   0.777   5.190  0.3708  0.4277 -0.4047
   76MOL   C14813798   5.233   0.603   5.357 -1.0730  0.3827  0.2163
   76MOL   O14913799   5.184   0.488   5.356 -0.0647 -0.0010 -0.3571
   76MOL   O15013800   5.360   0.636   5.382 -0.1609  0.2405  0.6386
   76MOL   H15113801   5.179   0.802   5.401  3.0062 -2.3983  0.8656
   76MOL   H15213802   5.121   0.875   5.179  0.0892  0.2231 -1.0632
   76MOL   H15313803   5.275   0.781   5.179  0.4607 -3.3083 -1.6635
   76MOL   H15413804   5.139   0.704   5.114 -2.1863  0.2712  0.6328
   76MOL   C15513805   5.457   0.527   5.396  0.7771  0.0858  0.3528
   76MOL   C15613806   5.598   0.577   5.447 -0.3673  0.3585  0.6308
   76MOL   C15713807   5.480   0.449   5.265 -0.7554  0.4355 -0.0527
   76MOL   O15813808   5.492   0.322   5.260 -0.1308  0.3085 -0.0788
   76MOL   O15913809   5.499   0.534   5.165 -0.4298 -0.0649  0.2084
   76MOL   H16013810   5.422   0.464   5.478 -1.2001  0.0704 -0.4831
   76MOL   H16113811   5.595   0.623   5.546 -2.6937 -0.9097  1.1886
   76MOL   H16213812   5.659   0.487   5.456 -1.4827 -0.6456 -1.5126
   76MOL   H16313813   5.653   0.635   5.373 -1.9434  0.6343 -0.3539
   76MOL   C16413814   5.514   0.492   5.028 -0.7254  0.0970  0.7806
   76MOL   C16513815   5.562   0.611   4.953 -0.1007 -0.5797 -0.6389
   76MOL   C16613816   5.381   0.439   4.974  0.2613 -0.1056 -0.6526
   76MOL   O16713817   5.317   0.513   4.899 -0.1673  0.0052 -0.1290
   76MOL   O16813818   5.354   0.305   5.008  0.2782  0.3719  0.5232
   76MOL   H16913819   5.598   0.422   5.025 -1.1313 -0.3405 -2.5545
   76MOL   H17013820   5.656   0.656   4.986 -1.2179  0.4391  1.2290
   76MOL   H17113821   5.559   0.579   4.849 -1.4592 -0.3221 -0.6892
   76MOL   H17213822   5.491   0.692   4.966  1.2681  0.1534  2.7045
   76MOL   C17313823   5.236   0.238   4.955 -0.8201 -0.2587 -0.5131
   76MOL   C17413824   5.251   0.190   4.809  0.3146 -0.3086  0.2972
   76MOL   C17513825   5.112   0.321   4.979 -0.3456 -0.0582  1.0386
   76MOL   O17613826   5.046   0.368   4.888  0.0840  0.5381 -0.1588
   76MOL   O17713827   5.083   0.352   5.106 -0.0180 -0.3949  0.0403
   76MOL   H17813828   5.217   0.148   5.013 -2.2513 -1.6058 -2.9995
   76MOL   H17913829   5.257   0.272   4.737  0.8425 -0.9232 -0.3495
   76MOL   H18013830   5.331   0.117   4.805  1.6422  1.1469 -0.3076
   76MOL   H18113831   5.166   0.133   4.771 -2.6423  3.2230  1.2173
   76MOL   H18213832   5.158   0.326   5.158 -1.3184  0.6258  2.4613
   77MOL     C113833   5.388   4.945   7.643 -0.4665 -1.1185  0.0884
   77MOL     C213834   5.457   4.873   7.528  0.3922  0.5386  0.1937
   77MOL     C313835   5.482   5.039   7.718 -0.8597  0.2207  0.1987
   77MOL     O413836   5.582   5.091   7.666 -0.7120  0.1195 -0.0912
   77MOL     O513837   5.455   5.040   7.849  0.7053 -0.1818 -0.2658
   77MOL     H613838   5.304   5.003   7.605  1.0194  1.3811  0.4394
   77MOL     H713839   5.557   4.837   7.550  0.1732  0.1449  0.5420
   77MOL     H813840   5.399   4.786   7.497 -0.4745  1.0419  0.3568
   77MOL     H913841   5.451   4.942   7.443 -1.7980  0.9932  0.6820
   77MOL    H1013842   5.342   4.867   7.703 -0.7157 -0.6156  0.5630
   77MOL    C1113843   5.536   5.109   7.943  0.0276 -0.3474  0.3739
   77MOL    C1213844   5.475   5.095   8.080 -0.1788  0.0659  0.4184
   77MOL    C1313845   5.559   5.264   7.906 -0.3233 -1.1987  0.3461
   77MOL    O1413846   5.478   5.323   7.838  0.3331 -1.0985  0.0243
   77MOL    O1513847   5.660   5.320   7.964  0.0137 -0.2639 -0.7541
   77MOL    H1613848   5.638   5.071   7.948  0.3904 -0.1568 -3.8543
   77MOL    H1713849   5.451   4.989   8.091 -0.2584  0.0637  0.2191
   77MOL    H1813850   5.550   5.117   0.009 -0.2164 -1.0765  0.8005
   77MOL    H1913851   5.388   5.159   8.095 -0.0505  0.2506  0.3673
   77MOL    C2013852   5.691   5.455   7.950  0.2263  0.0617  0.1871
   77MOL    C2113853   5.836   5.461   7.912  0.2556  0.8357 -0.4353
   77MOL    C2213854   5.668   5.524   8.090  0.4160 -0.3357  0.9121
   77MOL    O2313855   5.599   5.476   0.031  0.0413 -0.0069 -0.1127
   77MOL    O2413856   5.738   5.636   8.112  0.2211  0.2131 -0.3922
   77MOL    H2513857   5.629   5.506   7.876 -0.4125  0.0454  0.7047
   77MOL    H2613858   5.860   5.562   7.879  0.6478  0.1396 -2.3165
   77MOL    H2713859   5.902   5.428   7.993 -3.9071 -1.5001  2.1608
   77MOL    H2813860   5.858   5.402   7.823  0.5556 -1.0162  0.8484
   77MOL    C2913861   5.725   5.716   0.087  0.2065 -0.0061  0.3912
   77MOL    C3013862   5.667   5.846   0.044  0.1222 -0.4654 -0.1491
   77MOL    C3113863   5.867   5.735   0.142  0.7677 -0.1983  0.8886
   77MOL    O3213864   5.970   5.716   0.079 -0.0922 -0.0705 -0.6303
   77MOL    O3313865   5.858   5.778   0.273 -0.1954  0.2974  0.0270
   77MOL    H3413866   5.651   5.682   0.160  1.1543  0.5032  1.6022
   77MOL    H3513867   5.716   5.893   8.106 -1.2605  1.3210  0.0074
   77MOL    H3613868   5.564   5.841   0.010  0.0753  1.7209 -0.4337
   77MOL    H3713869   5.659   5.908   0.134 -0.7749  3.6858 -2.9491
   77MOL    C3813870   5.979   5.816   0.335 -0.5314 -0.4646 -0.0471
   77MOL    C3913871   5.951   5.811   0.484  0.0875 -0.2757  0.4026
   77MOL    C4013872   6.020   5.961   0.292  0.2842  0.2075  0.3786
   77MOL    O4113873   6.129   5.993   0.255  1.0406  0.1093  0.3778
   77MOL    O4213874   5.914   6.051   0.300  0.2855 -0.2667 -0.0968
   77MOL    H4313875   6.054   5.746   0.300 -0.1274  0.5960 -1.3822
   77MOL    H4413876   5.927   5.713   0.526 -0.4929 -0.4442 -0.3184
   77MOL    H4513877   6.046   5.839   0.529  0.1297  0.9990 -0.4485
   77MOL    H4613878   5.871   5.883   0.502 -0.7858 -1.2434  0.4723
   77MOL    C4713879   5.934   6.180   0.246 -0.4989 -0.4592  0.3250
   77MOL    C4813880   5.824   6.271   0.307 -0.4853  0.3965 -0.2587
   77MOL    C4913881   5.929   6.173   0.095  0.3763  0.7226 -0.1371
   77MOL    O5013882   5.890   6.071   0.037  0.4316  0.2415  0.5640
   77MOL    O5113883   5.959   6.287   0.036  0.3518  0.3587  0.3238
   77MOL    H5213884   6.025   6.238   0.260 -0.1966 -0.7583 -0.4057
   77MOL    H5313885   5.813   6.375   0.275 -0.2662 -0.0247 -1.7441
   77MOL    H5413886   5.736   6.215   0.274 -0.7128  0.7389 -0.2439
   77MOL    H5513887   5.817   6.267   0.415  1.3240  2.2424 -0.0502
   77MOL    C5613888   5.947   6.299   8.040 -0.3658  0.9776 -0.6541
   77MOL    C5713889   6.021   6.434   8.016  0.1483 -0.0931 -0.0353
   77MOL    C5813890   5.799   6.298   7.990  0.1161 -0.4957 -0.4718
   77MOL    O5913891   5.773   6.275   7.874 -0.0313 -0.1367  0.2972
   77MOL    O6013892   5.712   6.344   8.090 -0.3850 -0.2193 -0.0774
   77MOL    H6113893   6.005   6.219   7.993  1.5355  1.8039  0.2477
   77MOL    H6213894   5.992   6.483   7.922 -0.0118  0.9996  0.5743
   77MOL    H6313895   6.002   6.509   8.093  0.8284  0.5687 -0.4955
   77MOL    H6413896   6.128   6.414   8.021  0.5832  2.3697  1.2146
   77MOL    C6513897   5.568   6.342   8.074 -0.5329  0.3448 -0.3207
   77MOL    C6613898   5.512   6.206   8.068  0.3379  0.1160  0.3677
   77MOL    C6713899   5.528   6.443   7.973 -0.6199 -0.6110 -0.0046
   77MOL    O6813900   5.461   6.412   7.876  0.5188  0.7089  0.0204
   77MOL    O6913901   5.567   6.570   8.003  0.4805  0.2012 -0.0200
   77MOL    H7013902   5.530   6.384   0.020  0.7606  1.1009 -0.1199
   77MOL    H7113903   5.403   6.211   8.065  0.3535  0.2800 -0.0180
   77MOL    H7213904   5.537   6.145   7.982  1.4177  0.1410  0.6524
   77MOL    H7313905   5.539   6.156   0.013 -0.5928 -0.8837  0.1077
   77MOL    C7413906   5.548   6.674   7.904  0.2703  0.5230  0.3217
   77MOL    C7513907   5.696   6.723   7.860 -0.1714 -0.9213  0.3798
   77MOL    C7613908   5.465   6.786   7.960  0.2076  0.1261  0.6976
   77MOL    O7713909   5.375   6.839   7.892  0.1024  0.2409  0.4647
   77MOL    O7813910   5.497   6.826   8.085 -0.2029  0.4820  0.3087
   77MOL    H7913911   5.494   6.650   7.812 -1.2152  1.1109  1.0455
   77MOL    H8013912   5.738   6.633   7.815 -0.4297 -0.9103  0.1169
   77MOL    H8113913   5.709   6.805   7.790  1.3474  0.7300  2.5245
   77MOL    H8213914   5.759   6.739   7.948  2.6509 -0.5330 -1.6561
   77MOL    C8313915   5.416   6.905   0.016 -0.4800 -0.3089 -0.3294
   77MOL    C8413916   5.500   6.993   0.109  0.3215 -0.0026  0.2486
   77MOL    C8513917   5.318   6.828   0.092  0.0909  0.1610  0.1286
   77MOL    O8613918   5.319   6.708   0.089 -0.8908 -0.3891  0.3043
   77MOL    O8713919   5.229   6.911   0.161  0.3664  0.6214 -0.5695
   77MOL    H8813920   5.352   6.968   8.102 -2.4638 -1.0020  0.9509
   77MOL    H8913921   5.444   7.057   0.178  0.8281  1.9436 -1.0956
   77MOL    H9013922   5.567   6.945   0.180  0.1852  0.1845  0.5067
   77MOL    H9113923   5.559   7.063   0.050 -0.6516  0.6071 -0.0274
   77MOL    C9213924   5.116   6.866   0.237  0.1159 -0.0861  0.0120
   77MOL    C9313925   5.007   6.971   0.241 -0.6785 -0.2023 -0.5476
   77MOL    C9413926   5.169   6.846   0.385 -0.4214  0.7283  0.1714
   77MOL    O9513927   5.136   6.751   0.457  0.3618  0.4443 -0.3672
   77MOL    O9613928   5.238   6.950   0.433  0.2855  0.3559  0.4551
   77MOL    H9713929   5.087   6.767   0.202 -0.4158  0.1574 -0.2346
   77MOL    H9813930   5.043   7.067   0.278  1.1837  0.1386 -3.1538
   77MOL    H9913931   4.957   6.982   0.145 -0.1769 -1.3613 -0.9522
   77MOL   H10013932   4.934   6.934   0.313 -1.4843  1.8911 -0.2467
   77MOL   C10113933   5.306   6.948   0.561  0.5574 -0.6317  1.0744
   77MOL   C10213934   5.218   7.031   0.661 -0.0069  0.1579  0.7380
   77MOL   C10313935   5.446   7.012   0.540  0.0413 -0.2140 -1.2795
   77MOL   O10413936   5.477   7.078   0.440 -0.6075 -0.1205  0.6408
   77MOL   O10513937   5.531   6.988   0.644  0.1592 -0.0454  0.0525
   77MOL   H10613938   5.320   6.850   0.607 -1.3909 -1.2887  0.2985
   77MOL   H10713939   5.264   7.025   0.759  0.5231  1.8686  0.6145
   77MOL   H10813940   5.239   7.137   0.649  0.4251 -0.0542 -0.5205
   77MOL   H10913941   5.111   7.010   0.665  0.1047 -0.7915 -0.6806
   77MOL   C11013942   5.653   7.059   0.662  0.6790  0.3204  0.0482
   77MOL   C11113943   5.738   7.011   0.782  0.2261  0.0436  0.1501
   77MOL   C11213944   5.623   7.207   0.687  0.2590 -0.1325 -0.4860
   77MOL   O11313945   5.677   7.293   0.614  0.1774  0.1861 -0.7701
   77MOL   O11413946   5.549   7.226   0.797 -0.3670  0.0114 -0.3288
   77MOL   H11513947   5.711   7.058   0.570  0.5075 -1.0943 -0.0607
   77MOL   H11613948   5.678   6.963   0.858  1.0209  0.7952  1.2829
   77MOL   H11713949   5.810   6.936   0.750 -0.1964  0.0837 -0.8939
   77MOL   H11813950   5.793   7.093   0.829  0.4615  1.7487 -2.9358
   77MOL   C11913951   5.488   7.345   0.839 -0.1165 -0.1984 -0.1885
   77MOL   C12013952   5.415   7.311   0.966 -0.3010  0.3125 -0.3182
   77MOL   C12113953   5.390   7.409   0.732 -0.5419  0.0044  0.2116
   77MOL   O12213954   5.352   7.353   0.628 -0.4899  0.1325  0.1873
   77MOL   O12313955   5.354   7.534   0.771 -0.0408 -0.5018 -0.2367
   77MOL   H12413956   5.570   7.413   0.863  0.6449 -1.7830  1.8791
   77MOL   H12513957   5.372   7.211   0.956 -0.8704  0.4178  1.0324
   77MOL   H12613958   5.494   7.316   1.041 -0.2016 -1.4152 -0.2797
   77MOL   H12713959   5.349   7.394   0.987 -0.4528  0.7358 -2.3716
   77MOL   C12813960   5.266   7.605   0.687 -0.2226 -0.9430  0.1964
   77MOL   C12913961   5.342   7.688   0.583  0.6137  0.0381  0.7578
   77MOL   C13013962   5.191   7.699   0.782 -0.2306  0.1751 -0.5965
   77MOL   O13113963   5.159   7.813   0.754 -0.3861  0.2239  0.7069
   77MOL   O13213964   5.179   7.642   0.906 -0.0140 -0.1843 -0.1014
   77MOL   H13313965   5.191   7.543   0.639  0.8078 -1.2418 -1.0374
   77MOL   H13413966   5.269   7.740   0.521  1.9401  0.4818 -0.4689
   77MOL   H13513967   5.416   7.758   0.622  2.3107  0.3037 -2.7293
   77MOL   H13613968   5.393   7.635   0.503 -1.1701  1.3435 -1.3177
   77MOL   C13713969   5.139   7.718   1.022  1.2903 -0.3836  0.4027
   77MOL   C13813970   4.992   7.773   1.028  0.5335 -0.2088 -0.4360
   77MOL   C13913971   5.235   7.834   1.052  0.1535  0.3729 -0.0380
   77MOL   O14013972   5.200   7.943   1.078 -0.2382  0.0102 -0.9429
   77MOL   O14113973   5.363   7.786   1.044 -0.3080 -0.3971  0.1145
   77MOL   H14213974   5.153   7.648   1.104  1.3937  0.5018  1.1447
   77MOL   H14313975   4.953   7.795   1.128  0.0432  2.7903 -1.2155
   77MOL   H14413976   4.988   7.870   0.978  0.6360  1.0257  1.8303
   77MOL   H14513977   4.913   7.709   0.990  0.4807 -0.8414  0.7243
   77MOL   C14613978   5.481   7.870   1.062  0.3416  0.1586  0.6583
   77MOL   C14713979   5.593   7.795   0.988  0.0382  0.5905 -0.2986
   77MOL   C14813980   5.512   7.877   1.214  0.0939  0.3334  0.0463
   77MOL   O14913981   5.423   7.859   1.301  0.5066 -0.4824  0.2330
   77MOL   O15013982   5.637   7.914   1.244 -0.1208  0.0019  0.3894
   77MOL   H15113983   5.454   7.970   1.027  0.2405 -0.4824 -1.1583
   77MOL   H15213984   5.686   7.851   0.974  1.0498 -1.0639 -0.3426
   77MOL   H15313985   5.610   7.698   1.036  0.9804  1.1356  0.5000
   77MOL   H15413986   5.560   7.772   0.887  1.3612  0.7498 -0.7804
   77MOL   C15513987   5.681   7.923   1.376  0.0018 -0.0689  0.2639
   77MOL   C15613988   5.812   7.998   1.380  0.6846  0.9972 -0.0089
   77MOL   C15713989   5.698   7.786   1.440 -0.1316 -0.4220 -0.1072
   77MOL   O15813990   5.715   7.691   1.366 -0.3551 -0.1499  0.1518
   77MOL   O15913991   5.704   7.784   1.575  0.2937  0.4356  0.5333
   77MOL   H16013992   5.609   7.988   1.426 -0.4726 -0.1941 -0.2519
   77MOL   H16113993   5.842   8.037   1.477 -0.5931 -1.7236  1.5558
   77MOL   H16213994   5.900   7.946   1.343  0.1324 -0.2621  0.3935
   77MOL   H16313995   5.794   8.083   1.315 -2.7693  0.5270  0.2170
   77MOL   C16413996   5.697   7.657   1.637 -0.2203 -0.8261  0.1211
   77MOL   C16513997   5.660   7.690   1.777 -0.6382  0.6479  0.2565
   77MOL   C16613998   5.823   7.569   1.628  0.1411 -0.5121  0.7079
   77MOL   O16713999   5.803   7.445   1.621  0.5361  0.5339 -0.6227
   77MOL   O16814000   5.944   7.637   1.616 -0.0212 -0.4596 -0.6659
   77MOL   H16914001   5.618   7.593   1.597  1.0108 -1.0022 -2.0899
   77MOL   H17014002   5.557   7.712   1.805 -0.2985  0.9292  1.2991
   77MOL   H17114003   5.683   7.601   1.836  0.8329  0.6089 -0.3637
   77MOL   H17214004   5.718   7.770   1.823 -1.2266  0.9326  0.5116
   77MOL   C17314005   6.069   7.566   1.599  0.5018 -0.3440  1.0885
   77MOL   C17414006   6.100   7.503   1.736  0.5326 -0.0050 -0.1510
   77MOL   C17514007   6.181   7.657   1.552  0.2745  0.6542 -0.9835
   77MOL   O17614008   6.288   7.682   1.605 -0.3873 -0.0133  0.0231
   77MOL   O17714009   6.150   7.710   1.434 -0.0753  0.1402 -0.0388
   77MOL   H17814010   6.044   7.483   1.533  1.1425  0.7233 -0.5279
   77MOL   H17914011   6.200   7.461   1.727  0.8427  1.2410 -3.2103
   77MOL   H18014012   6.108   7.575   1.818  3.2112 -1.4890  0.9724
   77MOL   H18114013   6.030   7.425   1.765  0.5373 -0.4220 -1.2595
   77MOL   H18214014   6.223   7.766   1.413  0.4040  0.1779  1.6119
   78MOL     C114015   5.969   3.202   1.169 -0.2882 -0.2207  0.2036
   78MOL     C214016   6.002   3.106   1.282  0.2023 -0.2508 -0.2727
   78MOL     C314017   5.979   3.122   1.036 -0.0508  0.2634  0.0037
   78MOL     O414018   5.886   3.133   0.958 -0.2559  0.1537  0.4967
   78MOL     O514019   6.092   3.048   1.020 -0.2038  0.5545 -0.3677
   78MOL     H614020   5.872   3.245   1.189 -0.1634 -0.0463  0.4307
   78MOL     H714021   5.972   3.005   1.254  1.5430 -0.4969 -0.8641
   78MOL     H814022   6.110   3.097   1.290  0.0832 -0.6874  0.8683
   78MOL     H914023   5.948   3.145   1.368 -1.2687 -0.5862 -1.0111
   78MOL    H1014024   6.033   3.290   1.165  0.3079 -0.5637  1.7573
   78MOL    C1114025   6.143   3.019   0.888 -0.4296  0.1182  0.7207
   78MOL    C1214026   6.203   2.880   0.890  0.3484  0.3408  0.3652
   78MOL    C1314027   6.232   3.136   0.835  0.0375 -0.2149 -0.1931
   78MOL    O1414028   6.180   3.238   0.794 -0.4495  0.2885 -0.2623
   78MOL    O1514029   6.365   3.116   0.841  0.1084  0.8244 -0.5801
   78MOL    H1614030   6.051   3.015   0.828  1.0326 -1.0387 -1.5233
   78MOL    H1714031   6.294   2.882   0.950  0.3617  0.2568  0.3462
   78MOL    H1814032   6.129   2.807   0.922  0.9585 -0.6674 -0.4806
   78MOL    H1914033   6.241   2.856   0.791  0.5505  1.4103  0.1703
   78MOL    C2014034   6.456   3.216   0.813 -0.8227  0.2490  0.0689
   78MOL    C2114035   6.602   3.156   0.780 -0.7793 -0.3074 -0.0833
   78MOL    C2214036   6.474   3.305   0.932  0.1312 -0.2860 -0.1525
   78MOL    O2314037   6.449   3.422   0.932  0.0058 -0.3264 -0.0786
   78MOL    O2414038   6.524   3.238   1.035 -0.2684 -0.2146 -0.3458
   78MOL    H2514039   6.424   3.280   0.731  0.1333  0.2102 -0.3428
   78MOL    H2614040   6.652   3.102   0.860  1.3844  0.6464 -0.7668
   78MOL    H2714041   6.593   3.085   0.698 -2.2933 -1.1527  0.7828
   78MOL    H2814042   6.678   3.231   0.762 -0.5483 -0.6141 -0.3848
   78MOL    C2914043   6.532   3.300   1.172 -0.0840 -0.0932 -0.0224
   78MOL    C3014044   6.625   3.215   1.259 -0.2184 -0.3038  0.6248
   78MOL    C3114045   6.398   3.298   1.239  0.7392  0.6187 -0.3462
   78MOL    O3214046   6.300   3.247   1.179  0.7327 -0.1523  0.5836
   78MOL    O3314047   6.403   3.352   1.363 -0.4473  0.4975 -0.0053
   78MOL    H3414048   6.571   3.401   1.166  0.2868 -0.1821  0.7888
   78MOL    H3514049   6.728   3.222   1.222 -0.8462 -1.5683 -1.4674
   78MOL    H3614050   6.626   3.245   1.363 -1.5944  2.3210 -0.0828
   78MOL    H3714051   6.605   3.107   1.256  0.2092 -0.3482 -1.5921
   78MOL    C3814052   6.295   3.351   1.458  0.0392 -0.6253  0.7273
   78MOL    C3914053   6.279   3.487   1.512  0.4046 -0.1556 -0.1625
   78MOL    C4014054   6.313   3.241   1.556 -0.6347 -0.1354 -0.0646
   78MOL    O4114055   6.243   3.140   1.554  0.1572 -0.5028  0.0072
   78MOL    O4214056   6.417   3.266   1.650 -0.2103  0.6717  0.6063
   78MOL    H4314057   6.201   3.329   1.409 -0.5777 -0.0925  1.6550
   78MOL    H4414058   6.369   3.548   1.515  0.2743  0.0063  0.6141
   78MOL    H4514059   6.209   3.541   1.448  1.3865  1.8057  0.4013
   78MOL    H4614060   6.253   3.484   1.618  0.8222  0.1017 -0.0543
   78MOL    C4714061   6.466   3.168   1.733 -0.0509  0.3184 -0.9864
   78MOL    C4814062   6.555   3.231   1.844  0.1483  0.1315  0.2534
   78MOL    C4914063   6.537   3.057   1.659 -0.0511 -0.7950  0.0652
   78MOL    O5014064   6.598   3.077   1.551  0.4707  0.5689 -0.2054
   78MOL    O5114065   6.529   2.927   1.713  0.1987  0.2125 -0.6196
   78MOL    H5214066   6.389   3.116   1.790  0.0577  2.0725  0.8394
   78MOL    H5314067   6.510   3.305   1.910  0.0567 -0.6781  1.1112
   78MOL    H5414068   6.602   3.157   1.909 -0.0467  0.4888  0.7988
   78MOL    H5514069   6.631   3.286   1.788 -0.8533 -0.9688 -2.2839
   78MOL    C5614070   6.611   2.818   1.668 -0.3891  0.0796  0.2586
   78MOL    C5714071   6.560   2.686   1.719 -0.1197  1.1232  0.4321
   78MOL    C5814072   6.762   2.845   1.692  0.8060 -0.4317  0.7603
   78MOL    O5914073   6.846   2.806   1.613 -0.0949  0.5310  0.1661
   78MOL    O6014074   6.781   2.921   1.798  0.2135  0.0499  0.3399
   78MOL    H6114075   6.588   2.820   1.562 -0.9468  0.6431  0.3838
   78MOL    H6214076   6.547   2.685   1.828 -1.2600 -2.7807  0.3339
   78MOL    H6314077   6.469   2.656   1.667  1.1014  0.8972 -1.5952
   78MOL    H6414078   6.636   2.609   1.708 -2.1917 -0.6945 -1.5667
   78MOL    C6514079   6.908   2.958   1.831 -0.0503  0.0642 -0.2856
   78MOL    C6614080   6.901   2.946   1.988 -0.9023  0.4842  0.0788
   78MOL    C6714081   6.936   3.101   1.792  0.5502  0.1911 -0.0833
   78MOL    O6814082   6.899   3.197   1.866 -0.0061  0.7966  0.0271
   78MOL    O6914083   6.984   3.111   1.666 -0.0477  0.3601  0.3610
   78MOL    H7014084   6.984   2.893   1.788 -0.5346 -1.4477  1.1076
   78MOL    H7114085   6.822   3.009   2.030 -3.9472 -2.4683 -0.9945
   78MOL    H7214086   6.887   2.842   2.017 -0.0223  0.3730  0.1076
   78MOL    H7314087   6.994   2.975   2.036 -1.7378  1.9132  0.8678
   78MOL    C7414088   7.038   3.233   1.626 -0.3268 -0.3415  0.4010
   78MOL    C7514089   7.052   3.237   1.469 -0.1425  0.5364  0.5195
   78MOL    C7614090   7.181   3.255   1.690 -0.3139 -0.0942 -0.0818
   78MOL    O7714091   7.205   3.355   1.764 -0.2014 -0.2355  0.0559
   78MOL    O7814092   7.263   3.159   1.646  0.4355  0.4430 -1.2332
   78MOL    H7914093   6.974   3.317   1.652 -0.0044  0.7799 -2.2025
   78MOL    H8014094   7.081   3.335   1.430 -0.2005 -0.1628 -1.3278
   78MOL    H8114095   7.122   3.163   1.431 -0.5651  0.9170 -1.0478
   78MOL    H8214096   6.951   3.219   1.434  0.1654 -0.7942  0.2842
   78MOL    C8314097   7.403   3.151   1.661  0.2480  0.4525 -0.8287
   78MOL    C8414098   7.440   3.019   1.594 -0.4324  0.4112 -0.3952
   78MOL    C8514099   7.449   3.139   1.803  0.3396  0.2396 -0.3277
   78MOL    O8614100   7.550   3.198   1.837 -0.0455 -0.2023 -0.4222
   78MOL    O8714101   7.358   3.071   1.877  0.1859  0.1929  0.1274
   78MOL    H8814102   7.447   3.240   1.616 -0.2040  2.3270  2.2794
   78MOL    H8914103   7.379   2.990   1.508 -0.9206 -2.5511  0.8634
   78MOL    H9014104   7.545   3.028   1.568 -0.4827  2.1158 -0.0489
   78MOL    H9114105   7.433   2.938   1.667  1.5456  0.5825  0.0103
   78MOL    C9214106   7.376   3.059   2.020  0.2801 -0.4094 -0.9067
   78MOL    C9314107   7.325   2.916   2.070  0.5440 -0.1452 -0.2157
   78MOL    C9414108   7.314   3.174   2.096 -0.0053 -0.1769 -0.2721
   78MOL    O9514109   7.380   3.246   2.172 -0.0426  0.2775 -0.8141
   78MOL    O9614110   7.176   3.180   2.095  0.1140 -0.3767  0.1674
   78MOL    H9714111   7.478   3.071   2.058 -0.7136 -0.3348  1.8674
   78MOL    H9814112   7.376   2.896   2.164  1.2308 -2.2865 -1.0170
   78MOL    H9914113   7.217   2.921   2.080  0.5449 -1.6995  0.6287
   78MOL   H10014114   7.349   2.839   1.997 -1.2304 -2.5014  1.6346
   78MOL   C10114115   7.109   3.271   2.180  0.2902  0.2312 -0.3141
   78MOL   C10214116   6.968   3.208   2.206 -0.0871  0.4950 -0.5072
   78MOL   C10314117   7.104   3.413   2.117  0.6183  0.3762  0.2562
   78MOL   O10414118   6.996   3.466   2.085  0.7751 -0.2494 -0.4273
   78MOL   O10514119   7.220   3.477   2.105 -0.1265 -0.2227  0.7311
   78MOL   H10614120   7.160   3.286   2.275  1.2937  1.3358 -1.0142
   78MOL   H10714121   6.904   3.277   2.261 -2.8924 -2.9795  0.7714
   78MOL   H10814122   6.910   3.197   2.114  0.0276  0.6593 -0.5997
   78MOL   H10914123   6.958   3.111   2.253  0.3072  0.0983 -1.2297
   78MOL   C11014124   7.234   3.605   2.048  0.8761 -0.1734 -0.7821
   78MOL   C11114125   7.364   3.611   1.984 -0.1465 -0.2104  0.3089
   78MOL   C11214126   7.226   3.711   2.161  0.4645 -0.4754  0.2222
   78MOL   O11314127   7.204   3.683   2.279 -0.4658  0.1075  0.0037
   78MOL   O11414128   7.234   3.841   2.114 -0.0627 -0.3753  0.2417
   78MOL   H11514129   7.156   3.618   1.973  0.9393 -1.4938 -1.0988
   78MOL   H11614130   7.365   3.711   1.942  0.4922 -0.6988 -0.8476
   78MOL   H11714131   7.444   3.593   2.056 -0.0357 -0.3483  0.1525
   78MOL   H11814132   7.365   3.539   1.902 -0.3524 -0.3953  0.4690
   78MOL   C11914133   7.230   3.947   2.206 -0.6789  0.0680  0.3713
   78MOL   C12014134   7.168   4.076   2.146  0.3202  0.3688  0.8327
   78MOL   C12114135   7.376   3.981   2.252  0.3545 -0.2774 -0.8585
   78MOL   O12214136   7.399   4.007   2.371  0.1699 -0.4418  0.2072
   78MOL   O12314137   7.465   3.962   2.148 -0.3717  0.0986  0.2789
   78MOL   H12414138   7.168   3.913   2.289  0.0333 -0.6010  0.6325
   78MOL   H12514139   7.209   4.127   2.058  0.9247 -0.3001  0.7244
   78MOL   H12614140   7.069   4.046   2.111  1.3117  0.0420 -1.8149
   78MOL   H12714141   7.146   4.148   2.224 -2.3298  0.2230  0.2737
   78MOL   C12814142   7.602   3.999   2.146  0.4637 -0.0240  0.6149
   78MOL   C12914143   7.687   3.888   2.201  0.4684  0.3418 -0.2662
   78MOL   C13014144   7.627   4.137   2.214  0.3388 -0.1033 -1.1521
   78MOL   O13114145   7.706   4.153   2.315 -0.3427 -0.3563 -0.0481
   78MOL   O13214146   7.553   4.227   2.170  0.2532 -0.1908 -0.6686
   78MOL   H13314147   7.627   4.004   2.040  0.4948  0.6057  0.6511
   78MOL   H13414148   7.668   3.802   2.137  0.3128  0.3432 -0.2223
   78MOL   H13514149   7.791   3.917   2.216 -0.1257  1.8320  1.2089
   78MOL   H13614150   7.650   3.871   2.303 -2.5373 -1.3111 -1.5615
   78MOL   C13714151   7.538   4.362   2.230  0.4620 -0.7524  0.3586
   78MOL   C13814152   7.473   4.355   2.366 -0.4469 -0.1463  0.6775
   78MOL   C13914153   7.442   4.438   2.135 -0.3257 -0.2848  0.2211
   78MOL   O14014154   7.355   4.383   2.067  0.1472  0.2405 -0.2004
   78MOL   O14114155   7.464   4.574   2.143  0.1348 -0.3012 -0.2977
   78MOL   H14214156   7.632   4.417   2.244 -0.2830  0.3758  0.9666
   78MOL   H14314157   7.529   4.293   2.436  1.0935 -0.0692 -0.4522
   78MOL   H14414158   7.466   4.457   2.403  1.6464 -0.2320  1.3470
   78MOL   H14514159   7.375   4.308   2.352  0.0019 -0.5571 -1.3667
   78MOL   C14614160   7.389   4.663   2.057 -0.2239 -0.3503 -0.5011
   78MOL   C14714161   7.465   4.799   2.063 -0.1246 -0.1433  0.5008
   78MOL   C14814162   7.244   4.669   2.098  0.6984 -0.6321 -0.5035
   78MOL   O14914163   7.204   4.613   2.202 -0.1355 -0.1296  0.5114
   78MOL   O15014164   7.163   4.743   2.021 -0.0052 -0.2475  0.2222
   78MOL   H15114165   7.387   4.630   1.953 -1.3457  1.2006 -0.9969
   78MOL   H15214166   7.412   4.877   2.009  0.5673 -0.4134 -0.5756
   78MOL   H15314167   7.490   4.825   2.166  1.2071  1.1777 -0.1399
   78MOL   H15414168   7.565   4.790   2.020 -0.5398 -0.0277 -0.5004
   78MOL   C15514169   7.027   4.763   2.060 -0.1184  0.3011 -0.5896
   78MOL   C15614170   6.940   4.795   1.937  0.3875 -0.9901  0.6818
   78MOL   C15714171   7.015   4.874   2.163  0.3077 -1.3124  0.0808
   78MOL   O15814172   7.075   4.978   2.144 -0.7076 -0.3059 -0.7590
   78MOL   O15914173   6.932   4.850   2.271 -0.8153 -0.3107  0.1068
   78MOL   H16014174   6.996   4.671   2.110 -0.1340  0.3818 -0.4521
   78MOL   H16114175   6.837   4.825   1.956  0.3340 -0.4270 -0.4557
   78MOL   H16214176   6.976   4.885   1.886  0.0957  0.8238  3.5707
   78MOL   H16314177   6.931   4.707   1.874 -0.7487 -1.3878  1.4029
   78MOL   C16414178   6.864   4.960   2.332 -0.6849  0.2993  0.1520
   78MOL   C16514179   6.765   4.894   2.437  0.0931  0.6950 -0.0394
   78MOL   C16614180   6.791   5.052   2.228 -0.6541 -0.0760  0.1311
   78MOL   O16714181   6.800   5.169   2.239 -0.6678  0.3563  0.3992
   78MOL   O16814182   6.716   4.986   2.137  0.7293 -0.0711  0.0251
   78MOL   H16914183   6.937   5.017   2.390 -0.4249  1.3034 -1.1506
   78MOL   H17014184   6.810   4.817   2.500  0.7499 -0.8105 -2.2766
   78MOL   H17114185   6.720   4.966   2.505  1.9882 -0.1728  2.1860
   78MOL   H17214186   6.681   4.847   2.385 -0.8702  2.6944 -0.3489
   78MOL   C17314187   6.620   5.053   2.054  0.6719  0.4354 -0.2137
   78MOL   C17414188   6.519   4.951   1.992 -0.4784  0.6573  0.5172
   78MOL   C17514189   6.682   5.134   1.947 -0.0124  0.3200 -0.2117
   78MOL   O17614190   6.658   5.254   1.924 -0.2772  0.6498 -0.7637
   78MOL   O17714191   6.766   5.057   1.869 -0.7114  0.0691 -0.0672
   78MOL   H17814192   6.557   5.124   2.107  0.5650 -0.3876  0.7684
   78MOL   H17914193   6.447   4.912   2.063  0.1116  3.1581  2.5599
   78MOL   H18014194   6.462   4.990   1.908 -1.7252 -1.8482  0.1409
   78MOL   H18114195   6.562   4.859   1.952  1.6753  2.8006 -2.3638
   78MOL   H18214196   6.802   5.100   1.793 -1.6319  1.7934  0.4660
   79MOL     C114197   0.022   7.559   4.884  0.2049 -0.1509 -0.1910
   79MOL     C214198   0.081   7.471   4.778  0.0031  0.4430  0.1082
   79MOL     C314199   0.125   7.623   4.979  0.6765 -0.1414 -0.0146
   79MOL     O414200   0.245   7.611   4.945 -0.5494 -0.3354  0.0995
   79MOL     O514201   0.069   7.676   5.085  0.4439  0.0240  0.2710
   79MOL     H614202   8.109   7.636   4.837  1.0728  0.4004 -0.4073
   79MOL     H714203   0.006   7.424   4.714  0.2036 -1.6332  1.3440
   79MOL     H814204   0.144   7.532   4.713  0.7621  0.2546  0.6598
   79MOL     H914205   0.143   7.399   4.832  1.7989  1.7372 -0.1971
   79MOL    H1014206   8.111   7.490   4.946  1.2791 -2.8500 -2.0751
   79MOL    C1114207   0.157   7.720   5.192  0.1699 -1.2983 -0.2103
   79MOL    C1214208   0.187   7.607   5.289 -0.0353  1.1474  0.6214
   79MOL    C1314209   0.075   7.821   5.269 -0.0413 -0.0468 -0.2604
   79MOL    O1414210   8.101   7.828   5.249 -0.0357 -0.2295  0.3922
   79MOL    O1514211   0.141   7.895   5.363  0.2142 -0.2065 -0.2633
   79MOL    H1614212   0.244   7.761   5.142 -1.4280 -0.1851 -2.1711
   79MOL    H1714213   0.242   7.635   5.379  1.8824 -0.2123 -0.0863
   79MOL    H1814214   0.107   7.549   5.335 -0.7867  0.3582 -1.6620
   79MOL    H1914215   0.244   7.524   5.247 -0.2730  2.2868 -2.0121
   79MOL    C2014216   0.078   7.994   5.438 -0.1197  0.1380  0.2768
   79MOL    C2114217   0.182   8.076   5.521 -0.8590 -0.8565 -0.6187
   79MOL    C2214218   8.121   7.934   5.538  0.5987  0.2799  0.1126
   79MOL    O2314219   8.018   7.995   5.572  0.5909  0.1399  0.1472
   79MOL    O2414220   0.012   7.808   5.577  0.1778 -0.1676  0.0667
   79MOL    H2514221   0.035   8.071   5.373  0.9596  0.6422  0.1320
   79MOL    H2614222   0.237   8.141   5.453 -3.4683  0.1361 -1.8575
   79MOL    H2714223   0.134   8.144   5.591  0.8649  0.8784 -1.0844
   79MOL    H2814224   0.255   8.022   5.581 -1.0108 -1.0605 -0.6152
   79MOL    C2914225   8.072   7.740   5.670  0.1517  0.3468  0.5753
   79MOL    C3014226   8.142   7.616   5.736  0.8471 -0.0568 -0.4606
   79MOL    C3114227   7.953   7.696   5.592 -0.0540  0.1050 -0.2972
   79MOL    O3214228   7.838   7.704   5.643  0.7584 -0.1695 -0.1381
   79MOL    O3314229   7.986   7.645   5.471  0.3916 -0.3903  0.0753
   79MOL    H3414230   8.038   7.802   5.752 -1.8053  0.1484 -0.0719
   79MOL    H3514231   8.075   7.544   5.782 -1.7014  0.5111 -3.1070
   79MOL    H3614232   0.056   7.563   5.664  1.7788 -0.3297  0.5322
   79MOL    H3714233   0.058   7.653   5.817  2.7603 -0.2797 -1.8355
   79MOL    C3814234   7.885   7.582   5.392  0.5550 -0.4712  0.4390
   79MOL    C3914235   7.957   7.504   5.281  0.1439 -0.0032  0.2012
   79MOL    C4014236   7.773   7.678   5.342 -0.3784  0.3415  0.6989
   79MOL    O4114237   7.675   7.640   5.285 -0.2692 -0.1099  0.0232
   79MOL    O4214238   7.805   7.805   5.353  0.6148  0.0490 -0.3335
   79MOL    H4314239   7.826   7.516   5.456  0.2960  0.9569  1.6876
   79MOL    H4414240   8.017   7.577   5.226  1.2298  0.8077  2.3998
   79MOL    H4514241   8.026   7.432   5.325 -0.9610 -1.0075  0.3196
   79MOL    H4614242   7.896   7.450   5.209  0.7009 -0.9256  0.4211
   79MOL    C4714243   7.709   7.909   5.349  0.1434  0.3714  0.3604
   79MOL    C4814244   7.781   8.031   5.291 -0.2954 -0.0070  0.2724
   79MOL    C4914245   7.657   7.941   5.485  0.1427  0.0720  0.3781
   79MOL    O5014246   7.698   8.042   5.539  0.1896  0.2520 -0.2973
   79MOL    O5114247   7.565   7.850   5.533 -0.2711  0.4704  0.1061
   79MOL    H5214248   7.625   7.875   5.289  0.2265  0.4032  0.2272
   79MOL    H5314249   7.875   8.047   5.344 -0.5328 -3.3812  1.8202
   79MOL    H5414250   7.798   8.011   5.185 -0.2837  0.2550  0.2247
   79MOL    H5514251   7.723   8.122   5.305  0.5475  0.6527 -0.4783
   79MOL    C5614252   7.494   7.859   5.651 -0.0244 -0.4539  0.1727
   79MOL    C5714253   7.400   7.733   5.651  0.0486  0.2345  1.2277
   79MOL    C5814254   7.417   7.989   5.659  0.6428 -1.3719 -0.2485
   79MOL    O5914255   7.340   8.030   5.571 -0.2697  0.3398  0.4349
   79MOL    O6014256   7.441   8.059   5.779 -0.0180  0.3946 -0.7259
   79MOL    H6114257   7.560   7.851   5.737 -1.6673 -1.2209  1.3846
   79MOL    H6214258   7.330   7.731   5.567 -0.0580 -1.4749  1.3311
   79MOL    H6314259   7.460   7.642   5.646 -0.3321  0.0768 -1.5484
   79MOL    H6414260   7.348   7.725   5.746 -3.9313 -1.0860 -0.9486
   79MOL    C6514261   7.391   0.037   5.799  0.7662  0.4642 -0.2393
   79MOL    C6614262   7.483   0.101   5.899 -0.5456 -0.1676 -0.0987
   79MOL    C6714263   7.248   0.019   5.854 -0.5731  0.4249 -0.5034
   79MOL    O6814264   7.143   0.063   5.808  0.4967 -0.0094  0.2764
   79MOL    O6914265   7.252   8.086   5.973  0.3338 -0.5631 -0.2502
   79MOL    H7014266   7.369   0.101   5.712 -0.0509  1.3175  0.5808
   79MOL    H7114267   7.489   0.052   5.997 -0.5395  0.1849  0.0786
   79MOL    H7214268   7.581   0.127   5.858 -0.7691 -0.0553 -0.5517
   79MOL    H7314269   7.445   0.201   5.921 -2.9588 -0.9420 -0.6006
   79MOL    C7414270   7.127   8.055   6.046  0.6818  0.4832 -0.1879
   79MOL    C7514271   7.146   7.979   6.183 -0.1079  0.0271  0.1803
   79MOL    C7614272   7.032   7.973   5.958 -0.5448 -0.3157  0.0664
   79MOL    O7714273   7.075   7.892   5.882  0.1865  0.4891 -0.0783
   79MOL    O7814274   6.901   7.997   5.989 -0.0123  0.5348 -0.9449
   79MOL    H7914275   7.077   8.146   6.081  2.6777  2.0951 -1.4448
   79MOL    H8014276   7.205   8.051   6.241 -0.1445 -1.3951  2.0363
   79MOL    H8114277   7.053   7.956   6.235  1.2950 -2.7276  1.5476
   79MOL    H8214278   7.205   7.890   6.166 -1.5745 -0.8507 -0.4088
   79MOL    C8314279   6.789   7.959   5.912  0.0706 -0.1805 -0.0808
   79MOL    C8414280   6.737   7.829   5.969 -0.3429 -0.3317 -0.0382
   79MOL    C8514281   6.800   7.965   5.759  0.5265  0.8730 -0.0623
   79MOL    O8614282   6.728   7.893   5.693 -0.2773  0.3238  0.0803
   79MOL    O8714283   6.871   8.067   5.709  0.4644 -0.6194 -0.4520
   79MOL    H8814284   6.717   8.038   5.937  1.5833  1.3117 -0.3196
   79MOL    H8914285   6.810   7.752   5.945  1.6094  1.4354  0.1033
   79MOL    H9014286   6.739   7.840   6.078  1.3441 -0.2190 -0.0798
   79MOL    H9114287   6.633   7.818   5.938 -0.0970  0.6199 -1.2122
   79MOL    C9214288   6.862   8.104   5.569  0.2701  0.5438 -0.3400
   79MOL    C9314289   6.985   0.042   5.537 -0.1753 -0.9698 -0.5419
   79MOL    C9414290   6.729   0.027   5.540  0.1574 -0.4911 -0.5243
   79MOL    O9514291   6.644   8.147   5.454 -0.2712 -0.5484  0.0480
   79MOL    O9614292   6.720   0.139   5.605  0.2159 -0.0305 -0.3345
   79MOL    H9714293   6.870   8.014   5.507  1.6987  0.4421 -0.0155
   79MOL    H9814294   6.983   0.075   5.434 -1.7428  0.4250 -0.0851
   79MOL    H9914295   6.983   0.139   5.587 -1.4550 -1.2447 -0.0426
   79MOL   H10014296   7.077   8.133   5.553 -0.4219 -1.3697 -0.5350
   79MOL   C10114297   6.611   0.222   5.600 -0.4153 -0.5797  0.0531
   79MOL   C10214298   6.668   0.364   5.619  0.1936  0.0699 -0.5515
   79MOL   C10314299   6.496   0.177   5.693 -0.7220 -0.3836 -0.0773
   79MOL   O10414300   6.378   0.182   5.653  0.4707 -0.3151  0.3125
   79MOL   O10514301   6.549   0.141   5.807 -0.2025  0.2382  0.5519
   79MOL   H10614302   6.571   0.222   5.498 -2.1340  2.1561  0.6598
   79MOL   H10714303   6.607   0.435   5.562 -2.6131 -2.1134 -0.3896
   79MOL   H10814304   6.663   0.408   5.719 -0.4225  1.2129 -1.0745
   79MOL   H10914305   6.769   0.373   5.582 -0.4155 -0.0623 -2.2616
   79MOL   C11014306   6.468   0.102   5.920 -0.7617  0.4208  0.8011
   79MOL   C11114307   6.543   0.117   6.046  0.0927 -0.3336  0.1093
   79MOL   C11214308   6.402   8.113   5.905 -0.5627 -0.2154 -0.2803
   79MOL   O11314309   6.448   8.015   5.964  0.3253  0.1753  0.2740
   79MOL   O11414310   6.308   8.109   5.811 -0.4672 -0.1352 -0.1648
   79MOL   H11514311   6.392   0.178   5.942 -0.1764  1.8261 -1.7489
   79MOL   H11614312   6.482   0.091   6.132  0.4098 -2.1590 -0.1806
   79MOL   H11714313   6.637   0.061   6.049  0.5632  0.3774 -1.0851
   79MOL   H11814314   6.578   0.216   6.074 -0.4286 -0.1064 -0.0456
   79MOL   C11914315   6.248   7.986   5.773  0.7991 -0.0172  0.1011
   79MOL   C12014316   6.152   8.019   5.661  0.2738  0.2892  0.8309
   79MOL   C12114317   6.173   7.917   5.896 -0.2476  0.6958  0.4207
   79MOL   O12214318   6.138   7.990   5.990 -0.3267  0.3335 -0.3427
   79MOL   O12314319   6.153   7.788   5.888  0.7814  0.6852  0.0417
   79MOL   H12414320   6.319   7.915   5.730 -0.9171 -0.9498 -1.2900
   79MOL   H12514321   6.082   8.094   5.699 -0.7674  1.3142 -2.8807
   79MOL   H12614322   6.204   8.062   5.576  0.6490 -1.6164  0.0747
   79MOL   H12714323   6.098   7.927   5.638  0.8240  0.0957  0.2975
   79MOL   C12814324   6.115   7.707   5.999  0.2781 -0.2129  0.1598
   79MOL   C12914325   6.155   7.564   5.952 -0.4173 -0.2301  0.2399
   79MOL   C13014326   5.967   7.728   6.038  0.5221  0.0441 -0.4195
   79MOL   O13114327   5.885   7.796   5.975  0.1175  0.0659 -0.1768
   79MOL   O13214328   5.932   7.651   6.138 -0.2382 -0.3979 -0.3740
   79MOL   H13314329   6.174   7.737   6.086  1.5919  0.5965 -0.9960
   79MOL   H13414330   6.261   7.540   5.964 -0.5873 -0.8346  0.5530
   79MOL   H13514331   6.108   7.490   6.017 -1.3114 -0.4327 -0.6168
   79MOL   H13614332   6.120   7.539   5.852  0.5611 -1.0524  0.0962
   79MOL   C13714333   5.795   7.631   6.176  0.2737  0.2786 -0.0693
   79MOL   C13814334   5.773   7.685   6.316 -0.3378 -0.6413 -0.2236
   79MOL   C13914335   5.764   7.482   6.170 -0.5351  0.1995  0.3856
   79MOL   O14014336   5.696   7.426   6.258  0.6025  0.4664 -0.2231
   79MOL   O14114337   5.806   7.418   6.051  0.1093  0.2236 -0.2322
   79MOL   H14214338   5.717   7.672   6.111 -0.8774 -3.7787 -1.4120
   79MOL   H14314339   5.672   7.661   6.348 -0.1835 -0.5809  0.3190
   79MOL   H14414340   5.834   7.632   6.389  0.1535  1.5989  1.0437
   79MOL   H14514341   5.796   7.792   6.325 -0.8928  0.0497 -5.3850
   79MOL   C14614342   5.783   7.279   6.038 -1.3193  0.4530  0.1660
   79MOL   C14714343   5.879   7.225   5.930 -0.1111  0.1860  0.0006
   79MOL   C14814344   5.633   7.261   5.998 -0.0853 -0.2249  0.7258
   79MOL   O14914345   5.573   7.154   6.016 -0.6794  0.1976 -0.2831
   79MOL   O15014346   5.580   7.370   5.944 -0.4801 -0.4846 -0.0529
   79MOL   H15114347   5.803   7.229   6.132 -0.1653 -1.4273 -1.0370
   79MOL   H15214348   5.970   7.285   5.930  0.2077 -0.2831 -0.5320
   79MOL   H15314349   5.886   7.116   5.941  0.0608  0.1535 -0.3920
   79MOL   H15414350   5.845   7.240   5.827  0.1508 -0.8557 -0.2463
   79MOL   C15514351   5.441   7.379   5.919  0.4762  0.5880 -0.3149
   79MOL   C15614352   5.405   7.496   5.818  0.5677  0.2282  0.3453
   79MOL   C15714353   5.369   7.410   6.048  0.4918  0.0664  0.6206
   79MOL   O15814354   5.403   7.504   6.119 -0.0591 -0.2586  0.6510
   79MOL   O15914355   5.267   7.326   6.065  0.2694  0.0305  0.1472
   79MOL   H16014356   5.395   7.285   5.890 -0.7557  0.5556  1.6549
   79MOL   H16114357   5.296   7.508   5.815  0.2691 -2.4516 -1.3250
   79MOL   H16214358   5.455   7.589   5.845  1.3258  0.4170 -1.6281
   79MOL   H16314359   5.429   7.478   5.714 -0.2230 -1.7078  0.4688
   79MOL   C16414360   5.176   7.331   6.172  0.6628 -0.4286  0.6235
   79MOL   C16514361   5.118   7.194   6.216  0.0366 -0.1668  0.8582
   79MOL   C16614362   5.062   7.432   6.139  0.3652 -0.4156  0.4585
   79MOL   O16714363   5.022   7.453   6.025  0.0248  0.6445  0.4735
   79MOL   O16814364   5.001   7.490   6.245  1.3411  0.7690  0.5869
   79MOL   H16914365   5.239   7.369   6.254  0.8775  1.6340 -0.4512
   79MOL   H17014366   5.200   7.124   6.232  0.8970  0.2987 -1.2879
   79MOL   H17114367   5.045   7.202   6.296 -0.7346 -1.5742  0.3043
   79MOL   H17214368   5.070   7.153   6.127  0.6292 -1.0978  0.9678
   79MOL   C17314369   4.902   7.593   6.227 -0.0143  0.0958  0.0176
   79MOL   C17414370   4.770   7.549   6.157  0.1169 -0.0293  0.0514
   79MOL   C17514371   4.963   7.717   6.148 -0.4529 -0.3863 -0.3398
   79MOL   O17614372   4.900   7.784   6.063  0.0984  0.3263 -0.3910
   79MOL   O17714373   5.073   7.763   6.208 -0.7848 -0.6238  0.1274
   79MOL   H17814374   4.872   7.617   6.329  2.4180  1.3133  0.4766
   79MOL   H17914375   4.707   7.635   6.183 -0.3084 -0.2809 -0.1348
   79MOL   H18014376   4.769   7.527   6.051 -0.8219  1.2398 -0.2269
   79MOL   H18114377   4.720   7.461   6.198 -3.3538  2.9260  2.5906
   79MOL   H18214378   5.091   7.719   6.289  2.3393 -1.2153 -0.8114
   80MOL     C114379   0.525   1.856   5.499 -0.0170 -0.4106  0.5154
   80MOL     C214380   0.441   1.899   5.617 -0.0636  0.1236 -0.2201
   80MOL     C314381   0.564   1.965   5.399  0.4374 -0.1210 -0.0554
   80MOL     O414382   0.521   1.959   5.283 -0.0251  0.1689 -0.3605
   80MOL     O514383   0.636   2.064   5.453  0.3040  0.0645 -0.1741
   80MOL     H614384   0.617   1.810   5.534 -0.2778 -1.5703 -0.2844
   80MOL     H714385   0.503   1.926   5.702  0.2256  1.3170 -0.8070
   80MOL     H814386   0.377   1.985   5.597  3.5445  3.1066  0.6971
   80MOL     H914387   0.370   1.819   5.640  0.7585 -0.6459 -0.3489
   80MOL    H1014388   0.470   1.783   5.439  0.7233 -0.1358 -0.5144
   80MOL    C1114389   0.690   2.174   5.376 -0.4585  0.2426 -0.1079
   80MOL    C1214390   0.825   2.215   5.443  0.1080 -0.3299 -0.2554
   80MOL    C1314391   0.581   2.282   5.360  0.4521  0.1143 -0.0355
   80MOL    O1414392   0.547   2.327   5.249 -0.0259  0.1334 -0.2024
   80MOL    O1514393   0.531   2.317   5.479  0.5019  0.1739  0.5678
   80MOL    H1614394   0.714   2.131   5.278  0.0727 -2.9927  1.3595
   80MOL    H1714395   0.873   2.288   5.378 -1.0036  0.0310 -0.6935
   80MOL    H1814396   0.808   2.261   5.541 -0.6180 -0.5894 -0.2606
   80MOL    H1914397   0.897   2.133   5.447 -0.7590 -1.1188 -0.7325
   80MOL    C2014398   0.423   2.416   5.485  0.2111 -0.2292 -0.0296
   80MOL    C2114399   0.395   2.447   5.628 -0.6562  0.1469  0.8507
   80MOL    C2214400   0.293   2.379   5.409 -0.0121  0.8008 -0.3060
   80MOL    O2314401   0.248   2.265   5.411 -0.1990  0.0199 -0.4256
   80MOL    O2414402   0.227   2.487   5.354 -0.2609 -0.1095  0.5552
   80MOL    H2514403   0.461   2.506   5.437 -0.8980 -0.0867 -0.6751
   80MOL    H2614404   0.490   2.480   5.672 -0.9924 -0.0324  1.7250
   80MOL    H2714405   0.332   2.533   5.650  0.7415  1.7104 -1.1525
   80MOL    H2814406   0.359   2.366   5.692 -1.3151 -0.2890 -0.0675
   80MOL    C2914407   0.110   2.462   5.280 -0.1051 -0.1257  0.0857
   80MOL    C3014408   0.124   2.562   5.165  0.3533  0.4196  0.0059
   80MOL    C3114409   8.139   2.491   5.374  0.7351 -0.1709  0.4211
   80MOL    O3214410   8.070   2.591   5.361 -0.4949 -0.0001 -0.3278
   80MOL    O3314411   8.122   2.394   5.463 -0.0170 -0.2604  0.4145
   80MOL    H3414412   0.112   2.361   5.239  1.6298  0.1641 -0.5807
   80MOL    H3514413   0.028   2.581   5.117 -1.8593 -0.5475  3.8460
   80MOL    H3614414   0.183   2.652   5.178  1.5414 -0.1397 -1.3696
   80MOL    H3714415   0.189   2.502   5.100  2.5251 -0.8832  3.2380
   80MOL    C3814416   8.032   2.399   5.574  0.0835  0.1470 -0.6380
   80MOL    C3914417   8.072   2.301   5.682  0.6027 -0.0399 -0.0539
   80MOL    C4014418   7.884   2.393   5.535  0.3738  0.3140 -0.9014
   80MOL    O4114419   7.846   2.388   5.412 -0.4915 -0.4698 -0.2016
   80MOL    O4214420   7.800   2.404   5.639  0.1947  0.5706  0.0442
   80MOL    H4314421   8.047   2.498   5.618  1.7130  0.6224 -2.1693
   80MOL    H4414422   8.022   2.205   5.676 -0.1908  0.2803  1.3177
   80MOL    H4514423   0.032   2.279   5.681  0.4494 -0.7968  0.1469
   80MOL    H4614424   8.050   2.336   5.783 -3.8590  1.9692 -1.6088
   80MOL    C4714425   7.661   2.411   5.621 -0.0287  0.2399 -0.8571
   80MOL    C4814426   7.596   2.466   5.752 -0.4222 -0.9844  0.4492
   80MOL    C4914427   7.609   2.272   5.593  0.0015  0.3648  0.2004
   80MOL    O5014428   7.550   2.240   5.489 -0.1614 -0.1619 -0.2158
   80MOL    O5114429   7.640   2.184   5.692  0.3261  0.0718  0.0399
   80MOL    H5214430   7.638   2.479   5.539 -1.7312 -1.2307 -1.6573
   80MOL    H5314431   7.617   2.571   5.771  0.1387 -0.7968 -1.0821
   80MOL    H5414432   7.488   2.466   5.762 -0.3930  1.3647  0.8664
   80MOL    H5514433   7.635   2.415   5.840  1.5570 -0.5708 -0.1630
   80MOL    C5614434   7.593   2.053   5.682  0.5643  0.0291 -0.1045
   80MOL    C5714435   7.545   2.001   5.815 -0.5304 -0.5895 -0.1147
   80MOL    C5814436   7.705   1.957   5.623 -0.6680 -0.4246 -0.5015
   80MOL    O5914437   7.817   1.994   5.602 -0.4658 -0.4093 -0.4928
   80MOL    O6014438   7.649   1.832   5.591  0.1634 -0.1425 -0.3526
   80MOL    H6114439   7.514   2.041   5.607 -0.2903  0.4769  0.7225
   80MOL    H6214440   7.632   2.020   5.878  0.1384 -1.7646 -0.6827
   80MOL    H6314441   7.462   2.058   5.857  3.0131  2.4810  3.0585
   80MOL    H6414442   7.515   1.897   5.802 -0.9297 -0.3070 -1.6763
   80MOL    C6514443   7.726   1.734   5.530  0.0516 -0.4045  0.2535
   80MOL    C6614444   7.719   1.758   5.382 -0.3007 -0.2692  0.6135
   80MOL    C6714445   7.686   1.599   5.579 -0.2369 -0.5062 -1.0663
   80MOL    O6814446   7.671   1.500   5.508 -0.0015  0.1359 -0.2803
   80MOL    O6914447   7.673   1.603   5.713  0.1932  0.2674  0.5652
   80MOL    H7014448   7.830   1.745   5.559  0.0307 -2.0857  1.0256
   80MOL    H7114449   7.787   1.686   5.335  0.5915  0.8759  0.1124
   80MOL    H7214450   7.625   1.730   5.335  1.4667 -1.3121 -2.5476
   80MOL    H7314451   7.760   1.853   5.349 -1.3635 -0.1952 -0.5078
   80MOL    C7414452   7.670   1.477   5.775 -0.2887 -0.2241  0.5418
   80MOL    C7514453   7.613   1.487   5.922 -0.0958 -0.8155  0.3694
   80MOL    C7614454   7.813   1.420   5.788 -0.6355 -0.0148  0.2734
   80MOL    O7714455   7.916   1.485   5.776 -0.3048  0.3497  0.1514
   80MOL    O7814456   7.803   1.290   5.825 -0.2858  0.1926 -0.4170
   80MOL    H7914457   7.606   1.411   5.717  1.6323 -0.7471 -1.0734
   80MOL    H8014458   7.676   1.560   5.974  2.0468  0.3158 -3.5671
   80MOL    H8114459   7.513   1.530   5.918 -0.3948 -1.3537  1.8527
   80MOL    H8214460   7.613   1.389   5.968  0.9165  0.0380  2.2487
   80MOL    C8314461   7.918   1.214   5.850 -0.0563 -0.1242 -0.2487
   80MOL    C8414462   7.881   1.064   5.864 -0.3613  0.3995  0.8029
   80MOL    C8514463   7.983   1.257   5.986 -0.0620 -0.8706 -0.7835
   80MOL    O8614464   8.100   1.271   6.010 -0.4373  0.5199 -0.3492
   80MOL    O8714465   7.885   1.272   6.083 -0.2800 -0.1388 -0.3140
   80MOL    H8814466   7.981   1.215   5.761 -0.5724  0.5848 -0.6156
   80MOL    H8914467   7.873   1.021   5.764  2.7148 -1.0333  1.0958
   80MOL    H9014468   7.965   1.014   5.913  0.5420  1.0409 -0.0549
   80MOL    H9114469   7.793   1.048   5.926  0.1589  0.0804  1.4588
   80MOL    C9214470   7.910   1.323   6.210 -0.6727  0.2129 -0.2712
   80MOL    C9314471   7.782   1.289   6.284  0.2013 -0.0847  0.3818
   80MOL    C9414472   7.958   1.466   6.215  1.7285 -0.1505  0.0360
   80MOL    O9514473   7.989   1.532   6.121 -0.3272 -0.2122  0.1243
   80MOL    O9614474   7.961   1.509   6.342  0.3650  0.1960  0.2482
   80MOL    H9714475   7.997   1.274   6.254  0.1936 -0.1936 -2.3717
   80MOL    H9814476   7.784   1.333   6.383  0.9066  1.4508 -0.3031
   80MOL    H9914477   7.695   1.333   6.234  1.0171  2.6550  1.2841
   80MOL   H10014478   7.760   1.183   6.291  1.5770 -0.2170  3.9404
   80MOL   C10114479   8.013   1.635   6.381 -0.1594 -0.3495  0.5729
   80MOL   C10214480   0.015   1.631   6.411 -0.5485 -0.1550 -0.2794
   80MOL   C10314481   7.944   1.687   6.509  0.1416 -0.2405  0.1913
   80MOL   O10414482   7.883   1.791   6.516 -0.3660 -0.0417  0.4177
   80MOL   O10514483   7.954   1.602   6.610  0.4697 -0.0450  0.1136
   80MOL   H10614484   8.004   1.698   6.292  1.3381 -1.0423 -0.1010
   80MOL   H10714485   0.046   1.724   6.459 -1.2807 -0.3489  0.5673
   80MOL   H10814486   0.039   1.556   6.486 -0.6177  1.2140  1.1200
   80MOL   H10914487   0.064   1.607   6.316 -0.3012  2.1620 -0.7614
   80MOL   C11014488   7.881   1.635   6.729 -0.8336  0.9432  0.6790
   80MOL   C11114489   7.934   1.543   6.842 -0.5282 -0.3302  0.3989
   80MOL   C11214490   7.729   1.603   6.712 -0.0640 -0.0543  0.3400
   80MOL   O11314491   7.656   1.648   6.796  0.3285  0.2223  0.3537
   80MOL   O11414492   7.704   1.513   6.621  0.1253 -0.4537 -0.2304
   80MOL   H11514493   7.902   1.738   6.757  0.3982  1.1191 -0.8542
   80MOL   H11614494   7.874   1.548   6.932 -1.0114  0.9889  0.0117
   80MOL   H11714495   7.929   1.439   6.808  2.4156 -0.8726  1.4338
   80MOL   H11814496   8.038   1.551   6.872  0.2950 -1.2850 -2.0377
   80MOL   C11914497   7.577   1.452   6.605  0.1208 -0.9165  0.1968
   80MOL   C12014498   7.470   1.544   6.535  0.4144  0.0438 -0.5179
   80MOL   C12114499   7.537   1.375   6.734 -0.0444  0.0153  0.5479
   80MOL   O12214500   7.429   1.408   6.788 -0.2556 -0.7369  0.5617
   80MOL   O12314501   7.624   1.278   6.771 -0.2289 -0.5297 -0.2671
   80MOL   H12414502   7.594   1.366   6.540 -0.9170 -1.7864  1.0642
   80MOL   H12514503   7.519   1.580   6.445  0.6462 -1.1140 -0.8615
   80MOL   H12614504   7.370   1.505   6.517 -0.0396  0.7135  0.5007
   80MOL   H12714505   7.452   1.637   6.588  0.1564  0.7797 -1.8777
   80MOL   C12814506   7.592   1.204   6.889  0.8084 -0.0340 -0.3086
   80MOL   C12914507   7.728   1.171   6.951 -0.0396  0.4542  0.7454
   80MOL   C13014508   7.517   1.074   6.846 -0.1372 -0.3340 -0.1148
   80MOL   O13114509   7.450   1.076   6.744 -0.3529 -0.2253 -0.1572
   80MOL   O13214510   7.521   0.969   6.925  0.5025 -0.1681 -0.2468
   80MOL   H13314511   7.536   1.269   6.956  0.9398 -0.1165 -0.1209
   80MOL   H13414512   7.770   1.084   6.901  0.2264  0.5728  0.7596
   80MOL   H13514513   7.806   1.247   6.941 -0.3025  0.7307  0.7836
   80MOL   H13614514   7.729   1.127   7.051 -1.1836 -0.2223  0.4636
   80MOL   C13714515   7.460   0.848   6.885  0.0935  0.2869 -0.9621
   80MOL   C13814516   7.455   0.749   7.007  0.2109  0.3117 -0.3163
   80MOL   C13914517   7.535   0.781   6.773 -0.8865 -0.9675  0.1904
   80MOL   O14014518   7.636   0.828   6.716  0.4753  0.1696 -0.3258
   80MOL   O14114519   7.480   0.663   6.744 -0.1219  0.2017 -0.2695
   80MOL   H14214520   7.357   0.859   6.851 -0.8058 -1.1349  1.1963
   80MOL   H14314521   7.364   0.781   7.056  0.0632 -0.6776  0.0576
   80MOL   H14414522   7.442   0.642   6.992  1.2166  0.0613  0.5160
   80MOL   H14514523   7.539   0.762   7.076  0.2079 -1.5788  0.0741
   80MOL   C14614524   7.533   0.590   6.633  0.6855 -0.2594 -0.1253
   80MOL   C14714525   7.665   0.529   6.658 -1.2458 -0.5504 -0.0511
   80MOL   C14814526   7.497   0.662   6.497  0.7304  0.7472  0.2650
   80MOL   O14914527   7.576   0.709   6.418 -0.5076  0.1261  0.2986
   80MOL   O15014528   7.357   0.675   6.479 -0.0322  0.4241 -0.1197
   80MOL   H15114529   7.470   0.502   6.616  0.8925 -0.3909 -0.2113
   80MOL   H15214530   7.698   0.510   6.556  1.2966  1.2891  0.3750
   80MOL   H15314531   7.739   0.595   6.702 -0.4253 -1.2538 -0.3448
   80MOL   H15414532   7.655   0.436   6.714 -0.1973  0.0946  1.2365
   80MOL   C15514533   7.311   0.684   6.341  0.1309 -0.3375  0.0736
   80MOL   C15614534   7.158   0.706   6.344  0.3156 -0.1262 -0.1995
   80MOL   C15714535   7.353   0.559   6.267 -0.2850 -1.0934  0.4502
   80MOL   O15814536   7.351   0.448   6.325  0.1450 -0.4453  0.1049
   80MOL   O15914537   7.373   0.578   6.137  0.6014 -0.1085 -0.0892
   80MOL   H16014538   7.374   0.756   6.288 -2.4861  1.4842 -0.6330
   80MOL   H16114539   7.127   0.797   6.396 -1.7664 -1.7142  1.3763
   80MOL   H16214540   7.134   0.717   6.238  0.5249 -1.5829 -0.4024
   80MOL   H16314541   7.123   0.611   6.383  1.9276 -2.1757 -3.5554
   80MOL   C16414542   7.412   0.466   6.053 -0.9000 -0.0203  0.1657
   80MOL   C16514543   7.535   0.502   5.973 -0.4398  0.7179 -0.0881
   80MOL   C16614544   7.296   0.427   5.960  0.9680  0.0011 -0.3021
   80MOL   O16714545   7.305   0.405   5.842  0.6255  0.2464  0.0652
   80MOL   O16814546   7.179   0.421   6.031  0.0020 -0.0789 -0.1949
   80MOL   H16914547   7.452   0.381   6.109 -1.5710 -1.8368 -2.0434
   80MOL   H17014548   7.527   0.602   5.930 -0.9237  1.4400  1.6138
   80MOL   H17114549   7.614   0.514   6.047 -0.2885  0.0094 -0.1333
   80MOL   H17214550   7.569   0.438   5.892 -0.5802  2.3129 -1.4426
   80MOL   C17314551   7.049   0.450   5.979 -0.0835  0.3820  0.5928
   80MOL   C17414552   6.970   0.322   5.931 -0.2470  0.3865  0.0067
   80MOL   C17514553   7.048   0.577   5.882 -0.2429  0.5061 -0.1058
   80MOL   O17614554   7.007   0.578   5.766  0.4726 -0.0543  0.3250
   80MOL   O17714555   7.088   0.688   5.950  0.2708 -0.1300  0.0835
   80MOL   H17814556   6.990   0.495   6.060 -0.5340 -0.9184  0.9955
   80MOL   H17914557   6.862   0.334   5.935 -0.2064  0.4055  1.9219
   80MOL   H18014558   6.995   0.284   5.832 -1.1741  1.5555 -0.6816
   80MOL   H18114559   6.992   0.241   6.001  0.9159  0.6524 -0.0279
   80MOL   H18214560   7.092   0.765   5.896  0.4201 -1.0622 -1.2469
   81MOL     C114561   0.140   0.848   2.660 -1.0474 -0.3291 -0.7425
   81MOL     C214562   0.245   0.890   2.558 -0.5057 -0.6304  0.5060
   81MOL     C314563   8.142   0.831   2.601  0.0199 -0.0207  0.2607
   81MOL     O414564   8.130   0.790   2.485  0.5608  0.2107  0.1242
   81MOL     O514565   8.050   0.868   2.690 -0.1533 -0.0206 -0.6589
   81MOL     H614566   0.167   0.763   2.721  1.7167  1.5041  0.7364
   81MOL     H714567   0.253   0.811   2.483 -2.6867 -0.2185 -0.1974
   81MOL     H814568   0.233   0.980   2.498  0.5586 -0.4778  0.5107
   81MOL     H914569   0.341   0.908   2.606  0.3189 -2.3059 -0.4662
   81MOL    H1014570   0.147   0.917   2.744  0.5988  2.2409 -2.8956
   81MOL    C1114571   7.915   0.865   2.653 -0.1041 -0.1303  0.0606
   81MOL    C1214572   7.840   0.961   2.738  0.4788  0.6004  0.3414
   81MOL    C1314573   7.844   0.730   2.647 -0.1834 -0.6447 -0.4202
   81MOL    O1414574   7.908   0.627   2.657 -0.6646  0.2658 -0.0252
   81MOL    O1514575   7.714   0.738   2.610 -0.4928  0.6016  0.3324
   81MOL    H1614576   7.911   0.892   2.548 -0.0258 -1.3177 -0.2555
   81MOL    H1714577   7.884   1.060   2.748  0.1502  0.8115 -0.3039
   81MOL    H1814578   7.734   0.975   2.715  1.0752  1.6821 -1.8485
   81MOL    H1914579   7.829   0.926   2.841  1.6501 -1.2162 -0.1307
   81MOL    C2014580   7.635   0.618   2.606 -0.7005  0.7902 -0.5949
   81MOL    C2114581   7.648   0.553   2.471  0.2800 -0.8215  0.2456
   81MOL    C2214582   7.492   0.636   2.646  0.2432 -0.0027  0.5976
   81MOL    O2314583   7.402   0.624   2.558  0.9939 -0.1019  0.3535
   81MOL    O2414584   7.472   0.671   2.774 -0.4972 -0.5160 -0.7830
   81MOL    H2514585   7.681   0.551   2.678  2.4216  1.7828 -1.5887
   81MOL    H2614586   7.752   0.525   2.450 -0.3911 -1.1119 -2.9889
   81MOL    H2714587   7.594   0.459   2.459 -1.9380  0.3732  0.6344
   81MOL    H2814588   7.619   0.617   2.388 -0.2218  1.1976  1.9493
   81MOL    C2914589   7.337   0.666   2.825 -0.0184 -0.3615 -0.4520
   81MOL    C3014590   7.338   0.752   2.961  0.0712  0.8257 -0.1731
   81MOL    C3114591   7.290   0.523   2.843  0.1665  1.0874  0.7301
   81MOL    O3214592   7.371   0.426   2.851 -0.0482  0.0957 -0.9340
   81MOL    O3314593   7.158   0.514   2.877 -0.5425  0.0307  0.1030
   81MOL    H3414594   7.272   0.729   2.763 -2.8817 -1.6164  1.1545
   81MOL    H3514595   7.414   0.725   3.035 -0.3726  0.3058  0.0945
   81MOL    H3614596   7.350   0.856   2.930 -0.5480  1.2306  0.8887
   81MOL    H3714597   7.241   0.748   3.010 -0.5339 -1.8750 -1.4657
   81MOL    C3814598   7.112   0.392   2.925 -0.4335  0.1514 -0.6133
   81MOL    C3914599   6.961   0.382   2.918  0.2076 -0.6202 -0.6708
   81MOL    C4014600   7.165   0.351   3.062  0.2668 -0.2233 -0.9491
   81MOL    O4114601   7.206   0.441   3.135 -0.4097 -0.0696  0.0267
   81MOL    O4214602   7.156   0.214   3.084  0.4969  0.3150 -0.1606
   81MOL    H4314603   7.145   0.316   2.853  2.0743 -0.2044  0.8291
   81MOL    H4414604   6.943   0.274   2.925 -1.1444 -0.3599  0.2595
   81MOL    H4514605   6.909   0.431   3.001  0.9596 -0.0442 -0.5306
   81MOL    H4614606   6.924   0.407   2.819 -1.1277  1.3447  0.2994
   81MOL    C4714607   7.193   0.164   3.208  0.3931  0.2884  0.6425
   81MOL    C4814608   7.243   0.020   3.175 -0.5478  0.1573 -0.8067
   81MOL    C4914609   7.074   0.166   3.304  0.0764 -0.1882 -0.1330
   81MOL    O5014610   7.044   0.062   3.360 -0.0682  0.2599  0.0558
   81MOL    O5114611   7.027   0.284   3.329 -0.3381 -0.5491 -0.5312
   81MOL    H5214612   7.271   0.221   3.258  0.4632 -0.0306  0.9014
   81MOL    H5314613   7.333   0.023   3.114 -0.1929 -1.5538 -0.3994
   81MOL    H5414614   7.265   8.109   3.264  1.2945 -0.3459 -1.5792
   81MOL    H5514615   7.161   8.119   3.121  0.3088 -1.3052 -0.8187
   81MOL    C5614616   6.926   0.304   3.429 -0.1270  0.0525 -0.0146
   81MOL    C5714617   6.858   0.439   3.406  1.3139 -0.2207 -0.2100
   81MOL    C5814618   6.989   0.308   3.572  0.2889 -0.8102 -0.2236
   81MOL    O5914619   7.110   0.327   3.591  0.2585 -0.5284  0.1279
   81MOL    O6014620   6.900   0.293   3.668  0.4079  0.8060  0.1163
   81MOL    H6114621   6.853   0.226   3.406  1.5635 -0.0929 -5.4334
   81MOL    H6214622   6.929   0.521   3.422  0.0636  1.1414 -1.5184
   81MOL    H6314623   6.812   0.442   3.308  0.1871 -1.8510  0.2445
   81MOL    H6414624   6.775   0.442   3.476  0.1196 -0.3322 -1.6132
   81MOL    C6514625   6.931   0.306   3.802 -0.1769  0.5412  0.2424
   81MOL    C6614626   6.829   0.228   3.889 -0.1122  0.1075  0.6609
   81MOL    C6714627   6.914   0.461   3.836  0.2330 -0.5435  0.5106
   81MOL    O6814628   6.926   0.487   3.951  0.4041 -0.1605 -0.0248
   81MOL    O6914629   6.870   0.542   3.742 -0.1048 -0.3476  0.2607
   81MOL    H7014630   7.034   0.279   3.826 -0.3317  0.8486  1.2829
   81MOL    H7114631   6.733   0.261   3.850 -0.5634  0.5435  2.1091
   81MOL    H7214632   6.845   0.121   3.877  0.2965  0.3441 -1.1748
   81MOL    H7314633   6.850   0.257   3.992  1.4640  0.4385  0.2707
   81MOL    C7414634   6.860   0.682   3.759  0.1615 -0.3501 -0.2659
   81MOL    C7514635   6.751   0.749   3.671 -0.5432 -0.1126  0.3282
   81MOL    C7614636   6.999   0.746   3.725  0.1536 -0.3326  0.1887
   81MOL    O7714637   7.088   0.679   3.680  0.3681  0.5807 -0.4631
   81MOL    O7814638   7.016   0.882   3.755  0.0575 -0.1469 -0.0967
   81MOL    H7914639   6.848   0.712   3.864  0.4450  0.2233 -0.3919
   81MOL    H8014640   6.751   0.857   3.685  0.0723 -0.2589  1.5067
   81MOL    H8114641   6.764   0.721   3.566  3.1388  0.1135  0.6672
   81MOL    H8214642   6.650   0.715   3.694  0.3128 -0.8944  3.0642
   81MOL    C8314643   7.128   0.955   3.701  0.2635  0.5701  0.2043
   81MOL    C8414644   7.130   1.087   3.786 -0.6827  0.2538  0.2170
   81MOL    C8514645   7.108   0.990   3.549 -0.5650 -0.4558  0.4236
   81MOL    O8614646   7.000   0.985   3.499  0.7454 -0.5115  0.3688
   81MOL    O8714647   7.230   1.019   3.486 -0.2450 -0.2901 -0.2014
   81MOL    H8814648   7.226   0.907   3.711 -0.3285 -0.4824  1.0246
   81MOL    H8914649   7.036   1.142   3.792 -1.2062 -0.7986  2.2110
   81MOL    H9014650   7.153   1.060   3.889  1.4491  0.6608 -0.1327
   81MOL    H9114651   7.214   1.144   3.748 -1.7031  2.2908  0.8812
   81MOL    C9214652   7.221   1.063   3.346  0.6427  0.6842 -0.4960
   81MOL    C9314653   7.348   1.028   3.275 -0.1682  0.3778 -0.9623
   81MOL    C9414654   7.201   1.216   3.347  0.3474  1.2285 -0.3500
   81MOL    O9514655   7.160   1.276   3.450 -0.2724 -0.1308 -0.5807
   81MOL    O9614656   7.216   1.273   3.223 -0.3462 -0.3102 -0.0276
   81MOL    H9714657   7.143   1.011   3.291  2.5707 -2.5864 -0.2631
   81MOL    H9814658   7.388   0.930   3.303 -1.8107  0.2557  1.0504
   81MOL    H9914659   7.334   1.018   3.168 -1.4738  3.6218 -1.1367
   81MOL   H10014660   7.429   1.100   3.291  0.4884 -0.4237 -0.6291
   81MOL   C10114661   7.162   1.407   3.199 -0.1971  0.1051 -0.5824
   81MOL   C10214662   7.122   1.430   3.050  0.1440  0.2071 -0.2873
   81MOL   C10314663   7.277   1.508   3.247  0.0877  0.5485 -0.8057
   81MOL   O10414664   7.257   1.599   3.328 -0.7096 -0.2444  0.8543
   81MOL   O10514665   7.399   1.479   3.190 -0.5412  0.0696 -0.6471
   81MOL   H10614666   7.073   1.423   3.258  0.5860  2.2891  0.0246
   81MOL   H10714667   7.040   1.365   3.020  0.0130  0.8763 -1.4128
   81MOL   H10814668   7.078   1.529   3.044  0.7017  0.3535 -2.3410
   81MOL   H10914669   7.205   1.409   2.982  0.8135 -0.7200  0.7895
   81MOL   C11014670   7.513   1.563   3.221  0.3014 -0.4582  0.5859
   81MOL   C11114671   7.580   1.600   3.092  0.2818  0.2845  0.3401
   81MOL   C11214672   7.608   1.494   3.323 -0.3589 -0.2174  0.1210
   81MOL   O11314673   7.625   1.370   3.328  0.4087 -0.2116 -0.2722
   81MOL   O11414674   7.667   1.591   3.403 -0.5816 -0.5240  0.0106
   81MOL   H11514675   7.480   1.659   3.262 -0.5305 -0.4575 -0.0821
   81MOL   H11614676   7.606   1.706   3.089 -0.3213  0.4969  2.3823
   81MOL   H11714677   7.670   1.539   3.078  0.0034 -0.1992  0.6377
   81MOL   H11814678   7.515   1.578   3.007 -0.4052  1.2145  0.6121
   81MOL   C11914679   7.793   1.564   3.462  0.1763 -0.2713 -0.4365
   81MOL   C12014680   7.791   1.637   3.598  0.5256  0.3647  0.3926
   81MOL   C12114681   7.903   1.627   3.368 -0.4505 -0.1142 -0.4658
   81MOL   O12214682   7.879   1.680   3.259  0.3286 -0.6748 -0.1413
   81MOL   O12314683   8.025   1.620   3.427  0.0789 -0.1280  0.3166
   81MOL   H12414684   7.817   1.458   3.472 -0.8128 -0.6689 -2.0374
   81MOL   H12514685   7.706   1.598   3.654 -0.1497 -1.7849 -2.0198
   81MOL   H12614686   7.886   1.607   3.644  0.2032 -2.3535 -0.5767
   81MOL   H12714687   7.771   1.743   3.586  0.2316  0.5274  2.2852
   81MOL   C12814688   8.141   1.673   3.366 -0.4847 -0.3431 -0.3521
   81MOL   C12914689   0.044   1.592   3.248  0.2861  0.0378  0.4503
   81MOL   C13014690   0.094   1.715   3.471  0.6868 -0.2623  0.2453
   81MOL   O13114691   0.209   1.682   3.462  0.1327 -0.1493 -0.2284
   81MOL   O13214692   0.045   1.797   3.569  0.2588  0.2352  0.2954
   81MOL   H13314693   8.119   1.772   3.327  1.4854 -0.9020 -3.0226
   81MOL   H13414694   8.115   1.576   3.172 -1.6213 -0.7898  2.5113
   81MOL   H13514695   0.130   1.639   3.200  0.6064  1.8690  2.7388
   81MOL   H13614696   0.059   1.487   3.272 -1.6416 -0.9663 -2.4211
   81MOL   C13714697   0.124   1.831   3.682  0.0835 -0.4098 -0.4782
   81MOL   C13814698   0.228   1.946   3.656  0.5657  0.0905 -0.1193
   81MOL   C13914699   0.170   1.710   3.757 -0.0930  0.3096  0.2109
   81MOL   O14014700   0.271   1.717   3.820 -0.0691  0.2953  0.2767
   81MOL   O14114701   0.107   1.601   3.731 -0.7988  0.1786 -0.1435
   81MOL   H14214702   0.040   1.867   3.742  0.2010 -0.1448 -0.4703
   81MOL   H14314703   0.303   1.912   3.584  0.3281 -1.9344  0.5621
   81MOL   H14414704   0.185   2.040   3.620  2.0240  0.8525  0.1051
   81MOL   H14514705   0.270   1.971   3.753 -1.3636 -0.8483  0.9893
   81MOL   C14614706   0.154   1.469   3.735 -0.1397 -0.2600  0.3472
   81MOL   C14714707   0.116   1.404   3.599  0.1646  0.3651  0.5195
   81MOL   C14814708   0.085   1.396   3.852  0.0269 -0.6939  0.2093
   81MOL   O14914709   0.125   1.407   3.969 -0.6009 -0.4213 -0.1976
   81MOL   O15014710   8.130   1.325   3.808  0.4795  0.2871  0.0074
   81MOL   H15114711   0.261   1.460   3.756 -0.2301  1.0834  1.4873
   81MOL   H15214712   0.013   1.419   3.565 -0.5883 -0.5899  2.3245
   81MOL   H15314713   0.186   1.448   3.528  1.8688  0.1442  2.0481
   81MOL   H15414714   0.136   1.297   3.592  0.8898  0.5151  0.2257
   81MOL   C15514715   8.043   1.252   3.886 -0.3037 -0.5972  0.1590
   81MOL   C15614716   7.931   1.193   3.792  0.1676  0.0893  0.0085
   81MOL   C15714717   7.973   1.339   3.989 -0.8061  0.3713  0.0960
   81MOL   O15814718   7.944   1.458   3.965  0.3579  0.2630  0.6175
   81MOL   O15914719   7.950   1.268   4.107  0.2009  0.1565  0.0588
   81MOL   H16014720   8.106   1.176   3.933 -0.7081 -0.8397  0.3068
   81MOL   H16114721   7.876   1.110   3.838 -1.3095  1.1264  0.1234
   81MOL   H16214722   7.860   1.261   3.746  0.6403  0.9992  0.6005
   81MOL   H16314723   7.995   1.149   3.715 -1.0240  1.2692 -1.6616
   81MOL   C16414724   7.896   1.340   4.217  0.4985 -0.3186  0.3394
   81MOL   C16514725   7.895   1.240   4.333 -0.2385  0.2178 -0.0681
   81MOL   C16614726   7.743   1.366   4.200 -0.0222  0.3737  0.3566
   81MOL   O16714727   7.652   1.285   4.215  0.3575  0.6535  0.6296
   81MOL   O16814728   7.720   1.486   4.158 -0.1855 -0.4155 -0.1390
   81MOL   H16914729   7.949   1.434   4.234 -0.7002  0.6104 -0.8347
   81MOL   H17014730   7.999   1.227   4.364  0.0461  1.0056 -0.6861
   81MOL   H17114731   7.841   1.273   4.421  2.6642  1.0545  1.4471
   81MOL   H17214732   7.842   1.148   4.309  0.1546 -0.2618  0.8899
   81MOL   C17314733   7.586   1.542   4.157 -0.0262 -0.5181  0.2551
   81MOL   C17414734   7.594   1.683   4.105  0.8715 -0.0437 -0.3095
   81MOL   C17514735   7.518   1.531   4.296 -0.5487 -0.1379 -0.1633
   81MOL   O17614736   7.409   1.479   4.322 -0.6866 -0.8050  0.3917
   81MOL   O17714737   7.591   1.597   4.392 -0.1769 -0.4511 -0.2212
   81MOL   H17814738   7.534   1.474   4.089  0.5627 -0.2097 -0.5099
   81MOL   H17914739   7.646   1.690   4.009  1.6520 -1.0718  0.0358
   81MOL   H18014740   7.492   1.716   4.086  1.0456  0.4414 -0.4003
   81MOL   H18114741   7.648   1.749   4.172  2.4752 -1.6460  0.0299
   81MOL   H18214742   7.547   1.610   4.475  0.3914  1.7776 -0.2183
   82MOL     C114743   2.332   1.580   6.802 -0.2467  0.0328  0.3888
   82MOL     C214744   2.426   1.676   6.874  0.2852  0.5102  0.1870
   82MOL     C314745   2.235   1.644   6.704  0.4476 -0.7553  0.4295
   82MOL     O414746   2.131   1.712   6.737 -0.3274 -0.0956 -0.4826
   82MOL     O514747   2.285   1.633   6.578 -0.0760  0.1354 -0.9727
   82MOL     H614748   2.388   1.499   6.754  0.4972  0.6662  0.1798
   82MOL     H714749   2.370   1.744   6.939  0.0308  1.4931 -1.0490
   82MOL     H814750   2.486   1.624   6.949 -1.3351  2.5125  2.9982
   82MOL     H914751   2.480   1.742   6.806  2.7551 -0.8280  0.7894
   82MOL    H1014752   2.281   1.528   6.883  1.1012 -0.8422  0.6984
   82MOL    C1114753   2.211   1.642   6.452 -0.0873 -0.0567 -0.4994
   82MOL    C1214754   2.176   1.791   6.432  0.6366 -0.3167  0.0524
   82MOL    C1314755   2.084   1.553   6.446 -0.8910 -0.3754 -0.5588
   82MOL    O1414756   1.975   1.584   6.395  0.0536  0.6289  0.4041
   82MOL    O1514757   2.115   1.431   6.489 -0.2637  0.4307 -0.3877
   82MOL    H1614758   2.277   1.605   6.374  0.7014 -0.7648  0.4985
   82MOL    H1714759   2.089   1.823   6.489  2.0615  1.3442  1.3473
   82MOL    H1814760   2.259   1.859   6.449 -0.5344  0.2031  4.2873
   82MOL    H1914761   2.136   1.810   6.332 -3.4031 -0.2516  1.5494
   82MOL    C2014762   2.034   1.319   6.489 -0.1716 -0.9544 -0.9886
   82MOL    C2114763   2.087   1.205   6.572 -0.0943 -0.2270  0.2670
   82MOL    C2214764   1.998   1.280   6.345  0.2889  0.1969  0.7616
   82MOL    O2314765   1.888   1.301   6.304  0.3265  0.2848 -0.1871
   82MOL    O2414766   2.108   1.252   6.274  0.0481 -0.0231 -0.6342
   82MOL    H2514767   1.942   1.343   6.543  1.3165  1.3958  0.6030
   82MOL    H2614768   2.003   1.144   6.604 -0.1201 -0.0799  0.4760
   82MOL    H2714769   2.152   1.146   6.506 -0.3311  0.7082 -0.8102
   82MOL    H2814770   2.158   1.248   6.642  1.3242 -3.9065  1.2363
   82MOL    C2914771   2.113   1.254   6.131  0.4294  0.3355 -0.2267
   82MOL    C3014772   2.261   1.215   6.102 -0.2854  0.5008 -0.3307
   82MOL    C3114773   2.088   1.394   6.071 -0.2472  0.1796 -0.4630
   82MOL    O3214774   2.149   1.493   6.121  0.5718  0.1332  0.0696
   82MOL    O3314775   1.983   1.393   5.973  0.6952 -0.1844 -0.1544
   82MOL    H3414776   2.036   1.186   6.095  0.0359  0.8727 -0.4025
   82MOL    H3514777   2.275   1.107   6.113 -0.5203  0.3260 -1.6382
   82MOL    H3614778   2.284   1.226   5.996  0.9438  0.6110 -0.0621
   82MOL    H3714779   2.339   1.274   6.150  0.2869 -0.1708 -0.4275
   82MOL    C3814780   1.955   1.499   5.880  0.3183  0.0845 -1.0456
   82MOL    C3914781   1.815   1.469   5.819 -0.0521  0.2814  0.0418
   82MOL    C4014782   2.068   1.512   5.778 -0.6984  0.6115  0.4414
   82MOL    O4114783   2.093   1.614   5.716 -0.1549  0.0627  0.1888
   82MOL    O4214784   2.134   1.387   5.758  0.0581 -0.2400  0.2572
   82MOL    H4314785   1.939   1.589   5.939  0.0871 -0.5494 -0.1286
   82MOL    H4414786   1.813   1.371   5.773  0.6545  0.5068 -0.4759
   82MOL    H4514787   1.733   1.472   5.890  0.2895  1.0099  0.4169
   82MOL    H4614788   1.786   1.547   5.748 -0.1270  0.2046 -0.0110
   82MOL    C4714789   2.239   1.367   5.666  0.1689 -0.4803 -0.1817
   82MOL    C4814790   2.237   1.211   5.640 -0.1035  0.2182 -0.1001
   82MOL    C4914791   2.375   1.412   5.729  0.3815 -0.1587 -0.2717
   82MOL    O5014792   2.390   1.455   5.842 -0.0938 -0.7408 -0.4295
   82MOL    O5114793   2.472   1.386   5.636  0.7233  0.5746 -0.5137
   82MOL    H5214794   2.219   1.426   5.577  1.9958 -0.2987 -0.5028
   82MOL    H5314795   2.257   1.153   5.730  3.0126 -0.7800 -1.3755
   82MOL    H5414796   2.134   1.183   5.616 -1.3076  0.3393  4.4285
   82MOL    H5514797   2.306   1.179   5.562 -0.8165 -1.4532 -0.0657
   82MOL    C5614798   2.611   1.405   5.661 -0.0649  0.4317 -0.4202
   82MOL    C5714799   2.666   1.430   5.520  0.8845 -0.0626  0.0497
   82MOL    C5814800   2.674   1.283   5.725 -0.6710  0.1428  0.1104
   82MOL    O5914801   2.792   1.240   5.699 -0.4721 -0.3564 -0.7534
   82MOL    O6014802   2.598   1.213   5.811 -0.5408  0.1655 -1.1320
   82MOL    H6114803   2.634   1.484   5.732 -1.9293 -0.4605  1.2148
   82MOL    H6214804   2.774   1.432   5.509  1.1420 -1.1555  2.1031
   82MOL    H6314805   2.638   1.351   5.452  0.8750  0.1568 -0.2017
   82MOL    H6414806   2.619   1.519   5.477  1.8461 -0.7060 -2.3466
   82MOL    C6514807   2.650   1.098   5.887 -0.3347 -0.9504 -0.4298
   82MOL    C6614808   2.523   1.021   5.935  0.9675  0.1841  0.1716
   82MOL    C6714809   2.725   1.151   6.015 -0.8427 -0.2222 -0.2854
   82MOL    O6814810   2.679   1.150   6.132 -0.5156 -0.2798  0.0358
   82MOL    O6914811   2.855   1.193   5.977 -0.0832 -0.6958 -0.3807
   82MOL    H7014812   2.718   1.029   5.837 -2.2512 -2.0802 -1.5603
   82MOL    H7114813   2.444   1.089   5.965  2.0706  2.1944 -1.3920
   82MOL    H7214814   2.470   0.972   5.853  2.6521 -2.9714  0.8664
   82MOL    H7314815   2.540   0.947   6.014 -1.7620  0.5090  1.1378
   82MOL    C7414816   2.941   1.266   6.068 -0.2836  0.9348 -0.4608
   82MOL    C7514817   3.023   1.371   5.992  0.1344 -0.0371 -0.1169
   82MOL    C7614818   3.034   1.170   6.151 -0.1790 -0.2302 -0.2407
   82MOL    O7714819   3.046   1.052   6.125 -0.2048 -0.2199  0.9832
   82MOL    O7814820   3.100   1.239   6.256  0.4483  0.0054 -0.0770
   82MOL    H7914821   2.879   1.313   6.145 -2.1535 -0.8855 -0.8381
   82MOL    H8014822   2.966   1.413   5.909  0.1694  0.5192  0.1355
   82MOL    H8114823   3.067   1.454   6.048 -0.1234  0.6250 -0.8837
   82MOL    H8214824   3.110   1.327   5.944  2.2131  0.3464  3.1297
   82MOL    C8314825   3.210   1.180   6.330  0.6463 -0.0078  0.5847
   82MOL    C8414826   3.218   1.265   6.456  0.8890 -0.0581  0.0235
   82MOL    C8514827   3.340   1.185   6.247 -0.0069 -0.5216  0.3539
   82MOL    O8614828   3.342   1.248   6.147 -0.4532 -0.0165 -0.2839
   82MOL    O8714829   3.443   1.120   6.307  0.6770  0.2885 -0.0402
   82MOL    H8814830   3.183   1.076   6.347 -1.6779  0.5283  0.3072
   82MOL    H8914831   3.147   1.238   6.533 -0.0755  1.0421 -0.4675
   82MOL    H9014832   3.317   1.272   6.503  1.1339  0.4745 -0.5662
   82MOL    H9114833   3.185   1.366   6.432 -1.5917 -0.7577  0.3589
   82MOL    C9214834   3.571   1.114   6.245  0.3148  0.3272  0.2201
   82MOL    C9314835   3.631   1.248   6.200  0.0807  0.5932  0.0161
   82MOL    C9414836   3.568   1.012   6.130  0.2375  0.2013 -0.6902
   82MOL    O9514837   3.670   0.942   6.116 -0.4752 -0.0520 -0.6221
   82MOL    O9614838   3.464   1.002   6.055  0.3479 -0.1280  0.2229
   82MOL    H9714839   3.628   1.064   6.323  1.4107 -1.1108 -1.4586
   82MOL    H9814840   3.739   1.259   6.207  0.1909  0.0560 -0.8672
   82MOL    H9914841   3.601   1.275   6.099 -1.5356 -1.5412 -0.1139
   82MOL   H10014842   3.594   1.320   6.273 -0.9081  0.0717  0.0381
   82MOL   C10114843   3.434   0.905   5.952  0.5430  0.3047 -0.3668
   82MOL   C10214844   3.312   0.957   5.875 -0.3545  0.1962  0.2649
   82MOL   C10314845   3.412   0.768   6.019 -0.2450 -0.1350  0.0103
   82MOL   O10414846   3.435   0.668   5.961  0.5160  0.0833  0.3989
   82MOL   O10514847   3.345   0.769   6.136  0.2623 -0.3904 -0.2812
   82MOL   H10614848   3.522   0.895   5.890 -0.3510 -1.1246 -1.4205
   82MOL   H10714849   3.233   0.982   5.945 -1.9339 -0.6511 -1.1813
   82MOL   H10814850   3.329   1.053   5.826 -0.6830  0.8938  1.5030
   82MOL   H10914851   3.278   0.885   5.801  0.0644  1.5129 -1.2282
   82MOL   C11014852   3.304   0.653   6.201  0.3856 -0.2261 -0.1889
   82MOL   C11114853   3.159   0.670   6.242  0.5663 -0.6238  0.0294
   82MOL   C11214854   3.392   0.619   6.318 -0.2731 -0.6234 -0.4553
   82MOL   O11314855   3.353   0.571   6.424  0.0959  0.4487  0.2376
   82MOL   O11414856   3.524   0.653   6.295 -0.2443  0.3196  0.2988
   82MOL   H11514857   3.306   0.566   6.135  4.1071  0.9055 -1.6981
   82MOL   H11614858   3.104   0.684   6.149  0.9794 -2.0481 -0.4297
   82MOL   H11714859   3.108   0.584   6.286 -0.3455  0.5676  1.3752
   82MOL   H11814860   3.151   0.749   6.318 -0.6699 -0.4907 -0.2202
   82MOL   C11914861   3.633   0.620   6.381 -0.2629  0.3004 -0.2158
   82MOL   C12014862   3.669   0.464   6.370  0.3578  0.1849 -0.0656
   82MOL   C12114863   3.607   0.667   6.526 -0.5446  0.6151  0.1604
   82MOL   O12214864   3.599   0.588   6.627  0.3720  0.1618  0.5014
   82MOL   O12314865   3.595   0.802   6.527  0.0475 -0.5879 -0.2518
   82MOL   H12414866   3.709   0.678   6.328 -1.2449  0.4956 -1.4157
   82MOL   H12514867   3.766   0.437   6.413  2.1139  0.5430 -3.6871
   82MOL   H12614868   3.602   0.397   6.424 -0.5898  0.3154 -1.0736
   82MOL   H12714869   3.677   0.425   6.269 -5.1473  1.7064 -1.1902
   82MOL   C12814870   3.565   0.878   6.649  0.4056  0.4732 -0.5398
   82MOL   C12914871   3.486   1.002   6.602  0.9018 -0.5280 -0.7605
   82MOL   C13014872   3.694   0.910   6.717  0.2814  0.1737 -0.7861
   82MOL   O13114873   3.801   0.925   6.647  0.0924 -0.4054  0.6725
   82MOL   O13214874   3.687   0.941   6.847  0.9245  0.5373  0.5227
   82MOL   H13314875   3.509   0.813   6.717  1.4524 -0.2903 -0.3893
   82MOL   H13414876   3.549   1.079   6.558  0.7813  0.2364  0.3732
   82MOL   H13514877   3.404   0.978   6.534 -1.1022  0.4414  1.2671
   82MOL   H13614878   3.439   1.051   6.687 -0.4008 -1.4398 -0.9444
   82MOL   C13714879   3.795   1.016   6.911  0.2565  0.5491 -0.5205
   82MOL   C13814880   3.783   0.998   7.061 -0.1860 -0.2681 -0.2071
   82MOL   C13914881   3.806   1.164   6.865  0.7942  0.0422 -0.0114
   82MOL   O14014882   3.920   1.219   6.848  0.1909 -0.6761  0.2385
   82MOL   O14114883   3.686   1.220   6.858  0.1160  0.2929 -0.0538
   82MOL   H14214884   3.883   0.960   6.879  1.2245  2.1766 -0.7607
   82MOL   H14314885   3.760   0.895   7.090  1.2470 -1.0502 -1.7879
   82MOL   H14414886   3.872   1.016   7.122 -0.9289  1.2021  0.4777
   82MOL   H14514887   3.699   1.057   7.100 -0.3639  0.1782 -1.2570
   82MOL   C14614888   3.681   1.358   6.817  0.4371 -0.6086 -0.4655
   82MOL   C14714889   3.547   1.408   6.886  0.3581  0.3199  0.0624
   82MOL   C14814890   3.684   1.367   6.670  0.5751  0.3272  0.5152
   82MOL   O14914891   3.579   1.368   6.605 -0.2599 -0.9580 -0.0959
   82MOL   O15014892   3.806   1.381   6.624 -0.0369  0.2555 -0.1312
   82MOL   H15114893   3.758   1.420   6.864  0.5327 -1.5720  0.6793
   82MOL   H15214894   3.537   1.369   6.987  0.5132 -2.1590 -0.8548
   82MOL   H15314895   3.565   1.516   6.883 -0.7921  0.5336  0.5308
   82MOL   H15414896   3.455   1.402   6.828  1.6223 -1.6466 -1.7957
   82MOL   C15514897   3.836   1.379   6.484 -0.7241 -0.2613  0.8294
   82MOL   C15614898   3.965   1.306   6.464  0.2381  0.0760 -0.2340
   82MOL   C15714899   3.833   1.523   6.436  0.4291  0.1715  0.1527
   82MOL   O15814900   3.736   1.576   6.384  0.0451 -0.1542 -0.1780
   82MOL   O15914901   3.939   1.593   6.480 -0.1925 -0.1265  0.1287
   82MOL   H16014902   3.753   1.327   6.436 -0.2922 -1.1083  0.9959
   82MOL   H16114903   4.045   1.338   6.531  0.4295 -1.9421  0.5606
   82MOL   H16214904   3.948   1.204   6.499 -0.8634  0.4496  0.3255
   82MOL   H16314905   4.007   1.291   6.364  0.1752  3.1429 -0.7572
   82MOL   C16414906   3.963   1.729   6.436  0.2963 -0.4052  0.2728
   82MOL   C16514907   4.107   1.764   6.402  0.5963  0.0601  0.2905
   82MOL   C16614908   3.914   1.816   6.548  0.1471 -0.2184 -0.6075
   82MOL   O16714909   3.981   1.898   6.606  0.1489  0.2238 -0.2748
   82MOL   O16814910   3.777   1.800   6.574 -0.1275  0.1561  0.1833
   82MOL   H16914911   3.901   1.752   6.349  2.1403 -2.0510 -1.5589
   82MOL   H17014912   4.155   1.680   6.351 -0.3011  0.6678 -1.6003
   82MOL   H17114913   4.097   1.841   6.326 -1.3535 -0.8855 -0.4642
   82MOL   H17214914   4.166   1.792   6.489 -0.9228  3.2529  0.3657
   82MOL   C17314915   3.710   1.864   6.679  0.1762  0.3087 -0.4256
   82MOL   C17414916   3.648   1.751   6.763  0.6567 -0.5512  0.4906
   82MOL   C17514917   3.604   1.957   6.623  1.1343  0.4912 -0.3082
   82MOL   O17614918   3.482   1.941   6.636  0.3953  0.1101 -0.2034
   82MOL   O17714919   3.664   2.056   6.559 -0.8102  0.1279  0.0189
   82MOL   H17814920   3.772   1.932   6.737 -0.5333  2.4553 -2.1437
   82MOL   H17914921   3.729   1.697   6.812  1.5709  0.6911  0.3807
   82MOL   H18014922   3.584   1.781   6.846 -0.2208  1.2928 -0.8261
   82MOL   H18114923   3.583   1.695   6.695  0.2272  0.2520  0.2300
   82MOL   H18214924   3.606   2.130   6.553 -0.6389  0.4080  1.5643
   83MOL     C114925   6.864   3.717   1.894  0.5931  0.4954 -0.4935
   83MOL     C214926   6.871   3.589   1.806 -0.6435 -1.0236 -0.4340
   83MOL     C314927   6.935   3.835   1.830  0.6502  0.6954  0.3906
   83MOL     O414928   7.037   3.883   1.885  0.5694 -0.0287  0.3006
   83MOL     O514929   6.873   3.887   1.710 -0.1766 -0.2104  0.6794
   83MOL     H614930   6.764   3.745   1.929  1.4163  1.6436  1.0137
   83MOL     H714931   6.968   3.566   1.763  0.7377  2.4831  0.6000
   83MOL     H814932   6.849   3.500   1.865 -1.2790 -2.6103 -3.0064
   83MOL     H914933   6.797   3.581   1.727  1.8926  0.4723 -3.0490
   83MOL    H1014934   6.916   3.693   1.987 -1.6973 -2.8779  0.0051
   83MOL    C1114935   6.927   3.997   1.637 -0.2556  0.1058 -0.4060
   83MOL    C1214936   6.818   4.089   1.583  0.1733  0.7994 -0.1790
   83MOL    C1314937   7.045   3.951   1.540 -0.2238  0.2959  0.0566
   83MOL    O1414938   7.046   3.839   1.500  0.0438 -0.7373  0.1208
   83MOL    O1514939   7.138   4.050   1.513  0.0034  0.3687  0.3383
   83MOL    H1614940   6.982   4.066   1.702 -1.7847  0.5603  0.4157
   83MOL    H1714941   6.743   4.106   1.660  2.6928  1.8727  2.1075
   83MOL    H1814942   6.847   4.192   1.559 -1.5557  1.0989 -1.0650
   83MOL    H1914943   6.766   4.044   1.498  0.3309 -0.1434  0.2231
   83MOL    C2014944   7.215   4.033   1.398 -0.0514  0.5611 -0.4696
   83MOL    C2114945   7.363   4.059   1.441  0.2318 -0.3917  0.6640
   83MOL    C2214946   7.159   4.141   1.307 -0.1232  0.3386  0.4734
   83MOL    O2314947   7.223   4.241   1.274 -0.2650  0.0715 -0.0392
   83MOL    O2414948   7.030   4.122   1.268  0.2400  0.1937  0.5842
   83MOL    H2514949   7.201   3.939   1.344 -2.1476  1.3759 -1.4020
   83MOL    H2614950   7.385   4.157   1.483 -0.5833  0.9732 -1.9394
   83MOL    H2714951   7.400   3.982   1.508 -0.2549  0.9167  2.4476
   83MOL    H2814952   7.428   4.044   1.355  1.1706  0.0333  1.3019
   83MOL    C2914953   6.953   4.211   1.192 -0.6536 -0.2497  0.2568
   83MOL    C3014954   6.818   4.141   1.188  0.4505  0.7057 -0.7296
   83MOL    C3114955   7.014   4.223   1.053  0.4333  0.5467 -0.4778
   83MOL    O3214956   7.102   4.146   1.008 -0.3420  0.0577  0.3979
   83MOL    O3314957   6.957   4.323   0.983  0.0396 -0.1861 -0.3981
   83MOL    H3414958   6.956   4.304   1.248 -0.0009  0.5236 -1.0694
   83MOL    H3514959   6.776   4.131   1.288  0.2937 -0.9456 -0.9347
   83MOL    H3614960   6.749   4.196   1.124 -1.2458  1.3166  1.5660
   83MOL    H3714961   6.817   4.038   1.153 -0.3373  0.2757  0.5317
   83MOL    C3814962   6.989   4.353   0.844 -0.0293 -0.3322  0.0798
   83MOL    C3914963   6.941   4.246   0.751  0.2581  0.2421  0.0395
   83MOL    C4014964   7.141   4.382   0.819  0.0693  0.1755 -1.0617
   83MOL    O4114965   7.211   4.332   0.729  0.2013  0.4417  0.2280
   83MOL    O4214966   7.183   4.469   0.915 -0.0790 -0.4220 -0.3363
   83MOL    H4314967   6.934   4.444   0.820 -0.9723 -0.9593 -0.1551
   83MOL    H4414968   6.969   4.263   0.647 -2.4467 -2.3964 -1.2151
   83MOL    H4514969   6.973   4.146   0.782 -1.9639  0.2658  2.5284
   83MOL    H4614970   6.833   4.234   0.750  0.0628  2.0605 -0.6594
   83MOL    C4714971   7.325   4.508   0.926 -0.0848  1.0248  0.3830
   83MOL    C4814972   7.345   4.578   1.059  1.2098  0.1847  0.5936
   83MOL    C4914973   7.373   4.599   0.803 -0.3276  0.5746 -0.1351
   83MOL    O5014974   7.297   4.629   0.712  0.3780  0.6707 -0.2050
   83MOL    O5114975   7.497   4.653   0.824 -0.3647 -0.3633 -0.0771
   83MOL    H5214976   7.382   4.415   0.930 -1.8030 -0.0686 -0.1223
   83MOL    H5314977   7.452   4.589   1.076  1.3974 -2.3086  1.1584
   83MOL    H5414978   7.302   4.678   1.051  0.4253 -0.2813 -1.1841
   83MOL    H5514979   7.300   4.522   1.140  1.4041  1.1980  1.4206
   83MOL    C5614980   7.544   4.752   0.736  0.7372 -0.1777 -0.7134
   83MOL    C5714981   7.691   4.758   0.758  0.5396  0.3642 -0.3056
   83MOL    C5814982   7.474   4.891   0.765 -0.5894  0.5228  0.9331
   83MOL    O5914983   7.436   4.969   0.678 -0.6335 -0.0293 -0.5721
   83MOL    O6014984   7.468   4.918   0.899  0.6147 -0.4686 -0.2564
   83MOL    H6114985   7.525   4.717   0.634  1.2707 -1.8725 -0.2349
   83MOL    H6214986   7.738   4.827   0.688  1.4355 -0.1837 -0.2505
   83MOL    H6314987   7.717   4.796   0.857  1.3010  0.3644 -0.5033
   83MOL    H6414988   7.728   4.657   0.742  0.1147  0.0829  0.4574
   83MOL    C6514989   7.383   5.023   0.953  0.1266  0.4553 -0.1100
   83MOL    C6614990   7.432   5.066   1.087 -0.1173 -0.6909 -0.2088
   83MOL    C6714991   7.236   4.985   0.959 -0.2436 -0.3895  0.7173
   83MOL    O6814992   7.196   4.871   0.953  0.1263 -0.2245  0.2796
   83MOL    O6914993   7.152   5.094   0.965  0.3179  0.5849 -0.2149
   83MOL    H7014994   7.392   5.109   0.888  1.1224  2.1031  2.1325
   83MOL    H7114995   7.517   5.131   1.070  0.7098 -1.4088  1.1393
   83MOL    H7214996   7.358   5.136   1.125  1.0498 -0.5388  1.8184
   83MOL    H7314997   7.451   4.991   1.164  0.2883  0.3111  0.6714
   83MOL    C7414998   7.010   5.081   0.954 -0.1681  0.5136 -0.1944
   83MOL    C7514999   6.958   5.203   0.869  0.5155  0.1026  0.3126
   83MOL    C7615000   6.958   5.085   1.096  0.3718  0.1917  0.3911
   83MOL    O7715001   6.981   4.986   1.167  0.2910  0.6841  0.1905
   83MOL    O7815002   6.874   5.186   1.130 -0.3341  0.0681 -0.3034
   83MOL    H7915003   6.973   4.986   0.917 -1.9799  1.3186 -0.4908
   83MOL    H8015004   6.853   5.204   0.842  0.4705  0.8090  0.5118
   83MOL    H8115005   6.992   5.300   0.905  1.5765 -0.1668  0.0732
   83MOL    H8215006   6.999   5.195   0.769  1.4080 -2.2609  0.8311
   83MOL    C8315007   6.809   5.189   1.259  0.3358  0.2161  0.4234
   83MOL    C8415008   6.672   5.263   1.241  0.5762 -0.1084  0.6057
   83MOL    C8515009   6.894   5.248   1.370 -0.2920 -0.0819  0.4773
   83MOL    O8615010   6.864   5.355   1.420 -0.4421 -0.4905 -0.4965
   83MOL    O8715011   7.003   5.177   1.394  0.3810 -0.4456  0.5746
   83MOL    H8815012   6.792   5.086   1.288  0.8702 -0.6658 -2.2609
   83MOL    H8915013   6.691   5.364   1.204 -3.5027  0.0013 -1.4252
   83MOL    H9015014   6.616   5.209   1.165  2.3352 -0.0211 -0.7839
   83MOL    H9115015   6.621   5.269   1.338  1.1289  1.8569  0.7990
   83MOL    C9215016   7.098   5.227   1.488  0.2673  0.0182 -0.3836
   83MOL    C9315017   7.230   5.176   1.434 -0.3866 -0.1499 -0.1385
   83MOL    C9415018   7.069   5.180   1.633 -0.0022  1.0374  0.4865
   83MOL    O9515019   6.996   5.088   1.654  0.2328 -0.0869  0.4386
   83MOL    O9615020   7.147   5.239   1.728  0.3300 -0.1277  0.5951
   83MOL    H9715021   7.090   5.335   1.497  0.1762 -0.0008 -0.2372
   83MOL    H9815022   7.297   5.169   1.519  0.3439 -0.9477 -0.7693
   83MOL    H9915023   7.230   5.090   1.367 -0.4514  0.4063 -0.8608
   83MOL   H10015024   7.269   5.258   1.374  0.3482  0.0208  0.5610
   83MOL   C10115025   7.142   5.215   1.866  0.1927 -0.0570 -0.0589
   83MOL   C10215026   7.099   5.351   1.927  0.1479  0.5441 -0.2846
   83MOL   C10315027   7.281   5.184   1.909  0.0229  0.7284 -0.5198
   83MOL   O10415028   7.379   5.195   1.840 -0.4294  0.2692  0.1413
   83MOL   O10515029   7.289   5.161   2.037 -0.0480 -0.3323  0.4565
   83MOL   H10615030   7.079   5.129   1.891  0.1036 -0.2616 -0.9685
   83MOL   H10715031   7.094   5.359   2.036 -0.7317  2.2831 -0.4517
   83MOL   H10815032   7.141   5.447   1.899 -0.2030  0.6537 -0.4276
   83MOL   H10915033   7.000   5.368   1.886 -0.5207 -0.6011  0.8056
   83MOL   C11015034   7.414   5.176   2.106 -0.1984  0.0806  0.2062
   83MOL   C11115035   7.410   5.100   2.246  0.4544  0.5158  0.0553
   83MOL   C11215036   7.454   5.323   2.125 -0.0276 -0.4676  0.4408
   83MOL   O11315037   7.382   5.418   2.116 -0.3221 -0.0171 -0.3690
   83MOL   O11415038   7.584   5.333   2.154  0.2419 -0.0035  0.0267
   83MOL   H11515039   7.488   5.116   2.055 -2.3825 -1.9202 -0.7010
   83MOL   H11615040   7.506   5.100   2.298  0.3775  1.2673  0.2039
   83MOL   H11715041   7.334   5.139   2.314 -0.0789 -1.2752  0.4976
   83MOL   H11815042   7.397   4.995   2.221  0.5720  1.2345 -3.2580
   83MOL   C11915043   7.642   5.454   2.206 -0.8592  0.1914 -0.0369
   83MOL   C12015044   7.799   5.435   2.210  0.2727  0.3947  0.1077
   83MOL   C12115045   7.592   5.492   2.342  0.4891  0.0764 -0.1394
   83MOL   O12215046   7.576   5.611   2.374 -0.3801 -0.6741 -0.2603
   83MOL   O12315047   7.578   5.387   2.426  0.1171  0.3001 -0.3848
   83MOL   H12415048   7.623   5.539   2.141 -0.8414  0.4096  0.2442
   83MOL   H12515049   7.837   5.404   2.113 -0.7622  0.9753 -0.4999
   83MOL   H12615050   7.851   5.530   2.223 -1.4731  1.6121 -1.5485
   83MOL   H12715051   7.824   5.363   2.288  0.0106 -0.1103 -0.2703
   83MOL   C12815052   7.516   5.393   2.553  0.0601 -0.4216  0.0250
   83MOL   C12915053   7.520   5.254   2.615  0.2012  0.2961  0.4838
   83MOL   C13015054   7.373   5.453   2.546  0.2276 -0.1719 -0.0559
   83MOL   O13115055   7.344   5.549   2.623  0.1195 -0.1198  0.3099
   83MOL   O13215056   7.296   5.410   2.441 -0.1081  0.2186  0.0227
   83MOL   H13315057   7.574   5.461   2.615 -0.0314 -1.0978  0.8697
   83MOL   H13415058   7.462   5.182   2.557  2.4967 -1.4576  0.2883
   83MOL   H13515059   7.621   5.213   2.617  0.0415 -0.0443  1.8115
   83MOL   H13615060   7.480   5.246   2.716 -0.2051  0.3996  0.3314
   83MOL   C13715061   7.162   5.453   2.421  0.6862  0.1931 -0.2242
   83MOL   C13815062   7.093   5.345   2.333  0.0813 -0.2786 -0.1331
   83MOL   C13915063   7.149   5.598   2.373 -0.7195  0.7696  0.1132
   83MOL   O14015064   7.069   5.674   2.425 -0.2379 -0.1807  0.8438
   83MOL   O14115065   7.232   5.638   2.277 -0.1465  0.3464 -0.0575
   83MOL   H14215066   7.112   5.438   2.517 -0.0118 -0.7475 -0.7381
   83MOL   H14315067   7.155   5.322   2.247 -0.6411 -1.4464 -0.3525
   83MOL   H14415068   7.076   5.250   2.384  0.1009 -0.0000  0.4055
   83MOL   H14515069   7.000   5.388   2.296 -0.6113 -1.1803  0.5328
   83MOL   C14615070   7.220   5.770   2.209  0.1717  0.4220 -0.3292
   83MOL   C14715071   7.270   5.763   2.066 -0.2786 -0.3187 -0.0337
   83MOL   C14815072   7.302   5.880   2.285  0.4873  0.9419 -0.4057
   83MOL   O14915073   7.381   5.954   2.231 -0.0716  0.0416 -0.5179
   83MOL   O15015074   7.263   5.889   2.414 -0.0629  0.8699 -0.1494
   83MOL   H15115075   7.113   5.791   2.213 -0.0193 -0.6568  0.2020
   83MOL   H15215076   7.201   5.698   2.012  2.9164 -2.8477 -1.2416
   83MOL   H15315077   7.266   5.865   2.029  0.0019 -0.3481 -0.1493
   83MOL   H15415078   7.374   5.730   2.055 -0.2764 -0.0538 -0.8115
   83MOL   C15515079   7.341   5.955   2.514 -0.1480  0.3847 -0.2683
   83MOL   C15615080   7.460   5.873   2.556 -1.3574 -0.0693 -0.8970
   83MOL   C15715081   7.250   5.972   2.640  0.0623  0.4240  0.7729
   83MOL   O15815082   7.227   6.078   2.689  0.0460 -0.1451 -0.1414
   83MOL   O15915083   7.195   5.855   2.685 -0.1105  0.7878  0.4718
   83MOL   H16015084   7.365   6.057   2.483 -0.6013 -0.1748 -2.5578
   83MOL   H16115085   7.492   5.911   2.653 -0.1517 -3.3847  0.0701
   83MOL   H16215086   7.426   5.770   2.566  0.1208 -0.5812 -0.9292
   83MOL   H16315087   7.538   5.879   2.480 -0.9705 -2.0821 -0.6982
   83MOL   C16415088   7.119   5.855   2.799 -0.0375 -0.7426 -0.3045
   83MOL   C16515089   7.094   5.708   2.822  0.0639  0.3840 -0.2163
   83MOL   C16615090   6.988   5.939   2.787  0.7067 -0.5474 -0.6435
   83MOL   O16715091   6.928   5.963   2.678 -0.3965 -0.1948 -0.0037
   83MOL   O16815092   6.930   5.976   2.905 -0.0801 -0.2642  0.4973
   83MOL   H16915093   7.179   5.887   2.884 -1.9073  0.3265  0.6514
   83MOL   H17015094   7.037   5.680   2.911 -1.4256 -0.1299 -1.3184
   83MOL   H17115095   7.030   5.674   2.741 -0.9555  4.2429 -1.1015
   83MOL   H17215096   7.185   5.648   2.825  1.0511  1.8894  0.2865
   83MOL   C17315097   6.793   6.011   2.917  0.1047  0.5916  0.2406
   83MOL   C17415098   6.789   6.153   2.985 -0.4826 -0.5602  0.1940
   83MOL   C17515099   6.710   5.897   2.979 -0.5593 -0.9802 -0.6794
   83MOL   O17615100   6.644   5.915   3.086  0.2124  0.3998 -0.0975
   83MOL   O17715101   6.710   5.780   2.902  0.3612 -0.8635  0.1262
   83MOL   H17815102   6.756   6.025   2.816  0.4984 -0.3104 -0.0352
   83MOL   H17915103   6.870   6.212   2.943  0.3497 -2.6948 -1.2946
   83MOL   H18015104   6.690   6.198   2.977 -0.0861 -0.0041 -1.6584
   83MOL   H18115105   6.807   6.160   3.093  3.8308 -1.1594 -0.3948
   83MOL   H18215106   6.650   5.714   2.932  1.6939 -0.9727  2.6901
   84MOL     C115107   5.711   6.806   3.527 -0.8431 -0.4234 -0.1163
   84MOL     C215108   5.798   6.930   3.566 -0.3133 -0.4235  1.1966
   84MOL     C315109   5.562   6.829   3.548 -1.2780 -0.4148 -0.0453
   84MOL     O415110   5.485   6.845   3.456 -0.4843  0.2248  0.0626
   84MOL     O515111   5.529   6.843   3.676  0.3564 -0.1194 -0.6983
   84MOL     H615112   5.733   6.773   3.426 -0.8090 -1.2661  0.1614
   84MOL     H715113   5.900   6.895   3.577 -0.3252 -1.6749 -2.0039
   84MOL     H815114   5.803   7.003   3.485  2.4072 -2.3163 -0.4200
   84MOL     H915115   5.764   6.983   3.655  1.0773 -0.9452  2.0577
   84MOL    H1015116   5.741   6.730   3.600  0.9144  0.2567 -0.1226
   84MOL    C1115117   5.399   6.883   3.715 -0.5544  0.2118 -0.3095
   84MOL    C1215118   5.390   6.907   3.866 -0.1750  0.6531  0.0779
   84MOL    C1315119   5.283   6.783   3.674  0.2908 -0.8429 -0.1462
   84MOL    O1415120   5.302   6.662   3.656  0.0049 -0.9675  0.4003
   84MOL    O1515121   5.165   6.848   3.666  0.0318  0.0734  0.0640
   84MOL    H1615122   5.361   6.973   3.667  0.2743  1.1367  0.7343
   84MOL    H1715123   5.480   6.959   3.900 -0.5323  0.7853  0.8396
   84MOL    H1815124   5.309   6.978   3.885  0.8925  1.7986  0.4097
   84MOL    H1915125   5.378   6.816   3.924  1.0635  0.3476 -0.1411
   84MOL    C2015126   5.044   6.778   3.632  0.3494  0.4082 -0.0625
   84MOL    C2115127   5.006   6.784   3.487  0.1664  0.1426 -0.2605
   84MOL    C2215128   4.929   6.852   3.709  0.1588  0.1517  0.6324
   84MOL    O2315129   4.841   6.794   3.767 -0.4849  0.0028  0.1423
   84MOL    O2415130   4.942   6.990   3.711  0.1428  0.0011 -0.2577
   84MOL    H2515131   5.048   6.674   3.663  0.3533  0.3921 -0.1158
   84MOL    H2615132   5.006   6.887   3.451 -1.4374  1.0810  2.2861
   84MOL    H2715133   5.071   6.712   3.438 -0.3154 -0.5799  0.1552
   84MOL    H2815134   4.906   6.743   3.474  0.1219  0.0223  0.4312
   84MOL    C2915135   4.852   7.073   3.774  0.2615 -0.1033  0.3306
   84MOL    C3015136   4.866   7.204   3.696  0.0519 -0.4726  0.1809
   84MOL    C3115137   4.880   7.075   3.921  0.4049 -0.1013 -0.0619
   84MOL    O3215138   4.982   7.040   3.976  0.2836  0.1704  0.4966
   84MOL    O3315139   4.772   7.124   3.985  0.0767  0.6220  0.1003
   84MOL    H3415140   4.754   7.027   3.760 -0.5787  2.0163 -0.9924
   84MOL    H3515141   4.804   7.195   3.607 -1.1790  3.1542  0.5906
   84MOL    H3615142   4.828   7.294   3.745 -3.3635 -1.6120 -0.2707
   84MOL    H3715143   4.970   7.225   3.673 -0.4254  0.5857 -1.0257
   84MOL    C3815144   4.775   7.168   4.121 -0.0663  0.0031  0.4367
   84MOL    C3915145   4.644   7.157   4.186  0.4873 -0.0600 -0.4376
   84MOL    C4015146   4.831   7.313   4.125 -0.7423 -0.4483 -0.0128
   84MOL    O4115147   4.943   7.334   4.179 -0.7267  0.0519  0.9267
   84MOL    O4215148   4.738   7.404   4.081 -0.4850 -0.1793 -0.5087
   84MOL    H4315149   4.857   7.113   4.169  0.5735 -1.4077 -2.1673
   84MOL    H4415150   4.621   7.056   4.218 -0.8186  0.7385  1.2460
   84MOL    H4515151   4.634   7.214   4.278  1.4600 -2.3391  1.1135
   84MOL    H4615152   4.561   7.191   4.123 -1.1841  1.6711  2.6011
   84MOL    C4715153   4.743   7.543   4.117 -0.0978  0.1525 -0.7605
   84MOL    C4815154   4.608   7.596   4.132  0.6392 -0.1717  0.1817
   84MOL    C4915155   4.829   7.616   4.001  0.1138 -0.2946 -0.2798
   84MOL    O5015156   4.911   7.551   3.935  0.4437  0.2560  0.4874
   84MOL    O5115157   4.811   7.755   4.005 -0.6155  0.1015 -0.1547
   84MOL    H5215158   4.799   7.550   4.210 -1.7022  0.8965  0.1620
   84MOL    H5315159   4.546   7.559   4.213 -0.1244  2.0359  0.6417
   84MOL    H5415160   4.619   7.704   4.144 -1.2953  0.0636  0.0268
   84MOL    H5515161   4.557   7.586   4.037 -0.8412  0.1323  0.9358
   84MOL    C5615162   4.871   7.836   3.903 -0.5082  0.0063  0.1543
   84MOL    C5715163   5.010   7.911   3.922 -0.7397 -0.8310 -0.6760
   84MOL    C5815164   4.756   7.929   3.845 -0.4247 -0.0354  0.1521
   84MOL    O5915165   4.776   8.032   3.786  0.1774 -0.3123 -0.2130
   84MOL    O6015166   4.637   7.879   3.862 -0.1887 -0.3930  0.2372
   84MOL    H6115167   4.897   7.772   3.819  0.0152  0.1345  0.2154
   84MOL    H6215168   5.035   7.951   3.824 -3.8474 -0.5972 -1.4233
   84MOL    H6315169   5.013   7.993   3.993  1.0370 -2.1649  0.8342
   84MOL    H6415170   5.086   7.836   3.946  0.0909  0.1323 -0.2277
   84MOL    C6515171   4.519   7.947   3.818 -0.9239 -0.1308  0.2458
   84MOL    C6615172   4.397   7.880   3.883 -0.0045  0.2534  0.0949
   84MOL    C6715173   4.499   7.962   3.670 -0.1223  0.3355 -0.2300
   84MOL    O6815174   4.576   7.910   3.584  0.4117 -0.1187 -0.2171
   84MOL    O6915175   4.389   8.034   3.639  0.0691  0.4883  0.5845
   84MOL    H7015176   4.520   8.049   3.856  0.9558 -0.1024  0.1949
   84MOL    H7115177   4.409   7.880   3.992 -0.3491  1.3441  0.1464
   84MOL    H7215178   4.302   7.931   3.871 -0.3499 -0.4703 -0.2457
   84MOL    H7315179   4.390   7.779   3.843  0.1783 -0.9911  3.0445
   84MOL    C7415180   4.347   8.057   3.504  0.0609  0.5331 -0.3894
   84MOL    C7515181   4.250   0.026   3.498  0.8000  0.1601 -0.4068
   84MOL    C7615182   4.282   7.928   3.446 -0.2887  0.4523 -0.0742
   84MOL    O7715183   4.252   7.832   3.513 -0.0719  0.0861 -0.1324
   84MOL    O7815184   4.256   7.943   3.317 -0.0784 -0.1259  0.0487
   84MOL    H7915185   4.429   8.094   3.443  1.8596 -1.2168  0.8684
   84MOL    H8015186   4.228   0.080   3.406 -2.9000 -0.2487  0.1302
   84MOL    H8115187   4.149   8.142   3.528  1.1177  0.2560  0.7736
   84MOL    H8215188   4.283   0.105   3.565 -1.3849  1.4017 -0.7361
   84MOL    C8315189   4.197   7.849   3.233  0.2600 -0.1690  0.2624
   84MOL    C8415190   4.287   7.722   3.214 -0.0497 -0.5370  0.6190
   84MOL    C8515191   4.159   7.920   3.099  0.7609  0.0989  0.3453
   84MOL    O8615192   4.045   7.965   3.090 -0.5754 -0.3039  0.2354
   84MOL    O8715193   4.261   7.946   3.018 -0.3211 -0.3245  0.4252
   84MOL    H8815194   4.104   7.825   3.286  0.5846  2.3023  2.0304
   84MOL    H8915195   4.241   7.635   3.262 -1.0477  1.0197  2.5413
   84MOL    H9015196   4.322   7.696   3.114 -1.8543  0.3794 -0.2862
   84MOL    H9115197   4.379   7.738   3.270  0.4406 -0.8188 -0.0866
   84MOL    C9215198   4.261   8.053   2.927  0.2766 -0.2043 -0.6589
   84MOL    C9315199   4.370   8.018   2.832 -0.1703 -0.2745 -0.2378
   84MOL    C9415200   4.301   0.042   2.995  0.4843  0.3082 -0.1898
   84MOL    O9515201   4.332   0.053   3.118  0.2855 -0.1859  0.5872
   84MOL    O9615202   4.297   0.144   2.900 -0.0143 -0.3842 -0.6389
   84MOL    H9715203   4.163   8.061   2.880  0.2776 -0.7402 -0.7568
   84MOL    H9815204   4.396   8.096   2.760 -0.4030  2.5104  2.5972
   84MOL    H9915205   4.465   8.001   2.881 -0.8342  1.7745  1.8090
   84MOL   H10015206   4.346   7.930   2.772 -1.8949  0.1142 -0.1558
   84MOL   C10115207   4.373   0.266   2.927  1.0359  0.0712 -0.5517
   84MOL   C10215208   4.341   0.360   2.816  0.1377 -0.7351  0.0045
   84MOL   C10315209   4.528   0.246   2.937  0.2969  0.3425 -0.0215
   84MOL   O10415210   4.582   0.139   2.928 -0.6213  0.4463  0.2271
   84MOL   O10515211   4.586   0.363   2.960 -0.1228 -0.2616  0.2881
   84MOL   H10615212   4.335   0.310   3.019 -1.0097  3.1329 -2.7671
   84MOL   H10715213   4.356   0.459   2.859  2.2771 -1.3419  0.6671
   84MOL   H10815214   4.413   0.347   2.735  0.3698 -1.1801  0.2807
   84MOL   H10915215   4.237   0.348   2.783 -0.1788  0.4986  0.4976
   84MOL   C11015216   4.724   0.370   3.007  0.0062  0.9643  0.7574
   84MOL   C11115217   4.713   0.469   3.117  0.6212 -0.2765 -0.3588
   84MOL   C11215218   4.818   0.416   2.891  0.3639 -0.7359 -0.5023
   84MOL   O11315219   4.936   0.382   2.882  0.0488  0.3451  0.4904
   84MOL   O11415220   4.762   0.512   2.811  0.1755 -1.0651 -0.3753
   84MOL   H11515221   4.768   0.277   3.043  0.5551  0.6384 -0.7210
   84MOL   H11615222   4.810   0.513   3.139  0.6966 -1.1633  1.1518
   84MOL   H11715223   4.645   0.551   3.093 -2.1322 -2.2123  0.6343
   84MOL   H11815224   4.678   0.434   3.214  1.7247  0.2440  0.2351
   84MOL   C11915225   4.824   0.580   2.707  0.2267 -0.0816 -0.4635
   84MOL   C12015226   4.752   0.712   2.688 -0.3598 -0.0630 -0.0589
   84MOL   C12115227   4.834   0.487   2.584  0.1630  0.2741  0.0305
   84MOL   O12215228   4.766   0.382   2.576  0.0706  0.0180 -0.1602
   84MOL   O12315229   4.920   0.530   2.494  0.3011  0.0537 -0.6529
   84MOL   H12415230   4.930   0.597   2.726  0.4385  0.3586 -1.9960
   84MOL   H12515231   4.775   0.749   2.588  0.3006  1.4109  0.6198
   84MOL   H12615232   4.645   0.712   2.707  0.0071 -0.9672  2.1769
   84MOL   H12715233   4.785   0.798   2.745 -1.7879  0.4027  0.0687
   84MOL   C12815234   4.913   0.493   2.360  0.3807  0.1232 -0.4476
   84MOL   C12915235   5.045   0.535   2.296  0.3604 -0.5923  0.2398
   84MOL   C13015236   4.796   0.560   2.291  0.1739 -0.5252  0.2411
   84MOL   O13115237   4.717   0.639   2.342 -0.0350 -0.2613  0.1063
   84MOL   O13215238   4.781   0.515   2.165 -0.0383  0.0162 -0.4000
   84MOL   H13315239   4.900   0.386   2.342 -1.7241 -0.7345  5.1771
   84MOL   H13415240   5.055   0.530   2.187 -4.1716  0.7900 -0.3714
   84MOL   H13515241   5.072   0.640   2.312  0.5052 -0.3882 -1.2127
   84MOL   H13615242   5.117   0.459   2.325  1.6710  0.1505 -0.9896
   84MOL   C13715243   4.661   0.540   2.095 -0.5018 -0.1729  0.5679
   84MOL   C13815244   4.543   0.456   2.148 -0.7979 -0.1103 -0.9302
   84MOL   C13915245   4.686   0.496   1.950 -0.2572  0.4500 -0.7138
   84MOL   O14015246   4.785   0.437   1.900 -0.5122 -0.1216 -0.1759
   84MOL   O14115247   4.593   0.536   1.872 -0.6377 -0.0089  0.0376
   84MOL   H14215248   4.641   0.646   2.077 -2.0395 -0.9237 -2.3739
   84MOL   H14315249   4.454   0.445   2.088 -2.7600 -1.3178  2.0707
   84MOL   H14415250   4.587   0.364   2.187  0.6942  0.3047 -1.5788
   84MOL   H14515251   4.500   0.508   2.234  0.3223 -1.0968  0.2509
   84MOL   C14615252   4.594   0.512   1.734  0.1688  1.1739 -0.0066
   84MOL   C14715253   4.493   0.613   1.674 -0.2642 -0.1738  0.2120
   84MOL   C14815254   4.548   0.372   1.696 -0.3046  1.2861  0.4193
   84MOL   O14915255   4.590   0.309   1.598  0.2503 -0.1574  0.0144
   84MOL   O15015256   4.447   0.341   1.782 -0.6488 -0.0439  0.4113
   84MOL   H15115257   4.689   0.513   1.679 -0.0012  0.2065 -0.3369
   84MOL   H15215258   4.480   0.603   1.566  0.1682 -0.5755  0.1929
   84MOL   H15315259   4.396   0.606   1.723 -0.3172  1.2692  0.3200
   84MOL   H15415260   4.530   0.714   1.689 -0.3917 -0.0376 -0.3848
   84MOL   C15515261   4.375   0.218   1.785  0.0269 -0.4393  0.9146
   84MOL   C15615262   4.465   0.106   1.837 -0.1901  0.6127  0.5101
   84MOL   C15715263   4.317   0.185   1.642 -0.4234  0.1676 -0.7941
   84MOL   O15815264   4.337   0.076   1.589  0.0248  0.5502 -0.4857
   84MOL   O15915265   4.259   0.283   1.585 -0.0843 -0.3801  0.1403
   84MOL   H16015266   4.292   0.236   1.854  0.6934 -1.5513  2.0199
   84MOL   H16115267   4.525   0.134   1.924 -0.2320 -0.8884  1.0376
   84MOL   H16215268   4.404   0.020   1.864  0.3404 -0.3112 -1.1644
   84MOL   H16315269   4.535   0.068   1.763  1.7996  0.5342  2.3764
   84MOL   C16415270   4.193   0.288   1.464 -0.0601  0.5796 -0.3569
   84MOL   C16515271   4.283   0.287   1.341 -0.5085 -0.2589 -0.0304
   84MOL   C16615272   4.109   0.417   1.469  0.1928 -0.0706  0.6204
   84MOL   O16715273   3.995   0.424   1.424 -0.4569 -0.0635  0.1064
   84MOL   O16815274   4.183   0.522   1.524 -0.1049 -0.1267 -0.1681
   84MOL   H16915275   4.122   0.206   1.450 -0.5818  0.8907  0.4279
   84MOL   H17015276   4.342   0.196   1.347 -2.2765 -1.3991  0.4312
   84MOL   H17115277   4.233   0.285   1.244 -1.0390 -1.4391  0.2614
   84MOL   H17215278   4.361   0.363   1.338 -0.6660 -0.0930  0.1080
   84MOL   C17315279   4.106   0.645   1.557  0.6530  0.1845 -0.4095
   84MOL   C17415280   4.190   0.769   1.569  0.2716  0.0087  0.6266
   84MOL   C17515281   4.022   0.618   1.685 -0.3073  0.8401 -0.7720
   84MOL   O17615282   4.021   0.510   1.741  0.4704  0.1698 -0.6109
   84MOL   O17715283   3.949   0.728   1.727  0.0007 -0.2531 -0.1083
   84MOL   H17815284   4.046   0.675   1.471  0.1918 -0.4182 -0.3041
   84MOL   H17915285   4.260   0.750   1.650  0.3731  1.0900  0.7946
   84MOL   H18015286   4.253   0.763   1.480 -0.0499 -1.2033  0.4766
   84MOL   H18115287   4.128   0.858   1.576 -1.8771 -1.1245 -2.7417
   84MOL   H18215288   3.900   0.703   1.805 -0.2277 -0.0026 -0.1687
   85MOL     C115289   4.519   3.842   5.559  0.5411 -0.2030 -0.1228
   85MOL     C215290   4.380   3.888   5.603  0.0495 -0.2723  0.1668
   85MOL     C315291   4.585   3.754   5.665 -0.2520 -0.4384 -0.1807
   85MOL     O415292   4.694   3.781   5.715  0.1375 -0.0918  0.0928
   85MOL     O515293   4.521   3.639   5.680 -0.7761 -0.2200  0.2749
   85MOL     H615294   4.513   3.780   5.469  0.3849 -1.9805  1.0783
   85MOL     H715295   4.377   3.996   5.619 -1.8934 -0.0639 -1.2595
   85MOL     H815296   4.305   3.861   5.528 -0.1279 -0.6847  0.4913
   85MOL     H915297   4.351   3.851   5.701  1.2663 -1.0067  0.2478
   85MOL    H1015298   4.588   3.922   5.533  0.4246  1.2670  3.7480
   85MOL    C1115299   4.550   3.552   5.787 -0.0362 -0.3534  0.2640
   85MOL    C1215300   4.514   3.412   5.739  0.1101 -0.2400  0.1463
   85MOL    C1315301   4.474   3.601   5.920  0.8064  0.2886 -0.4472
   85MOL    O1415302   4.533   3.628   6.021  0.3804  0.9676  0.0642
   85MOL    O1515303   4.340   3.600   5.893  0.6529  0.2481  0.3252
   85MOL    H1615304   4.657   3.554   5.812 -0.1261  1.0535  0.5575
   85MOL    H1715305   4.413   3.412   5.698  0.3088 -3.1579 -0.4062
   85MOL    H1815306   4.575   3.382   5.654 -1.7963 -0.2608 -1.2426
   85MOL    H1915307   4.529   3.340   5.820  1.9745  0.7350  0.7237
   85MOL    C2015308   4.244   3.630   5.993  0.5760  0.3554 -0.2636
   85MOL    C2115309   4.123   3.530   5.983 -0.0921 -0.1185  0.4243
   85MOL    C2215310   4.204   3.772   5.971 -0.2125  0.4343 -0.3427
   85MOL    O2315311   4.229   3.861   6.055  0.2571 -0.4970  0.1421
   85MOL    O2415312   4.138   3.791   5.856  0.3782  0.2662  0.0942
   85MOL    H2515313   4.296   3.618   6.088  1.0517 -0.5704 -0.6382
   85MOL    H2615314   4.070   3.548   5.890  0.7118  0.5229  0.0841
   85MOL    H2715315   4.154   3.425   5.983  0.4505  0.0379  1.2317
   85MOL    H2815316   4.060   3.550   6.070 -2.2238  1.6542 -1.4807
   85MOL    C2915317   4.088   3.911   5.812 -0.3386  0.5851 -0.1926
   85MOL    C3015318   3.972   3.960   5.891 -0.2592 -0.1005 -0.0914
   85MOL    C3115319   4.045   3.897   5.669  0.0589  0.9262 -0.1054
   85MOL    O3215320   4.001   3.794   5.622  0.2970 -0.2309 -0.7425
   85MOL    O3315321   4.058   4.007   5.599  0.0472  0.2082 -0.0450
   85MOL    H3415322   4.165   3.987   5.822  0.5173 -0.3069  0.0818
   85MOL    H3515323   3.889   3.890   5.888  0.0784 -0.5030 -0.0985
   85MOL    H3615324   4.001   3.998   5.989 -1.8390  1.9120 -0.3726
   85MOL    H3715325   3.932   4.053   5.851  3.5776  0.5679 -2.5994
   85MOL    C3815326   4.029   4.018   5.459  0.3377  0.1339  0.7424
   85MOL    C3915327   4.132   4.107   5.383  0.6390 -0.8194 -0.3353
   85MOL    C4015328   3.881   4.073   5.443  0.1715 -0.0190  0.3871
   85MOL    O4115329   3.859   4.153   5.357  0.6646  0.3164 -0.1687
   85MOL    O4215330   3.783   4.009   5.525 -0.6582  0.3870  0.0057
   85MOL    H4315331   4.028   3.917   5.417 -1.5682  0.9218 -1.1581
   85MOL    H4415332   4.126   4.099   5.274 -0.9767  1.5149 -0.4595
   85MOL    H4515333   4.144   4.211   5.413  1.1227 -0.3477 -2.0797
   85MOL    H4615334   4.233   4.071   5.396  0.6652 -1.2555 -1.6514
   85MOL    C4715335   3.647   4.047   5.535  0.8081 -0.2027  0.5242
   85MOL    C4815336   3.589   3.967   5.649 -0.1119 -0.6161  0.4064
   85MOL    C4915337   3.566   4.020   5.409  0.1065 -0.5980 -0.2409
   85MOL    O5015338   3.548   4.108   5.326  0.0839  0.4570  0.1602
   85MOL    O5115339   3.518   3.894   5.393 -0.5011  0.7833 -0.6378
   85MOL    H5215340   3.631   4.150   5.565 -0.6703  0.2723 -1.7582
   85MOL    H5315341   3.484   3.991   5.663  0.5536  2.1677  0.9469
   85MOL    H5415342   3.605   3.861   5.629  2.1833 -0.1426 -0.4649
   85MOL    H5515343   3.644   3.997   5.739  0.1958  0.0552 -0.0010
   85MOL    C5615344   3.452   3.845   5.279 -0.0535 -0.1574  0.2786
   85MOL    C5715345   3.334   3.758   5.325  0.4836  0.0740  0.1385
   85MOL    C5815346   3.548   3.767   5.195 -1.1204  0.0117 -0.3578
   85MOL    O5915347   3.524   3.655   5.159 -0.0040 -0.1530 -0.5814
   85MOL    O6015348   3.654   3.842   5.151 -0.5235 -0.2665 -0.0642
   85MOL    H6115349   3.404   3.919   5.215  4.5700  3.3199  0.5803
   85MOL    H6215350   3.269   3.831   5.372  1.0395  2.4711 -2.7293
   85MOL    H6315351   3.281   3.708   5.244  0.0738 -0.8112  0.9416
   85MOL    H6415352   3.362   3.691   5.407 -1.9039 -0.8667  0.2152
   85MOL    C6515353   3.748   3.780   5.059  0.4252  0.0812  0.4183
   85MOL    C6615354   3.888   3.832   5.099  0.4047  0.1091 -0.0543
   85MOL    C6715355   3.723   3.819   4.912  0.3024 -0.0998 -0.3427
   85MOL    O6815356   3.629   3.892   4.883  0.3051 -0.5607  0.0261
   85MOL    O6915357   3.823   3.772   4.833  0.2860 -0.0833  0.3869
   85MOL    H7015358   3.749   3.671   5.069 -0.5094  0.0347  0.0416
   85MOL    H7115359   3.972   3.791   5.043  0.5559  1.2129 -0.6426
   85MOL    H7215360   3.899   3.939   5.082 -0.9261 -0.0517 -2.1490
   85MOL    H7315361   3.900   3.807   5.204 -1.7509  1.5530  0.5815
   85MOL    C7415362   3.830   3.806   4.704  0.6916 -0.3573 -0.0523
   85MOL    C7515363   3.747   3.718   4.607 -0.0323  0.2692 -0.2731
   85MOL    C7615364   3.978   3.806   4.666  0.1224 -0.2227  0.6741
   85MOL    O7715365   4.048   3.708   4.637 -0.4116 -0.0936 -0.0622
   85MOL    O7815366   4.025   3.929   4.689  0.2266 -0.3050 -0.2914
   85MOL    H7915367   3.797   3.909   4.690 -0.5596 -0.8411 -0.7025
   85MOL    H8015368   3.728   3.769   4.513 -3.3153 -0.9816 -0.3586
   85MOL    H8115369   3.780   3.614   4.601  1.8911  0.8101  0.7210
   85MOL    H8215370   3.642   3.711   4.634 -0.1749  1.3241 -0.5143
   85MOL    C8315371   4.155   3.973   4.642 -0.1358  0.1093 -0.4941
   85MOL    C8415372   4.218   4.058   4.752  0.1701 -0.1313  0.8916
   85MOL    C8515373   4.137   4.043   4.507 -0.1148  0.3222 -0.0150
   85MOL    O8615374   4.214   4.024   4.412 -0.2289 -0.5953 -0.1679
   85MOL    O8715375   4.024   4.124   4.517 -0.8185  0.0813  0.7937
   85MOL    H8815376   4.224   3.889   4.630  1.3827  0.7280  3.3655
   85MOL    H8915377   4.318   4.091   4.725 -0.4642  2.6992  1.8534
   85MOL    H9015378   4.161   4.146   4.783  1.1447  0.5498  0.7560
   85MOL    H9115379   4.245   3.995   4.837 -0.2485 -0.3728  0.8480
   85MOL    C9215380   3.973   4.186   4.400 -0.7140  0.0682 -0.2357
   85MOL    C9315381   3.903   4.317   4.440  0.1828 -0.1179 -0.3094
   85MOL    C9415382   3.870   4.091   4.342  0.5750 -0.9174  0.8503
   85MOL    O9515383   3.881   3.966   4.352  0.0709 -0.2448 -0.6917
   85MOL    O9615384   3.752   4.154   4.287  0.3135  0.1730 -0.4247
   85MOL    H9715385   4.051   4.201   4.325 -0.6889  0.1687 -0.1889
   85MOL    H9815386   3.860   4.376   4.359 -0.8379  0.5681  0.7027
   85MOL    H9915387   3.834   4.302   4.524 -0.2012  0.4093 -0.5268
   85MOL   H10015388   3.991   4.376   4.465 -0.0122 -0.1956  0.5840
   85MOL   C10115389   3.630   4.084   4.265  0.0247 -0.5259  0.0472
   85MOL   C10215390   3.528   4.177   4.203 -0.6365 -0.6312 -0.3848
   85MOL   C10315391   3.580   4.018   4.396 -0.2926  0.1150 -0.2021
   85MOL   O10415392   3.610   4.070   4.503  0.2912  0.5776  0.1550
   85MOL   O10515393   3.513   3.914   4.379  0.4414  1.0671 -0.3988
   85MOL   H10615394   3.662   4.012   4.190 -0.1205 -3.9181  3.1166
   85MOL   H10715395   3.561   4.218   4.107  1.0636  0.6013  0.7123
   85MOL   H10815396   3.423   4.145   4.198 -1.5858  1.9228  2.1784
   85MOL   H10915397   3.515   4.266   4.265  1.8787  0.6122 -1.6106
   85MOL   C11015398   3.433   3.854   4.491  0.7762  0.1405 -0.1214
   85MOL   C11115399   3.422   3.707   4.450 -0.1276  0.1437 -0.8553
   85MOL   C11215400   3.300   3.917   4.497 -0.5565 -0.7592  0.5019
   85MOL   O11315401   3.271   3.999   4.412 -0.6429 -0.0879 -0.3610
   85MOL   O11415402   3.231   3.887   4.612 -0.0165 -0.5461 -0.1642
   85MOL   H11515403   3.479   3.867   4.588 -0.8661 -0.5033  0.7665
   85MOL   H11615404   3.521   3.666   4.425  0.4213 -0.0396  1.5051
   85MOL   H11715405   3.371   3.644   4.522 -1.0968 -0.4007 -1.9925
   85MOL   H11815406   3.357   3.687   4.364  2.0946 -2.4358 -2.0368
   85MOL   C11915407   3.117   3.959   4.657 -0.7189 -0.3046 -1.1316
   85MOL   C12015408   2.988   3.944   4.583 -0.2462 -0.2766  0.4957
   85MOL   C12115409   3.151   4.110   4.680 -0.7568  0.0602  0.1069
   85MOL   O12215410   3.181   4.154   4.792  1.0886 -0.3961  0.6108
   85MOL   O12315411   3.141   4.187   4.575 -0.0185 -0.2256  0.5098
   85MOL   H12415412   3.096   3.917   4.755  2.0436 -1.6426 -1.0715
   85MOL   H12515413   2.987   3.842   4.543  1.2670 -0.1471  0.0931
   85MOL   H12615414   2.905   3.965   4.650  0.0357  0.4186  0.6266
   85MOL   H12715415   2.978   4.014   4.500  0.3789  1.5255  1.9171
   85MOL   C12815416   3.170   4.329   4.594  0.4287 -0.0854  0.6305
   85MOL   C12915417   3.081   4.418   4.504  0.0562  0.2432 -0.4986
   85MOL   C13015418   3.320   4.355   4.575  0.6761 -0.7717  0.0566
   85MOL   O13115419   3.366   4.431   4.490  0.4696  0.2197  0.6117
   85MOL   O13215420   3.401   4.307   4.674  0.3760 -0.1776  0.3770
   85MOL   H13315421   3.150   4.361   4.696  0.3446  0.0605  0.5681
   85MOL   H13415422   3.105   4.523   4.525  4.1770 -0.9622  1.3420
   85MOL   H13515423   3.092   4.408   4.396  0.0965  0.2389 -0.4944
   85MOL   H13615424   2.978   4.398   4.535  0.1089 -1.5823 -1.4937
   85MOL   C13715425   3.550   4.320   4.671  0.3855  0.2092 -0.1090
   85MOL   C13815426   3.604   4.211   4.762  0.4925  0.7312  0.1777
   85MOL   C13915427   3.600   4.456   4.724 -0.1395 -0.8501 -0.1701
   85MOL   O14015428   3.531   4.538   4.786 -0.0040  0.4608 -0.4793
   85MOL   O14115429   3.729   4.475   4.699 -0.2304 -0.3236 -0.1138
   85MOL   H14215430   3.583   4.315   4.567  1.0030  2.7705 -0.0740
   85MOL   H14315431   3.557   4.212   4.861 -0.4986 -0.1241 -0.2742
   85MOL   H14415432   3.592   4.110   4.723  0.9079  0.3455  1.0406
   85MOL   H14515433   3.707   4.233   4.790  0.4832 -1.3707  1.9971
   85MOL   C14615434   3.809   4.578   4.766  0.2555  0.0312  0.0396
   85MOL   C14715435   3.847   4.692   4.659  0.5007  0.4749 -0.1742
   85MOL   C14815436   3.922   4.521   4.842 -0.8458 -0.1934 -0.3156
   85MOL   O14915437   4.034   4.573   4.834 -0.1534  0.5109 -0.2472
   85MOL   O15015438   3.902   4.402   4.899 -0.3083  0.0458  0.3000
   85MOL   H15115439   3.749   4.631   4.840  0.1489 -0.3395  0.2182
   85MOL   H15215440   3.923   4.645   4.596 -0.8408  1.9788 -3.0263
   85MOL   H15315441   3.767   4.730   4.595 -0.7660 -1.6880  0.0926
   85MOL   H15415442   3.895   4.778   4.706 -1.0705  1.8852 -1.0712
   85MOL   C15515443   4.010   4.339   4.972  0.1152 -0.0165  0.7978
   85MOL   C15615444   3.965   4.191   5.003 -0.0846  0.1260  0.3685
   85MOL   C15715445   4.053   4.419   5.100 -0.3216  0.0755  0.6490
   85MOL   O15815446   4.168   4.403   5.140  0.3481  0.0495  0.1578
   85MOL   O15915447   3.954   4.492   5.154 -0.3542 -0.4502  0.3930
   85MOL   H16015448   4.099   4.344   4.909 -0.5310  0.6121 -0.0776
   85MOL   H16115449   3.931   4.135   4.916 -1.8285  0.4764  0.8089
   85MOL   H16215450   4.052   4.138   5.041 -0.2848  0.2254  0.9672
   85MOL   H16315451   3.893   4.197   5.085 -2.4554  1.8783 -1.7316
   85MOL   C16415452   3.980   4.576   5.265  0.2757 -0.3013 -0.5725
   85MOL   C16515453   3.954   4.485   5.385 -0.0222 -0.9755 -0.4390
   85MOL   C16615454   3.888   4.708   5.265  0.1778 -0.0167 -0.2640
   85MOL   O16715455   3.782   4.723   5.330  0.0064 -0.6910  0.1382
   85MOL   O16815456   3.938   4.804   5.186 -0.3176  0.2871  0.2904
   85MOL   H16915457   4.078   4.623   5.262 -0.0173  0.4238  0.8969
   85MOL   H17015458   3.971   4.539   5.478  0.5556 -0.9265 -0.5697
   85MOL   H17115459   3.847   4.467   5.396 -0.1400 -0.0400 -0.0384
   85MOL   H17215460   4.007   4.390   5.383  1.6164 -0.1463  1.5638
   85MOL   C17315461   3.876   4.935   5.172 -0.1720 -0.5743 -0.2468
   85MOL   C17415462   3.901   5.031   5.285 -0.7130  0.1945  0.9642
   85MOL   C17515463   3.726   4.936   5.118 -0.2005 -0.4917 -0.4067
   85MOL   O17615464   3.626   4.969   5.186 -0.6729 -0.2293  0.8358
   85MOL   O17715465   3.726   4.887   4.992 -0.1660 -0.1574  0.2154
   85MOL   H17815466   3.925   4.979   5.085  1.4772 -1.3672  0.2594
   85MOL   H17915467   4.001   5.073   5.278 -0.4127 -0.5460  0.7402
   85MOL   H18015468   3.828   5.112   5.279 -1.1332 -0.3744 -3.0085
   85MOL   H18115469   3.891   4.982   5.382  0.1671  1.2745  1.6160
   85MOL   H18215470   3.639   4.875   4.957  0.5094 -0.5703 -1.3881
   86MOL     C115471   0.437   4.396   1.264 -0.3686 -0.5634  0.6261
   86MOL     C215472   0.561   4.463   1.338 -0.2326  0.1538 -0.2230
   86MOL     C315473   0.459   4.410   1.116 -0.6814  0.3067  0.6408
   86MOL     O415474   0.443   4.519   1.062  0.2123 -0.3616  0.2624
   86MOL     O515475   0.479   4.291   1.053  0.0552  0.3040  0.7249
   86MOL     H615476   0.418   4.293   1.295 -0.2168 -1.1441 -1.1236
   86MOL     H715477   0.569   4.443   1.445 -0.6953  0.0778 -0.2005
   86MOL     H815478   0.659   4.434   1.301  0.6304  1.7694  0.7000
   86MOL     H915479   0.568   4.572   1.333  2.6804 -0.0547 -1.5565
   86MOL    H1015480   0.347   4.456   1.276  0.3586  0.7370 -0.3235
   86MOL    C1115481   0.476   4.273   0.911  0.5960  0.0771 -0.4614
   86MOL    C1215482   0.499   4.122   0.872 -0.0788  0.2887  0.5281
   86MOL    C1315483   0.566   4.359   0.823 -0.0027  0.3796 -0.4054
   86MOL    O1415484   0.525   4.416   0.724 -0.2859 -0.1163 -0.0000
   86MOL    O1515485   0.691   4.361   0.877  1.2384 -0.2945 -0.0231
   86MOL    H1615486   0.375   4.297   0.879  0.7535  1.6900  0.1772
   86MOL    H1715487   0.523   4.106   0.767  2.3434 -2.7202  1.4724
   86MOL    H1815488   0.592   4.100   0.925 -0.0255  1.3681  0.8993
   86MOL    H1915489   0.422   4.055   0.910 -0.9709  0.9539 -0.0761
   86MOL    C2015490   0.791   4.436   0.815  0.6584 -0.5937 -1.0394
   86MOL    C2115491   0.880   4.352   0.726  0.0349  0.5842  0.8502
   86MOL    C2215492   0.880   4.507   0.918 -0.0857 -0.2706 -0.5877
   86MOL    O2315493   0.888   4.628   0.921 -0.8508 -0.3294 -0.0425
   86MOL    O2415494   0.926   4.414   1.009 -0.1619  0.4643  0.1404
   86MOL    H2515495   0.749   4.512   0.749  2.4840 -0.2603 -1.8656
   86MOL    H2615496   0.914   4.262   0.777 -3.1405 -2.2517 -1.7965
   86MOL    H2715497   0.842   4.319   0.629  0.1041  0.2731  0.9290
   86MOL    H2815498   0.966   4.415   0.702  0.5276 -0.5496 -0.4139
   86MOL    C2915499   0.973   4.472   1.132  0.3384  0.5196 -0.8809
   86MOL    C3015500   1.127   4.484   1.130  0.0927 -0.1068  0.3701
   86MOL    C3115501   0.933   4.387   1.258  0.2884  0.2905  0.2769
   86MOL    O3215502   0.920   4.261   1.256  0.3135 -0.5580 -0.6216
   86MOL    O3315503   0.921   4.456   1.366 -0.6760 -0.5952  0.3651
   86MOL    H3415504   0.920   4.565   1.150  1.1322  0.7794  0.1990
   86MOL    H3515505   1.157   4.558   1.057  1.0448 -1.2796 -0.4445
   86MOL    H3615506   1.173   4.503   1.227 -1.4305 -1.0288  1.3027
   86MOL    H3715507   1.167   4.390   1.090  0.4547 -0.5218  1.6577
   86MOL    C3815508   0.900   4.402   1.493 -0.2089  0.2333  0.6026
   86MOL    C3915509   0.866   4.522   1.584  0.2913  0.2722 -0.3603
   86MOL    C4015510   1.023   4.333   1.545 -0.7723 -0.1844  0.0532
   86MOL    O4115511   1.007   4.231   1.606 -0.2746  0.0366 -0.1735
   86MOL    O4215512   1.140   4.407   1.518 -0.8208 -0.6649  0.1683
   86MOL    H4315513   0.811   4.340   1.483  0.7264 -1.6431  3.3238
   86MOL    H4415514   0.831   4.484   1.680  2.2919 -1.6315 -0.3503
   86MOL    H4515515   0.949   4.592   1.580  0.4911  0.3478  3.1743
   86MOL    H4615516   0.780   4.579   1.550 -1.8031 -1.6596  1.5720
   86MOL    C4715517   1.269   4.359   1.565 -0.4434 -0.4331 -0.2124
   86MOL    C4815518   1.284   4.407   1.709  0.0527 -0.9193 -0.2921
   86MOL    C4915519   1.377   4.402   1.474 -0.0439  0.1321 -0.4010
   86MOL    O5015520   1.456   4.489   1.507  0.3197  0.3252 -0.0405
   86MOL    O5115521   1.379   4.331   1.362 -0.1903  0.0269 -0.2109
   86MOL    H5215522   1.274   4.250   1.569 -0.8050 -0.4062  1.2519
   86MOL    H5315523   1.383   4.394   1.753 -0.1504 -1.0493  0.1290
   86MOL    H5415524   1.258   4.513   1.713 -0.5109 -1.0894  0.6782
   86MOL    H5515525   1.199   4.370   1.766 -0.2211  0.5922  0.2907
   86MOL    C5615526   1.498   4.326   1.270  0.3521 -0.0482 -0.0898
   86MOL    C5715527   1.460   4.260   1.145  0.2215  0.3798  0.1218
   86MOL    C5815528   1.620   4.263   1.335 -0.5157 -0.3372 -0.6690
   86MOL    O5915529   1.611   4.173   1.421  0.6045 -0.1535 -0.0706
   86MOL    O6015530   1.733   4.311   1.275  0.3407  0.0702  0.6933
   86MOL    H6115531   1.524   4.429   1.247 -3.1016  0.7175 -0.9171
   86MOL    H6215532   1.397   4.173   1.167 -1.6935  1.8827  0.7638
   86MOL    H6315533   1.395   4.322   1.084 -1.8926 -2.0150 -0.1855
   86MOL    H6415534   1.538   4.230   1.075 -1.6124  0.2754 -1.9668
   86MOL    C6515535   1.861   4.251   1.310  0.1345  0.9149  0.2015
   86MOL    C6615536   1.975   4.350   1.277  0.6438 -0.6454 -0.1765
   86MOL    C6715537   1.875   4.107   1.258 -0.2307  0.0098  0.0953
   86MOL    O6815538   1.846   4.082   1.142 -0.3002 -0.0774  0.2405
   86MOL    O6915539   1.917   4.014   1.351  0.5640  0.1199  0.5029
   86MOL    H7015540   1.860   4.241   1.418  2.3241 -2.0894  0.0382
   86MOL    H7115541   1.981   4.373   1.171 -1.5090 -1.3647 -0.4805
   86MOL    H7215542   1.956   4.443   1.331 -0.7848  0.0709 -1.8981
   86MOL    H7315543   2.076   4.322   1.305 -0.9861 -3.4516  3.3989
   86MOL    C7415544   1.922   3.878   1.320  0.5870 -0.1794 -0.2978
   86MOL    C7515545   1.949   3.805   1.453  0.1170  0.1434 -0.2183
   86MOL    C7615546   2.041   3.855   1.219  0.2002  0.3011  0.1077
   86MOL    O7715547   2.022   3.824   1.098  0.0807  0.0491 -0.2150
   86MOL    O7815548   2.157   3.866   1.286 -0.1902 -0.0374  0.2950
   86MOL    H7915549   1.830   3.832   1.284 -0.1850 -0.2083  1.6540
   86MOL    H8015550   2.034   3.837   1.513 -0.5288 -1.3611  1.5654
   86MOL    H8115551   1.859   3.807   1.514  0.2691 -2.1705  0.1346
   86MOL    H8215552   1.960   3.698   1.432 -0.0351 -0.0302  0.5539
   86MOL    C8315553   2.283   3.826   1.226 -0.7688 -0.3694 -0.2333
   86MOL    C8415554   2.374   3.826   1.353 -0.6159 -0.2515 -0.6326
   86MOL    C8515555   2.332   3.922   1.113 -0.5419 -0.2233  0.4784
   86MOL    O8615556   2.349   3.887   0.997  0.6027 -0.0634  0.1583
   86MOL    O8715557   2.353   4.052   1.155 -0.0670  0.2338  0.8885
   86MOL    H8815558   2.268   3.724   1.191 -0.8922 -0.2763 -0.4509
   86MOL    H8915559   2.476   3.801   1.326 -1.0666 -2.5430 -0.3154
   86MOL    H9015560   2.363   3.924   1.401 -2.0215 -1.5217  1.7253
   86MOL    H9115561   2.330   3.747   1.413 -0.8627 -1.2128 -2.0690
   86MOL    C9215562   2.386   4.150   1.052 -0.0540  0.4155 -0.0281
   86MOL    C9315563   2.476   4.257   1.101  0.6226  0.3431 -0.3611
   86MOL    C9415564   2.245   4.213   1.006 -1.1196  0.0203  0.7776
   86MOL    O9515565   2.142   4.186   1.069 -0.1874 -0.1525  0.0920
   86MOL    O9615566   2.255   4.291   0.895 -0.1598 -0.2729  0.7329
   86MOL    H9715567   2.434   4.106   0.964 -1.8590 -0.1263 -0.7707
   86MOL    H9815568   2.567   4.213   1.141 -0.0989 -1.7849 -1.0000
   86MOL    H9915569   2.501   4.335   1.028 -1.0304 -0.4344 -1.7946
   86MOL   H10015570   2.423   4.319   1.173  0.7442  0.4037 -0.3237
   86MOL   C10115571   2.149   4.333   0.803  0.5952  0.1890 -0.0158
   86MOL   C10215572   2.102   4.471   0.856  0.2779 -0.3711  0.2591
   86MOL   C10315573   2.029   4.231   0.792  0.3221  0.4073  0.2921
   86MOL   O10415574   1.911   4.262   0.810  0.2670  0.2933  0.3235
   86MOL   O10515575   2.075   4.113   0.745 -0.4622  0.3933 -0.0815
   86MOL   H10615576   2.197   4.330   0.706  1.9829  0.8425  0.6388
   86MOL   H10715577   2.008   4.501   0.810  0.0246  0.6925  1.4516
   86MOL   H10815578   2.099   4.474   0.965 -0.5103  0.0748  0.2246
   86MOL   H10915579   2.176   4.545   0.829  0.6935 -1.5055 -1.7736
   86MOL   C11015580   1.982   4.012   0.708  0.1445 -0.6301 -0.0143
   86MOL   C11115581   2.049   3.875   0.744 -0.3764  0.3311  0.4532
   86MOL   C11215582   1.947   4.037   0.556  0.2923  0.2263 -0.1009
   86MOL   O11315583   1.859   4.109   0.532  0.2407  0.1116  0.0581
   86MOL   O11415584   2.035   3.975   0.469 -0.2321  0.0581 -0.4726
   86MOL   H11515585   1.893   4.000   0.770 -0.6168 -0.8607 -1.1312
   86MOL   H11615586   2.135   3.856   0.680 -2.2488 -2.9742 -1.2181
   86MOL   H11715587   2.076   3.876   0.850 -2.2267  2.2453  0.9560
   86MOL   H11815588   1.971   3.800   0.730 -0.6301  0.5701  0.5564
   86MOL   C11915589   2.028   3.981   0.324  0.7548 -0.8752  0.7154
   86MOL   C12015590   2.057   4.124   0.279  0.0380  0.6838  0.3875
   86MOL   C12115591   1.892   3.932   0.282  0.8224 -0.1822 -0.1012
   86MOL   O12215592   1.826   3.991   0.190  0.1380  0.0406  0.0314
   86MOL   O12315593   1.840   3.834   0.353  0.1987  0.5233 -0.1495
   86MOL   H12415594   2.101   3.907   0.294 -0.7470 -1.3468 -1.9746
   86MOL   H12515595   1.985   4.201   0.307  0.4819  2.2766 -2.5699
   86MOL   H12615596   2.154   4.158   0.313  1.1919 -0.8863 -1.2390
   86MOL   H12715597   2.061   4.145   0.172  1.4076  3.7270  0.9807
   86MOL   C12815598   1.705   3.787   0.341  0.4792 -0.7926 -0.6843
   86MOL   C12915599   1.679   3.734   0.484  0.4864 -0.5980  0.2463
   86MOL   C13015600   1.711   3.679   0.231  0.3858  0.9540 -0.8195
   86MOL   O13115601   1.814   3.638   0.181  0.1168  0.3203 -0.5420
   86MOL   O13215602   1.583   3.657   0.196  0.4948 -0.3149 -0.2300
   86MOL   H13315603   1.637   3.871   0.330 -0.4172 -1.0221  2.3636
   86MOL   H13415604   1.749   3.662   0.526  1.0118 -0.7663 -0.8990
   86MOL   H13515605   1.669   3.822   0.548  0.9769 -1.9327  2.1813
   86MOL   H13615606   1.578   3.693   0.479 -0.1549  1.1100 -2.1969
   86MOL   C13715607   1.550   3.564   0.093  0.1695  0.0914  0.0946
   86MOL   C13815608   1.483   3.641   8.129  0.2987 -0.6778 -0.2351
   86MOL   C13915609   1.458   3.457   0.154  0.2935 -0.9115 -0.9598
   86MOL   O14015610   1.498   3.342   0.186  0.3043  0.0613  0.4831
   86MOL   O14115611   1.337   3.508   0.186 -0.0114  0.8889 -0.0912
   86MOL   H14215612   1.632   3.507   0.050  0.2032  0.2004  0.0130
   86MOL   H14315613   1.545   3.720   8.087 -1.1149  2.0154  2.5463
   86MOL   H14415614   1.429   3.579   8.057 -0.3948 -0.7431  0.3393
   86MOL   H14515615   1.398   3.690   0.028  0.2771 -0.6330 -0.3214
   86MOL   C14615616   1.249   3.420   0.251  0.3741 -0.3806  0.1467
   86MOL   C14715617   1.112   3.477   0.220  0.2561 -0.5129  0.7189
   86MOL   C14815618   1.272   3.424   0.404 -0.1989 -0.2744  0.3807
   86MOL   O14915619   1.353   3.505   0.457 -0.7000  0.7400  0.2314
   86MOL   O15015620   1.195   3.342   0.468 -0.6782 -0.2159  0.1880
   86MOL   H15115621   1.254   3.319   0.211  0.4356 -0.3293  0.0245
   86MOL   H15215622   1.105   3.584   0.201 -1.5776 -0.7046  0.2279
   86MOL   H15315623   1.072   3.448   0.123  0.2612  1.5042  0.0861
   86MOL   H15415624   1.034   3.436   0.284 -1.4989  0.2500 -0.9117
   86MOL   C15515625   1.171   3.358   0.609  0.7060  0.2025  0.4313
   86MOL   C15615626   1.107   3.225   0.678 -0.1896 -1.0452 -0.4589
   86MOL   C15715627   1.088   3.485   0.635 -1.1638  0.4572  0.8322
   86MOL   O15815628   1.134   3.588   0.690  0.0115 -0.7673  0.0599
   86MOL   O15915629   0.957   3.467   0.608  0.2119  0.3393  0.7004
   86MOL   H16015630   1.263   3.377   0.663 -0.0062  1.0547  1.3549
   86MOL   H16115631   1.188   3.152   0.689  0.9345  0.3656  0.7904
   86MOL   H16215632   1.078   3.256   0.778 -0.8529 -1.4532 -0.5208
   86MOL   H16315633   1.021   3.184   0.625 -1.1857  0.7033 -0.2082
   86MOL   C16415634   0.867   3.568   0.637  0.2065  0.5515  0.4933
   86MOL   C16515635   0.732   3.495   0.634 -0.2239 -0.2325  0.1524
   86MOL   C16615636   0.874   3.685   0.536 -0.5270  0.8740 -0.1275
   86MOL   O16715637   0.944   3.670   0.436  0.8645 -0.0106 -0.2028
   86MOL   O16815638   0.802   3.795   0.571  0.3019  0.3619 -0.1673
   86MOL   H16915639   0.882   3.628   0.727 -0.7531 -0.4451  1.3331
   86MOL   H17015640   0.661   3.575   0.612  1.5341  1.4227  0.4184
   86MOL   H17115641   0.718   3.428   0.549 -1.4382 -0.2686  0.3751
   86MOL   H17215642   0.712   3.440   0.726  1.1912 -1.7612 -0.4398
   86MOL   C17315643   0.804   3.915   0.492  0.2496 -0.3298  0.8059
   86MOL   C17415644   0.857   4.044   0.572  0.0066 -0.2427 -0.0086
   86MOL   C17515645   0.664   3.940   0.447 -0.1003 -0.4509  0.3025
   86MOL   O17615646   0.587   4.032   0.476  0.2276 -0.0629  0.2429
   86MOL   O17715647   0.620   3.835   0.378  0.4975 -0.0928 -0.0409
   86MOL   H17815648   0.875   3.908   0.410 -0.1256  0.1740  0.4350
   86MOL   H17915649   0.958   4.022   0.606  0.2705  0.5751 -0.2727
   86MOL   H18015650   0.859   4.137   0.517 -2.0262  0.4243  0.9811
   86MOL   H18115651   0.789   4.070   0.654 -3.3388 -0.6407 -2.5588
   86MOL   H18215652   0.528   3.847   0.365  0.5507  2.0529  1.2920
   87MOL     C115653   2.484   0.436   0.501 -0.7457 -0.1052  0.3064
   87MOL     C215654   2.470   0.549   0.400  0.2894 -0.1102 -0.7414
   87MOL     C315655   2.423   0.461   0.641  0.8545  0.3330  1.0378
   87MOL     O415656   2.347   0.551   0.658 -0.2410 -0.1178  0.3170
   87MOL     O515657   2.470   0.378   0.731  0.2788  0.3793  0.1372
   87MOL     H615658   2.444   0.343   0.462  0.7444  0.6056 -3.1606
   87MOL     H715659   2.495   0.516   0.299 -3.4708 -1.0920 -1.4203
   87MOL     H815660   2.368   0.585   0.389  0.9558  2.1186  0.1351
   87MOL     H915661   2.534   0.635   0.421 -3.1188  2.1166  0.8320
   87MOL    H1015662   2.589   0.408   0.511 -0.5309  0.1123 -1.1311
   87MOL    C1115663   2.419   0.372   0.862  0.3990 -0.4131  0.0392
   87MOL    C1215664   2.537   0.367   0.960  0.0259  0.7699  0.7730
   87MOL    C1315665   2.330   0.253   0.879  1.0535 -0.1214 -0.1585
   87MOL    O1415666   2.214   0.265   0.921 -0.0970 -0.0237 -0.0562
   87MOL    O1515667   2.390   0.135   0.853 -0.8593  0.6827 -0.2587
   87MOL    H1615668   2.356   0.457   0.887  2.2113  1.3086 -1.0759
   87MOL    H1715669   2.580   0.267   0.965 -3.3398 -0.8001  0.1600
   87MOL    H1815670   2.606   0.443   0.925 -0.5909  1.5110  1.1619
   87MOL    H1915671   2.516   0.392   1.064 -0.7631  0.9025  0.5856
   87MOL    C2015672   2.319   0.012   0.854  0.5774 -0.5503  0.2786
   87MOL    C2115673   2.424   8.056   0.869 -0.0179 -0.2831  0.2734
   87MOL    C2215674   2.237   8.133   0.720  0.0756  0.9931  0.8007
   87MOL    O2315675   2.188   8.025   0.691 -0.2619  0.0405 -0.4154
   87MOL    O2415676   2.242   0.084   0.633  0.4390  0.5230 -0.1027
   87MOL    H2515677   2.265   0.010   0.949  0.9144  1.7701  0.5390
   87MOL    H2615678   2.488   8.086   0.952 -0.1901  1.2087 -0.1025
   87MOL    H2715679   2.391   7.954   0.884  1.2801 -1.1134 -2.2331
   87MOL    H2815680   2.490   8.065   0.782 -0.5445  2.2808  0.0968
   87MOL    C2915681   2.165   0.095   0.511 -0.1357 -0.4591 -0.4637
   87MOL    C3015682   2.257   0.034   0.407  0.0138 -0.2494  0.0729
   87MOL    C3115683   2.124   0.243   0.506 -0.3334  0.7515 -0.1004
   87MOL    O3215684   2.155   0.313   0.408  0.3706  0.3353 -0.0606
   87MOL    O3315685   2.068   0.290   0.625  0.0083 -0.2671  0.0507
   87MOL    H3415686   2.074   0.037   0.525  1.4006 -2.6439  0.7201
   87MOL    H3515687   2.283   8.078   0.426 -2.0237 -0.7228  0.3404
   87MOL    H3615688   2.221   0.037   0.304 -1.1265  0.0413  0.4742
   87MOL    H3715689   2.348   0.095   0.412 -0.2315  0.0344  1.1167
   87MOL    C3815690   2.026   0.429   0.632  0.2173  0.6945 -0.7907
   87MOL    C3915691   2.005   0.468   0.780 -0.6567  0.3017 -0.7278
   87MOL    C4015692   1.896   0.447   0.554 -0.4937 -0.2971  0.4694
   87MOL    O4115693   1.884   0.531   0.464  0.5349  0.3389 -0.2397
   87MOL    O4215694   1.802   0.356   0.591  0.3629  0.8995 -0.3540
   87MOL    H4315695   2.096   0.498   0.583  0.2661  0.8616 -0.4883
   87MOL    H4415696   1.957   0.565   0.775 -0.7485  0.1431 -4.0446
   87MOL    H4515697   1.952   0.387   0.830  2.7600 -3.2652 -2.5674
   87MOL    H4615698   2.109   0.465   0.813 -0.5801  0.8233 -0.9176
   87MOL    C4715699   1.672   0.349   0.522  0.0633  0.5174 -0.4836
   87MOL    C4815700   1.563   0.339   0.628  0.3811  0.1669  0.3247
   87MOL    C4915701   1.672   0.228   0.428 -0.0154 -0.2674 -0.4364
   87MOL    O5015702   1.772   0.183   0.375  1.1795 -0.6492 -0.5787
   87MOL    O5115703   1.547   0.190   0.400 -0.2670 -0.3455  0.6647
   87MOL    H5215704   1.646   0.437   0.463  0.1138 -1.1153 -3.0017
   87MOL    H5315705   1.463   0.347   0.584  1.1486 -2.1546 -1.9652
   87MOL    H5415706   1.568   0.254   0.695  1.6027  0.3516  0.4762
   87MOL    H5515707   1.559   0.427   0.692  0.9676 -0.6772  1.5301
   87MOL    C5615708   1.517   0.102   0.287  0.5415 -0.0738 -0.1913
   87MOL    C5715709   1.376   0.111   0.259  0.3019  0.1292  0.0282
   87MOL    C5815710   1.565   8.107   0.310 -0.1255 -0.1600  0.2423
   87MOL    O5915711   1.630   8.066   0.410 -0.3336  0.8570  0.1027
   87MOL    O6015712   1.534   8.028   0.211 -0.0458  0.6003 -0.9442
   87MOL    H6115713   1.576   0.151   0.209 -1.8963  3.5131  0.0663
   87MOL    H6215714   1.322   0.075   0.346  0.7400  1.0688  0.6833
   87MOL    H6315715   1.342   0.214   0.248  1.4258  0.5506  0.4269
   87MOL    H6415716   1.352   0.037   0.182 -0.3628 -1.0506  1.3510
   87MOL    C6515717   1.585   7.890   0.210  0.7024 -0.1629  0.1864
   87MOL    C6615718   1.574   7.823   0.075  0.4166 -0.0932  0.0669
   87MOL    C6715719   1.505   7.809   0.311 -0.0830  0.7531 -0.5952
   87MOL    O6815720   1.397   7.846   0.354  0.4355 -0.8530 -0.0789
   87MOL    O6915721   1.566   7.688   0.328 -0.2949 -0.7208 -0.4893
   87MOL    H7015722   1.692   7.885   0.228  0.5858  0.4361  1.0586
   87MOL    H7115723   1.595   7.716   0.067  2.7337  0.3102  0.3922
   87MOL    H7215724   1.473   7.837   0.038 -0.0190 -3.1581 -0.0563
   87MOL    H7315725   1.639   7.871   0.003  0.1968  1.2132  0.7365
   87MOL    C7415726   1.544   7.607   0.439 -0.1673  0.5432  0.3905
   87MOL    C7515727   1.648   7.494   0.448  0.5256 -0.6078  0.2028
   87MOL    C7615728   1.396   7.552   0.444 -0.3697 -0.5383  0.0837
   87MOL    O7715729   1.352   7.484   0.349 -0.8342  0.3070 -0.3930
   87MOL    O7815730   1.332   7.571   0.555 -0.6773 -0.3177 -0.2835
   87MOL    H7915731   1.557   7.678   0.521 -0.0460  1.8225 -0.7312
   87MOL    H8015732   1.641   7.431   0.536  0.6248 -0.6883  0.1540
   87MOL    H8115733   1.626   7.418   0.372 -2.4584  1.0635 -0.6398
   87MOL    H8215734   1.746   7.541   0.441  1.1584 -1.9823 -0.4062
   87MOL    C8315735   1.203   7.508   0.580 -0.0928  0.0778 -0.3463
   87MOL    C8415736   1.134   7.572   0.697  0.6141  0.2872  0.4136
   87MOL    C8515737   1.214   7.363   0.611  0.1134 -0.3257  1.0444
   87MOL    O8615738   1.322   7.305   0.611 -0.6874 -0.0433  0.3105
   87MOL    O8715739   1.095   7.302   0.619 -0.3881  0.0159  0.1877
   87MOL    H8815740   1.133   7.512   0.496 -0.5790 -0.3664  0.0367
   87MOL    H8915741   1.111   7.679   0.689 -0.2796  0.0484 -0.3038
   87MOL    H9015742   1.032   7.535   0.701  0.5172  0.3033 -1.6719
   87MOL    H9115743   1.192   7.565   0.789 -0.1408  0.3329  0.8973
   87MOL    C9215744   1.079   7.156   0.623 -0.2800 -0.0569  0.3196
   87MOL    C9315745   0.937   7.115   0.575  0.0345 -0.1539  0.2655
   87MOL    C9415746   1.115   7.099   0.755 -0.4789  0.0256  0.2210
   87MOL    O9515747   1.170   6.993   0.768  0.0034 -0.1570 -0.2176
   87MOL    O9615748   1.073   7.178   0.863  0.4505  0.5936 -0.3836
   87MOL    H9715749   1.148   7.123   0.545 -0.1477  0.5414  0.1775
   87MOL    H9815750   0.929   7.008   0.593 -0.0258 -0.5879 -2.1742
   87MOL    H9915751   0.866   7.177   0.630  2.0989  2.5672 -0.0493
   87MOL   H10015752   0.914   7.146   0.473 -1.7423  0.4099  0.8289
   87MOL   C10115753   1.075   7.130   0.999 -0.0654 -0.0347  0.6184
   87MOL   C10215754   0.946   7.072   1.039  0.5880  0.4655 -0.3118
   87MOL   C10315755   1.106   7.245   1.094 -0.1121  0.9714 -0.3667
   87MOL   O10415756   1.108   7.364   1.052  0.0557 -0.3752  0.1846
   87MOL   O10515757   1.107   7.214   1.224  0.0311 -0.0497 -0.8533
   87MOL   H10615758   1.164   7.068   1.012  0.4257  0.7647  1.1112
   87MOL   H10715759   0.948   7.031   1.140  0.6086 -0.8893 -0.8530
   87MOL   H10815760   0.864   7.142   1.024 -0.5747 -1.1431 -1.6004
   87MOL   H10915761   0.930   6.982   0.980  1.1571  0.1865 -0.0406
   87MOL   C11015762   1.140   7.318   1.324 -0.2258  0.0388  0.6869
   87MOL   C11115763   1.237   7.250   1.428  0.0763  0.1663  0.0140
   87MOL   C11215764   1.010   7.364   1.395 -0.4745 -0.0686  0.4603
   87MOL   O11315765   0.965   7.476   1.373  0.1776 -0.2970  0.6776
   87MOL   O11415766   0.963   7.277   1.479  0.3419  0.0196  0.2584
   87MOL   H11515767   1.186   7.403   1.274 -1.1777  0.5543  0.6673
   87MOL   H11615768   1.334   7.224   1.384 -0.9154 -3.4582 -0.1573
   87MOL   H11715769   1.256   7.312   1.516 -4.2855  0.4648  0.8583
   87MOL   H11815770   1.189   7.160   1.464 -0.3984  0.7671  0.9000
   87MOL   C11915771   0.846   7.305   1.548 -0.7302  0.3849 -0.9839
   87MOL   C12015772   0.851   7.226   1.680 -0.0572  0.6536  0.5973
   87MOL   C12115773   0.719   7.254   1.470  0.7830  0.6462  0.6728
   87MOL   O12215774   0.653   7.157   1.505 -0.2313  0.2916  0.1704
   87MOL   O12315775   0.697   7.330   1.367 -0.1920 -0.0509  0.1731
   87MOL   H12415776   0.832   7.403   1.593  0.5156 -0.3125  1.0120
   87MOL   H12515777   0.750   7.240   1.720 -0.5180  0.6346 -0.5382
   87MOL   H12615778   0.871   7.120   1.661  1.4971  0.9758  0.3930
   87MOL   H12715779   0.922   7.272   1.748  0.8653 -0.6917  0.5709
   87MOL   C12815780   0.593   7.302   1.281  0.2761 -0.6741  0.2314
   87MOL   C12915781   0.630   7.369   1.149  0.2713  0.2886  0.1071
   87MOL   C13015782   0.464   7.362   1.333  0.3015 -0.5988 -0.1270
   87MOL   O13115783   0.458   7.434   1.435  0.1941 -0.4184 -0.1156
   87MOL   O13215784   0.354   7.305   1.277 -0.0111  0.4641  0.7849
   87MOL   H13315785   0.570   7.198   1.254 -0.3512 -0.7018  0.8619
   87MOL   H13415786   0.548   7.357   1.077 -0.0407 -0.3591  0.5668
   87MOL   H13515787   0.669   7.469   1.165  1.7184 -0.2969  0.3103
   87MOL   H13615788   0.722   7.331   1.105  0.2258 -0.6371  0.8040
   87MOL   C13715789   0.223   7.339   1.324 -0.0827  0.2424 -0.2331
   87MOL   C13815790   0.131   7.212   1.332  0.0916  0.3614 -0.4983
   87MOL   C13915791   0.167   7.457   1.239  0.3202 -0.3652  0.2271
   87MOL   O14015792   0.188   7.571   1.285  0.5003  0.2564  0.6499
   87MOL   O14115793   0.108   7.426   1.122  0.1366 -0.2020 -0.7234
   87MOL   H14215794   0.227   7.381   1.425  1.3191 -3.4207  1.3197
   87MOL   H14315795   0.180   7.139   1.396 -1.2287 -1.4496 -1.4975
   87MOL   H14415796   0.039   7.250   1.375 -1.5335 -3.8360 -0.0125
   87MOL   H14515797   0.099   7.176   1.234  1.0818 -1.9468 -0.0034
   87MOL   C14615798   0.074   7.529   1.023 -0.8924  0.7159  0.3489
   87MOL   C14715799   8.142   7.470   0.911 -0.2577  0.0570  0.1179
   87MOL   C14815800   0.205   7.587   0.971  0.6612  0.0126  0.3955
   87MOL   O14915801   0.314   7.532   0.985 -0.2176 -0.3620  0.2169
   87MOL   O15015802   0.182   7.709   0.910 -0.2124 -0.4641  0.8034
   87MOL   H15115803   0.017   7.612   1.064 -1.0975  2.1413 -2.6380
   87MOL   H15215804   8.109   7.542   0.836 -3.2604  0.4288  1.7031
   87MOL   H15315805   0.043   7.385   0.863  1.1701  0.4779  0.7765
   87MOL   H15415806   8.051   7.425   0.949 -0.9954  1.7828  0.4684
   87MOL   C15515807   0.286   7.775   0.841 -0.6078 -1.1089 -0.0673
   87MOL   C15615808   0.261   7.927   0.840  0.1272  0.0897  0.3767
   87MOL   C15715809   0.312   7.718   0.695 -0.1502  0.2507  0.0176
   87MOL   O15815810   0.420   7.736   0.632 -0.0076 -0.4152 -0.4681
   87MOL   O15915811   0.205   7.667   0.640  0.1251  0.3084  0.0770
   87MOL   H16015812   0.374   7.768   0.904 -0.5588  0.8506  0.1102
   87MOL   H16115813   0.185   7.948   0.765  1.4156  1.1612 -0.6474
   87MOL   H16215814   0.237   7.970   0.938  1.9409  1.3934  0.2805
   87MOL   H16315815   0.354   7.969   0.801  0.7112 -1.3979  0.1284
   87MOL   C16415816   0.185   7.653   0.492 -0.4218 -0.0644 -0.2809
   87MOL   C16515817   0.053   7.727   0.441 -0.6520  0.0662 -0.4138
   87MOL   C16615818   0.180   7.510   0.440  0.0838 -0.2108  0.4895
   87MOL   O16715819   0.214   7.475   0.331 -0.2993  0.0697  0.2934
   87MOL   O16815820   0.121   7.432   0.534  0.0133 -0.2745  0.0909
   87MOL   H16915821   0.267   7.706   0.444  0.5557 -2.0050 -0.8521
   87MOL   H17015822   0.052   7.836   0.452 -2.5525  0.1083 -0.8289
   87MOL   H17115823   0.049   7.709   0.333 -0.0485  2.0381 -0.7937
   87MOL   H17215824   8.115   7.679   0.487  0.1372 -0.9646 -0.0003
   87MOL   C17315825   0.067   7.299   0.504  0.0577  0.0142  0.6230
   87MOL   C17415826   8.090   7.264   0.590  0.4014 -0.8774  0.6645
   87MOL   C17515827   0.176   7.191   0.515  0.5013 -0.5627  0.1068
   87MOL   O17615828   0.158   7.085   0.565 -0.1511  0.3778 -0.0926
   87MOL   O17715829   0.294   7.226   0.451 -0.5427 -0.0588 -0.0015
   87MOL   H17815830   0.033   7.295   0.400 -0.2889 -1.2564  0.7719
   87MOL   H17915831   8.056   7.161   0.580  0.5485 -0.7491 -1.2557
   87MOL   H18015832   8.090   7.292   0.695  1.3481 -1.5259  0.8415
   87MOL   H18115833   8.007   7.327   0.561 -0.0093 -1.2500  1.0181
   87MOL   H18215834   0.295   7.312   0.412 -1.8279 -1.8939 -4.3587
   88MOL     C115835   6.042   6.693   2.557  0.1000 -0.1128  0.4967
   88MOL     C215836   5.905   6.661   2.512 -0.1558  0.5493  0.1196
   88MOL     C315837   6.074   6.842   2.543  0.2837  0.6000  0.7256
   88MOL     O415838   6.051   6.922   2.632 -0.5520  0.3737  0.3383
   88MOL     O515839   6.122   6.872   2.417  0.2597 -0.0498 -0.2646
   88MOL     H615840   6.050   6.665   2.662  2.7463 -0.8781  0.1242
   88MOL     H715841   5.840   6.743   2.540 -0.2825  0.4526  0.1093
   88MOL     H815842   5.903   6.648   2.404  1.3148  1.6619 -0.0595
   88MOL     H915843   5.870   6.563   2.547  0.0343  0.3625 -0.2069
   88MOL    H1015844   6.121   6.631   2.515  0.5964 -1.8800  3.8262
   88MOL    C1115845   6.151   7.009   2.372  0.3301  0.0799  0.7321
   88MOL    C1215846   6.201   7.008   2.228  0.5064 -0.0036 -0.9827
   88MOL    C1315847   6.264   7.067   2.457 -0.6003 -0.0243 -0.1813
   88MOL    O1415848   6.376   7.016   2.458  0.3282 -0.4623 -0.0386
   88MOL    O1515849   6.230   7.154   2.547  0.7219 -0.0475  0.4995
   88MOL    H1615850   6.066   7.075   2.389  0.2890  0.1959  0.0995
   88MOL    H1715851   6.274   6.928   2.220 -1.5051 -1.8627 -1.5215
   88MOL    H1815852   6.126   6.990   2.150  1.3875 -1.6404 -1.4814
   88MOL    H1915853   6.247   7.101   2.197  0.1464  0.6232  0.3487
   88MOL    C2015854   6.319   7.191   2.658 -0.5206  0.9687  0.0872
   88MOL    C2115855   6.229   7.248   2.774  0.3788  0.4113  0.2460
   88MOL    C2215856   6.422   7.287   2.618 -0.5262 -0.3852 -0.6548
   88MOL    O2315857   6.541   7.283   2.654 -0.6338  0.5006  0.0405
   88MOL    O2415858   6.369   7.387   2.544  0.3816 -0.8956  0.1336
   88MOL    H2515859   6.366   7.100   2.696 -0.7406  0.4962 -0.7333
   88MOL    H2615860   6.131   7.201   2.786  0.6167 -1.2720 -3.4713
   88MOL    H2715861   6.283   7.228   2.866  0.1742  1.3090  0.5635
   88MOL    H2815862   6.215   7.356   2.767 -0.5305  0.5483  3.5626
   88MOL    C2915863   6.431   7.507   2.510 -0.7013 -0.3945  0.6082
   88MOL    C3015864   6.324   7.603   2.469 -0.1080 -0.4005 -0.3073
   88MOL    C3115865   6.529   7.486   2.392  0.3694 -0.0828  0.1328
   88MOL    O3215866   6.542   7.381   2.331  0.5807 -0.8757  0.4725
   88MOL    O3315867   6.596   7.600   2.360  0.0472  0.1434  0.3646
   88MOL    H3415868   6.490   7.547   2.592  0.8622 -0.9797 -0.2015
   88MOL    H3515869   6.275   7.643   2.557  0.2180  3.3342 -1.7464
   88MOL    H3615870   6.370   7.693   2.428 -1.0037 -0.2372 -0.9594
   88MOL    H3715871   6.257   7.558   2.396 -0.5148 -0.8058  0.3140
   88MOL    C3815872   6.669   7.614   2.246 -0.1619  0.0682 -0.1706
   88MOL    C3915873   6.769   7.732   2.274  0.3693  0.6511 -0.3175
   88MOL    C4015874   6.579   7.644   2.126  0.7621  0.4742  0.1123
   88MOL    O4115875   6.558   7.762   2.097  0.1679  0.0239 -0.2320
   88MOL    O4215876   6.523   7.533   2.072 -0.4114 -0.0121  0.8734
   88MOL    H4315877   6.718   7.517   2.232 -0.0963  0.0210  0.3612
   88MOL    H4415878   6.719   7.829   2.270 -1.9376 -0.4749  0.0165
   88MOL    H4515879   6.823   7.726   2.368  0.0260 -0.3389 -0.1819
   88MOL    H4615880   6.852   7.709   2.208  0.1116 -1.9463  0.2275
   88MOL    C4715881   6.429   7.534   1.964  0.1292  0.0563 -0.2229
   88MOL    C4815882   6.324   7.430   2.019 -0.3561  0.6065 -0.5236
   88MOL    C4915883   6.488   7.504   1.824 -0.3473  0.2654 -0.6877
   88MOL    O5015884   6.470   7.391   1.770  0.0578 -0.5748 -0.2608
   88MOL    O5115885   6.560   7.605   1.775 -0.0723  0.2153 -0.4053
   88MOL    H5215886   6.390   7.635   1.955 -0.8506 -0.5058 -2.8906
   88MOL    H5315887   6.290   7.459   2.118  2.1204  0.8439  0.2957
   88MOL    H5415888   6.234   7.431   1.958  0.8881 -1.7539 -2.5019
   88MOL    H5515889   6.368   7.330   2.009 -1.2831  0.3415 -2.2967
   88MOL    C5615890   6.601   7.620   1.637  0.3386 -0.5467  0.5264
   88MOL    C5715891   6.743   7.569   1.629  0.0590 -0.7114  0.1224
   88MOL    C5815892   6.587   7.768   1.600 -0.3811 -0.2686  0.1311
   88MOL    O5915893   6.569   7.854   1.691  0.1314 -0.1639  0.1611
   88MOL    O6015894   6.604   7.798   1.470  0.3101 -0.1638  0.5495
   88MOL    H6115895   6.522   7.573   1.578 -0.1535  0.0814  0.6753
   88MOL    H6215896   6.802   7.621   1.706  0.9240  2.5192 -2.5883
   88MOL    H6315897   6.744   7.464   1.659  0.5257 -0.5056  0.8612
   88MOL    H6415898   6.784   7.577   1.528 -1.0979  0.3263 -0.2799
   88MOL    C6515899   6.617   7.928   1.425  0.4974  0.6747 -0.2695
   88MOL    C6615900   6.606   7.930   1.264 -0.1254  1.1701  0.6092
   88MOL    C6715901   6.750   7.988   1.463  0.8817  0.1562  0.8547
   88MOL    O6815902   6.768   8.110   1.469 -0.1423  0.4600 -0.3618
   88MOL    O6915903   6.844   7.893   1.487 -0.3658  0.0615  0.0685
   88MOL    H7015904   6.534   7.983   1.468 -2.3937 -3.6511  0.0130
   88MOL    H7115905   6.572   8.030   1.237 -1.2774  0.3200 -1.2173
   88MOL    H7215906   6.701   7.904   1.217  0.1198 -2.1875  2.8182
   88MOL    H7315907   6.530   7.861   1.227  1.3024  0.8361 -1.8089
   88MOL    C7415908   6.983   7.920   1.516  0.0440  0.1459 -0.7669
   88MOL    C7515909   7.062   7.793   1.490  0.2550 -0.0725  0.1878
   88MOL    C7615910   7.003   7.984   1.655  1.2009  0.8082  0.2699
   88MOL    O7715911   7.086   8.067   1.684 -0.3258  0.3174  0.0299
   88MOL    O7815912   6.919   7.919   1.746  0.5323  0.0254  0.3806
   88MOL    H7915913   7.018   7.992   1.443  0.7741  0.1755 -0.3905
   88MOL    H8015914   7.154   7.790   1.547  0.5753 -1.4838 -0.3967
   88MOL    H8115915   7.005   7.709   1.529  1.4792 -0.5829  0.8680
   88MOL    H8215916   7.087   7.768   1.387 -2.0736 -0.3119 -0.3466
   88MOL    C8315917   6.903   7.971   1.884 -0.7028 -0.2934 -0.0056
   88MOL    C8415918   6.793   7.897   1.960 -0.2196 -0.1240  0.5628
   88MOL    C8515919   6.867   8.126   1.890  0.2360  1.1608  0.7591
   88MOL    O8615920   6.898   0.053   1.983  0.2454  0.0057 -0.2119
   88MOL    O8715921   6.792   0.012   1.786  0.1043 -0.6039 -0.7539
   88MOL    H8815922   6.992   7.971   1.948  0.2843  1.2781 -1.3197
   88MOL    H8915923   6.791   7.920   2.067 -0.5939 -0.0601  0.5405
   88MOL    H9015924   6.694   7.914   1.919  0.5005  0.1446 -1.1135
   88MOL    H9115925   6.807   7.789   1.953 -0.1436 -0.0920  0.2243
   88MOL    C9215926   6.746   0.155   1.756 -0.8117  0.5365  0.3834
   88MOL    C9315927   6.855   0.240   1.695  0.0583 -0.8697  0.0120
   88MOL    C9415928   6.673   0.225   1.871 -0.0617 -0.2529 -0.2013
   88MOL    O9515929   6.680   0.346   1.888  0.7140 -0.2318  0.4894
   88MOL    O9615930   6.595   0.142   1.942 -0.4112 -0.3457  0.4482
   88MOL    H9715931   6.670   0.153   1.678 -0.2610  1.6541 -0.1938
   88MOL    H9815932   6.801   0.328   1.661  0.2475 -1.1614 -1.0933
   88MOL    H9915933   6.931   0.279   1.762 -0.3626 -0.0431  0.0171
   88MOL   H10015934   6.912   0.188   1.618  1.1230  1.4181 -0.8114
   88MOL   C10115935   6.506   0.194   2.043 -0.0700  0.7143  0.1875
   88MOL   C10215936   6.583   0.276   2.151  0.3823  0.8554 -0.6952
   88MOL   C10315937   6.432   0.076   2.108 -0.0518  1.1812  0.2844
   88MOL   O10415938   6.442   0.051   2.230 -0.2073 -1.0340 -0.6397
   88MOL   O10515939   6.352   0.012   2.016  0.4536 -0.4430 -0.6234
   88MOL   H10615940   6.421   0.249   2.003 -0.0641 -0.5555 -1.6195
   88MOL   H10715941   6.601   0.376   2.113 -0.0638  2.0563  2.1234
   88MOL   H10815942   6.529   0.285   2.246  0.4640  1.4950 -0.7105
   88MOL   H10915943   6.679   0.230   2.175 -0.7653 -0.6805  1.1316
   88MOL   C11015944   6.279   8.044   2.054  0.0335 -0.3325  0.2841
   88MOL   C11115945   6.221   7.981   1.927 -0.5518 -0.0387 -0.4955
   88MOL   C11215946   6.172   8.071   2.163  0.0122  0.1530 -0.0998
   88MOL   O11315947   6.088   0.013   2.155 -0.4547 -0.0934  0.2558
   88MOL   O11415948   6.170   7.981   2.259 -0.2872 -0.0258 -0.2353
   88MOL   H11515949   6.340   7.961   2.089  0.1116 -0.3358  0.1386
   88MOL   H11615950   6.211   7.874   1.948  0.3950  0.2523  1.5748
   88MOL   H11715951   6.131   8.037   1.899 -1.8552 -0.8612  1.8954
   88MOL   H11815952   6.296   7.992   1.849 -0.0151  1.0018  0.1587
   88MOL   C11915953   6.125   8.020   2.395 -1.0361 -1.0188  1.0506
   88MOL   C12015954   6.229   7.986   2.491  0.0875  0.3916 -0.6891
   88MOL   C12115955   5.990   7.941   2.422 -0.0967 -0.0081 -0.4839
   88MOL   O12215956   5.986   7.855   2.504  0.2058 -0.2921 -1.0204
   88MOL   O12315957   5.885   7.981   2.344  0.4203  0.0487 -0.5980
   88MOL   H12415958   6.113   8.128   2.393 -1.6347 -1.1015 -1.1984
   88MOL   H12515959   6.187   8.014   2.587  0.7297 -1.0153  0.0232
   88MOL   H12615960   6.243   7.878   2.495 -2.3305  0.0571 -0.3125
   88MOL   H12715961   6.317   8.048   2.476 -0.3551  1.0554 -0.5360
   88MOL   C12815962   5.759   7.922   2.360  0.1061 -0.1145  0.3346
   88MOL   C12915963   5.672   7.968   2.241 -0.5513  0.5323 -0.1296
   88MOL   C13015964   5.690   7.961   2.495 -0.5786 -0.1729 -0.5488
   88MOL   O13115965   5.588   7.900   2.526 -0.3204  0.6346 -0.0049
   88MOL   O13215966   5.741   8.073   2.556  0.5512  0.3165 -0.2128
   88MOL   H13315967   5.766   7.814   2.352 -2.1534 -0.1311 -2.3272
   88MOL   H13415968   5.575   7.918   2.232  0.8857 -2.0076 -2.3048
   88MOL   H13515969   5.650   8.075   2.245  0.4192  0.6736  1.9735
   88MOL   H13615970   5.730   7.947   2.151 -2.3601  1.2890 -1.5207
   88MOL   C13715971   5.685   8.115   2.683  1.3508  0.0368 -0.0580
   88MOL   C13815972   5.738   0.104   2.708 -0.0654 -0.3158  0.2690
   88MOL   C13915973   5.725   8.028   2.799  0.3106 -0.0065 -0.1485
   88MOL   O14015974   5.641   7.964   2.859 -0.1859 -0.7128  0.6336
   88MOL   O14115975   5.855   8.041   2.833 -0.4045  0.3322  0.3055
   88MOL   H14215976   5.576   8.120   2.674  1.3746  1.6546  0.4155
   88MOL   H14315977   5.841   0.106   2.674  0.0512 -0.4187  0.6179
   88MOL   H14415978   5.694   0.189   2.654 -0.2829 -1.6511 -1.7002
   88MOL   H14515979   5.718   0.130   2.812 -2.6448 -0.7405 -0.0853
   88MOL   C14615980   5.909   7.974   2.950  0.8343  0.2668  0.4330
   88MOL   C14715981   5.953   8.076   3.044 -0.1129 -0.6863  0.3756
   88MOL   C14815982   6.019   7.874   2.912  0.4587  0.4989 -0.3599
   88MOL   O14915983   6.105   7.905   2.831 -0.1577 -0.2614 -0.5535
   88MOL   O15015984   6.015   7.756   2.967 -0.1358 -0.2564  0.0655
   88MOL   H15115985   5.833   7.911   2.994 -0.4008  0.4975 -1.3224
   88MOL   H15215986   6.027   8.143   3.000  0.4273 -1.1831  0.5230
   88MOL   H15315987   5.866   8.133   3.078 -0.1235  0.4123 -1.3963
   88MOL   H15415988   5.988   8.030   3.136  0.3324  0.5381  0.8297
   88MOL   C15515989   6.102   7.648   2.925 -0.6073  0.1035  0.5930
   88MOL   C15615990   6.032   7.522   2.980 -0.2541 -0.3757  0.0420
   88MOL   C15715991   6.240   7.661   2.988 -1.4840  0.7315  0.6559
   88MOL   O15815992   6.274   7.751   3.067  0.8330  0.0060  0.0799
   88MOL   O15915993   6.325   7.555   2.961 -0.8295  0.0220 -0.6259
   88MOL   H16015994   6.108   7.648   2.816  1.4701  2.3645  0.6418
   88MOL   H16115995   5.928   7.530   2.951 -0.6064  3.1784  1.9171
   88MOL   H16215996   6.071   7.427   2.944  0.2216 -0.8243  1.6855
   88MOL   H16315997   6.031   7.529   3.089  0.7821 -0.8868  0.0918
   88MOL   C16415998   6.455   7.542   3.022  0.0112 -0.0655  0.6822
   88MOL   C16515999   6.543   7.452   2.931  0.2493 -0.0281 -0.1952
   88MOL   C16616000   6.442   7.487   3.162  0.0217 -0.2530 -0.5550
   88MOL   O16716001   6.430   7.566   3.257 -0.2421 -0.0398 -0.3013
   88MOL   O16816002   6.413   7.354   3.168  0.5505  0.5740  0.5774
   88MOL   H16916003   6.503   7.640   3.020 -0.3476  0.0916 -0.0323
   88MOL   H17016004   6.648   7.467   2.954 -0.2033  0.8902  1.3523
   88MOL   H17116005   6.531   7.344   2.924 -0.8017  0.1215 -0.8929
   88MOL   H17216006   6.539   7.493   2.830 -2.1158 -0.7149 -0.4202
   88MOL   C17316007   6.354   7.313   3.292  0.3770 -0.7740 -0.8400
   88MOL   C17416008   6.427   7.193   3.371 -0.7851 -0.4209 -0.2460
   88MOL   C17516009   6.200   7.294   3.276  0.3124  0.0798 -0.2575
   88MOL   O17616010   6.141   7.296   3.171  0.6514  0.5115 -0.5153
   88MOL   O17716011   6.142   7.258   3.399 -0.0706 -0.3218  0.5802
   88MOL   H17816012   6.353   7.389   3.370 -1.1397 -1.5644 -0.0686
   88MOL   H17916013   6.366   7.126   3.431 -1.2109 -0.3305 -0.5701
   88MOL   H18016014   6.472   7.127   3.297  0.3821 -0.6160  0.6289
   88MOL   H18116015   6.512   7.227   3.430 -0.5293 -0.0372 -0.8265
   88MOL   H18216016   6.049   7.259   3.381  0.0175  2.2129  0.0287
   89MOL     C116017   7.951   6.421   6.719 -0.0155 -0.2850  0.3863
   89MOL     C216018   8.004   6.563   6.682  0.7144  0.1400  0.3931
   89MOL     C316019   7.884   6.343   6.602  0.0707 -0.2196 -0.1528
   89MOL     O416020   7.781   6.390   6.552 -0.0823 -0.0161  0.2790
   89MOL     O516021   7.953   6.228   6.568  0.0025  0.4682 -0.8104
   89MOL     H616022   8.041   6.366   6.747  0.2259  0.6528  1.5473
   89MOL     H716023   7.936   6.645   6.660 -1.8945 -2.0681 -0.0392
   89MOL     H816024   8.069   6.599   6.762  0.6429 -0.4650  0.7245
   89MOL     H916025   8.087   6.553   6.612  0.2329  2.2414 -0.5027
   89MOL    H1016026   7.881   6.434   6.802  0.2869 -0.3258  0.6453
   89MOL    C1116027   7.909   6.149   6.456  0.2188  0.4261  0.5049
   89MOL    C1216028   7.935   6.003   6.490  0.1087 -0.1137 -0.1139
   89MOL    C1316029   7.977   6.190   6.323 -0.6470 -0.1784 -0.4411
   89MOL    O1416030   8.038   6.302   6.318  0.4531  0.2821 -0.1350
   89MOL    O1516031   7.967   6.099   6.224  0.3214  0.1514  0.3066
   89MOL    H1616032   7.802   6.151   6.437  0.4943 -0.3916 -1.2772
   89MOL    H1716033   8.042   5.983   6.497  0.1895  0.9742  1.7971
   89MOL    H1816034   7.884   5.968   6.579  0.6553 -0.2955  0.1342
   89MOL    H1916035   7.899   5.932   6.415  0.6649 -0.4430 -0.0778
   89MOL    C2016036   8.040   6.100   6.096 -0.5709  0.0834 -0.0901
   89MOL    C2116037   8.012   5.973   6.016 -0.9972 -0.5573  0.2636
   89MOL    C2216038   0.046   6.115   6.128 -0.6294  0.2838 -0.7771
   89MOL    O2316039   0.123   6.198   6.085 -0.7825  0.4207  0.2674
   89MOL    O2416040   0.081   6.006   6.201  0.5249 -0.8531  0.6612
   89MOL    H2516041   8.013   6.185   6.034 -0.6476  0.2203  0.1297
   89MOL    H2616042   7.904   5.978   6.001 -0.8676  1.7620 -0.1709
   89MOL    H2716043   8.070   5.956   5.925 -0.2091  2.3308  0.1711
   89MOL    H2816044   8.030   5.886   6.079 -1.3417  0.0423  1.1923
   89MOL    C2916045   0.209   5.995   6.257 -0.3319  0.1817  0.3376
   89MOL    C3016046   0.295   5.873   6.210 -0.1944 -0.0420 -0.0722
   89MOL    C3116047   0.185   5.995   6.405  0.4931 -1.0757 -0.5623
   89MOL    O3216048   0.170   5.885   6.461  0.2191  0.2525  0.4188
   89MOL    O3316049   0.175   6.117   6.463  0.1302 -1.1282 -0.0918
   89MOL    H3416050   0.265   6.085   6.231 -0.9688  0.4853  0.0060
   89MOL    H3516051   0.396   5.875   6.251  0.4816 -0.0534 -1.6978
   89MOL    H3616052   0.246   5.780   6.238  2.3983 -1.7957 -1.1499
   89MOL    H3716053   0.308   5.880   6.102 -1.3724  0.4516 -0.1911
   89MOL    C3816054   0.185   6.137   6.604 -0.4338  0.0167 -0.7136
   89MOL    C3916055   0.168   6.286   6.628  0.2604 -0.6808  0.4187
   89MOL    C4016056   0.327   6.083   6.651  0.7780 -0.7547  0.4690
   89MOL    O4116057   0.414   6.033   6.578 -0.0569 -0.4902  0.0626
   89MOL    O4216058   0.347   6.106   6.788  0.2003 -0.6657  1.6028
   89MOL    H4316059   0.104   6.080   6.650  1.1823 -1.3440  0.5547
   89MOL    H4416060   0.125   6.310   6.725  2.1094  2.7316  0.4618
   89MOL    H4516061   0.261   6.342   6.622 -0.0754  0.0972  2.2289
   89MOL    H4616062   0.089   6.325   6.564 -0.7235 -1.5312  1.1067
   89MOL    C4716063   0.466   6.089   6.851 -0.3549 -0.7009  0.9918
   89MOL    C4816064   0.444   6.094   7.008  0.1201 -0.4137  0.0305
   89MOL    C4916065   0.559   6.204   6.798  0.3748 -0.7235  0.5526
   89MOL    O5016066   0.531   6.297   6.718 -0.7138  0.1751  0.0137
   89MOL    O5116067   0.680   6.190   6.860 -0.2762  0.3427  0.0562
   89MOL    H5216068   0.508   5.995   6.814 -4.4633 -1.7742 -1.3827
   89MOL    H5316069   0.536   6.081   7.067  0.4968 -1.1436 -0.7104
   89MOL    H5416070   0.407   6.192   7.036  4.0720  1.3216 -0.5180
   89MOL    H5516071   0.369   6.020   7.035 -0.1720 -0.3845 -0.6935
   89MOL    C5616072   0.768   6.294   6.877 -0.2523  0.3171  0.1938
   89MOL    C5716073   0.892   6.228   6.939  1.3519 -0.1633 -0.5460
   89MOL    C5816074   0.717   6.399   6.973  0.0267  0.3546 -0.4386
   89MOL    O5916075   0.645   6.367   7.066  0.4078 -0.0860 -0.5540
   89MOL    O6016076   0.747   6.523   6.946 -0.3872 -0.2028  0.2206
   89MOL    H6116077   0.795   6.338   6.781  0.8561  0.5649  0.6091
   89MOL    H6216078   0.931   6.156   6.867 -1.1914 -0.7942 -1.3445
   89MOL    H6316079   0.970   6.302   6.954  1.8491 -1.3997  3.1941
   89MOL    H6416080   0.877   6.185   7.038 -0.5851  1.9714  0.1278
   89MOL    C6516081   0.713   6.634   7.022  0.5798  0.3837 -0.1954
   89MOL    C6616082   0.700   6.757   6.931 -0.2671 -0.2528  0.5979
   89MOL    C6716083   0.810   6.664   7.140 -0.9290 -0.6826 -0.0338
   89MOL    O6816084   0.813   6.777   7.189 -0.1563  0.1604  0.1239
   89MOL    O6916085   0.890   6.565   7.179  0.3879 -0.9631 -0.0401
   89MOL    H7016086   0.614   6.617   7.065  1.6900 -1.3598  1.7602
   89MOL    H7116087   0.613   6.742   6.866 -0.7914 -1.7092  1.6025
   89MOL    H7216088   0.683   6.847   6.989  2.4274  0.4016  0.4438
   89MOL    H7316089   0.785   6.785   6.869  0.7364 -0.2224  1.9627
   89MOL    C7416090   0.997   6.581   7.277  1.7866 -1.3338 -0.5779
   89MOL    C7516091   1.115   6.493   7.238 -0.0595  0.0339  0.3586
   89MOL    C7616092   0.943   6.559   7.422  0.8272  0.3014 -0.1577
   89MOL    O7716093   0.839   6.495   7.447  0.6151 -0.0135  0.2816
   89MOL    O7816094   1.031   6.609   7.510  0.5544  0.6231 -0.4258
   89MOL    H7916095   1.029   6.685   7.270  0.3638 -0.8088  0.5671
   89MOL    H8016096   1.153   6.531   7.142 -3.8284  0.8727 -0.8807
   89MOL    H8116097   1.195   6.507   7.311 -0.2377  2.5252  0.1340
   89MOL    H8216098   1.094   6.387   7.228  1.6062 -0.2788 -0.0294
   89MOL    C8316099   0.991   6.603   7.654  0.4816  0.4997  0.3434
   89MOL    C8416100   1.028   6.738   7.712 -0.2336  0.4304 -0.2522
   89MOL    C8516101   1.053   6.475   7.719  0.1722  0.5900  0.5208
   89MOL    O8616102   1.028   6.446   7.834 -0.2433 -0.3589  0.0305
   89MOL    O8716103   1.151   6.413   7.645  0.4097  0.5730 -0.3711
   89MOL    H8816104   0.884   6.594   7.671  0.3430 -1.1174 -1.2132
   89MOL    H8916105   0.968   6.817   7.667 -0.6832 -0.2244 -0.8105
   89MOL    H9016106   1.002   6.734   7.817  1.8540  1.8907  0.3636
   89MOL    H9116107   1.135   6.756   7.696  0.6574 -2.6197  1.9095
   89MOL    C9216108   1.213   6.298   7.695  0.3065 -0.3005 -0.3523
   89MOL    C9316109   1.352   6.327   7.756 -0.1608  0.2702 -0.3982
   89MOL    C9416110   1.218   6.200   7.583 -0.3800 -0.2988  0.1264
   89MOL    O9516111   1.323   6.151   7.539  0.3557  0.0378 -0.1003
   89MOL    O9616112   1.095   6.180   7.537  0.2214  0.2447 -0.5395
   89MOL    H9716113   1.155   6.255   7.777 -0.1499 -1.9754 -1.5099
   89MOL    H9816114   1.340   6.391   7.843 -0.2295  0.9946 -0.9323
   89MOL    H9916115   1.402   6.235   7.784  0.8927  0.9675  0.0421
   89MOL   H10016116   1.408   6.387   7.684  1.1493 -1.2037 -0.6414
   89MOL   C10116117   1.062   6.090   7.437 -0.3048 -0.0436 -0.1983
   89MOL   C10216118   0.925   6.146   7.386 -0.0448  0.3461  0.1643
   89MOL   C10316119   1.055   5.947   7.500  0.2011  0.1402 -0.2014
   89MOL   O10416120   1.075   5.934   7.622  0.5928 -0.0765  0.7220
   89MOL   O10516121   1.020   5.854   7.407 -0.4667 -0.2678 -0.2779
   89MOL   H10616122   1.126   6.094   7.349  1.4546 -0.8496  1.0213
   89MOL   H10716123   0.854   6.162   7.468 -2.8808 -0.4239 -2.0584
   89MOL   H10816124   0.935   6.242   7.335 -0.1179 -0.4370 -1.3519
   89MOL   H10916125   0.870   6.088   7.312  1.3433 -0.2416 -0.4314
   89MOL   C11016126   0.992   5.719   7.441 -1.0497 -0.9953  0.4237
   89MOL   C11116127   1.025   5.639   7.320 -0.1403 -0.5070 -0.6094
   89MOL   C11216128   0.842   5.695   7.479  0.2348 -0.3582  0.3611
   89MOL   O11316129   0.801   5.617   7.561 -0.1960 -0.2667  0.8376
   89MOL   O11416130   0.753   5.782   7.391  0.3749 -0.0648 -0.0778
   89MOL   H11516131   1.058   5.689   7.522  0.2520  0.6552 -0.0136
   89MOL   H11616132   0.969   5.679   7.235 -0.1916  0.4585 -0.1233
   89MOL   H11716133   1.131   5.637   7.295 -0.2405 -1.8097 -0.9913
   89MOL   H11816134   0.998   5.533   7.321 -0.6752 -0.4054 -2.5353
   89MOL   C11916135   0.612   5.780   7.391  0.1642  0.1289  0.1512
   89MOL   C12016136   0.575   5.774   7.239  0.5910  0.1209  0.4971
   89MOL   C12116137   0.557   5.884   7.487 -1.1676 -0.4899 -0.1722
   89MOL   O12216138   0.627   5.931   7.568 -1.0496  0.3567  0.8963
   89MOL   O12316139   0.431   5.894   7.472 -0.1400 -0.0737 -0.7071
   89MOL   H12416140   0.588   5.677   7.416 -1.3023 -0.1027 -2.0107
   89MOL   H12516141   0.573   5.874   7.197 -0.1192 -0.7203 -1.5248
   89MOL   H12616142   0.635   5.707   7.177  1.2989 -0.1382  1.4495
   89MOL   H12716143   0.471   5.742   7.225  0.3233 -0.8373  4.1040
   89MOL   C12816144   0.348   5.980   7.553 -0.5014  0.0055  0.2667
   89MOL   C12916145   0.204   5.966   7.498 -0.9019 -0.3095  0.3138
   89MOL   C13016146   0.384   6.129   7.538 -0.3231  0.2472  0.4570
   89MOL   O13116147   0.419   6.202   7.630 -0.0650  0.7624  0.3310
   89MOL   O13216148   0.367   6.174   7.411 -0.2195  0.6442 -0.6207
   89MOL   H13316149   0.366   5.944   7.654  0.8884 -0.3664 -0.1095
   89MOL   H13416150   0.134   5.907   7.558 -1.3743  0.2580  0.3228
   89MOL   H13516151   0.147   6.056   7.474  0.7822  0.9985  1.1245
   89MOL   H13616152   0.213   5.906   7.407 -0.7048  1.0615 -0.5872
   89MOL   C13716153   0.389   6.304   7.362  0.8093  0.1243  0.1273
   89MOL   C13816154   0.541   6.326   7.337 -0.0324  0.0137 -0.6919
   89MOL   C13916155   0.336   6.414   7.450  0.0752 -0.4989 -0.2593
   89MOL   O14016156   0.405   6.509   7.489 -0.2656 -0.5489 -0.3773
   89MOL   O14116157   0.211   6.391   7.477  0.1926 -0.1363 -0.5154
   89MOL   H14216158   0.327   6.322   7.275  0.0231  2.8215  1.2025
   89MOL   H14316159   0.550   6.416   7.275 -1.2840  0.5511 -0.1223
   89MOL   H14416160   0.595   6.328   7.431 -0.2344  0.6517 -0.5882
   89MOL   H14516161   0.573   6.245   7.272 -0.0407  0.8915 -1.8120
   89MOL   C14616162   0.139   6.459   7.582  0.2224 -0.2262  0.3713
   89MOL   C14716163   0.151   6.397   7.721  0.1456  0.3678  0.3756
   89MOL   C14816164   8.143   6.479   7.537 -0.1180  0.5803  0.2716
   89MOL   O14916165   8.052   6.409   7.569  0.1540  0.5449  0.1361
   89MOL   O15016166   8.137   6.579   7.455 -0.5434  0.0576 -0.1835
   89MOL   H15116167   0.183   6.558   7.591  1.7351 -0.7063 -1.1553
   89MOL   H15216168   0.067   6.420   7.786  1.0020  2.4085  0.8053
   89MOL   H15316169   0.157   6.288   7.721  2.1567  0.4544 -1.3034
   89MOL   H15416170   0.246   6.423   7.767  0.9089  0.4340 -1.2168
   89MOL   C15516171   8.018   6.635   7.407 -0.1623  0.4443 -0.1749
   89MOL   C15616172   8.045   6.707   7.275  0.5950  0.3997  0.6894
   89MOL   C15716173   7.951   6.719   7.521 -0.7046 -0.0510 -0.3496
   89MOL   O15816174   8.003   6.744   7.635 -0.2337  0.3591 -0.2670
   89MOL   O15916175   7.838   6.770   7.487 -0.0175 -0.5251  0.0970
   89MOL   H16016176   7.956   6.547   7.388 -0.3787  0.5558 -0.0008
   89MOL   H16116177   7.974   6.788   7.262  1.0830  1.0583  2.0328
   89MOL   H16216178   8.146   6.747   7.286  1.1749 -0.4666 -1.2812
   89MOL   H16316179   8.053   6.633   7.195 -2.6743 -0.3851  1.0202
   89MOL   C16416180   7.770   6.877   7.550 -0.6390  0.2618 -0.3509
   89MOL   C16516181   7.617   6.871   7.510 -0.1931  0.2019  0.0575
   89MOL   C16616182   7.833   7.020   7.518 -0.3623 -0.2264  0.0628
   89MOL   O16716183   7.918   7.032   7.432  0.1710  0.0580 -0.1413
   89MOL   O16816184   7.783   7.116   7.599  0.3502 -0.5771  0.6820
   89MOL   H16916185   7.771   6.854   7.656  0.9240  1.2497 -0.1413
   89MOL   H17016186   7.591   6.772   7.547 -0.5380 -0.0759 -0.9076
   89MOL   H17116187   7.552   6.947   7.553 -0.9071 -0.7257  0.6301
   89MOL   H17216188   7.613   6.869   7.401  6.0810  1.4680 -0.3605
   89MOL   C17316189   7.829   7.257   7.585  0.3057  0.3030  0.0921
   89MOL   C17416190   7.775   7.338   7.704  0.2793 -1.1332 -0.3249
   89MOL   C17516191   7.783   7.324   7.453 -0.2278  0.3515  0.2206
   89MOL   O17616192   7.692   7.276   7.387  0.2326 -0.3009  0.1604
   89MOL   O17716193   7.837   7.442   7.439 -0.1198 -0.3045 -0.1226
   89MOL   H17816194   7.938   7.270   7.582  0.7058 -2.7412 -0.5145
   89MOL   H17916195   7.835   7.425   7.732  0.4191 -1.7594  1.3596
   89MOL   H18016196   7.687   7.395   7.675  1.9717  0.9187 -1.6071
   89MOL   H18116197   7.754   7.279   7.792  3.0911  0.0337  1.1885
   89MOL   H18216198   7.911   7.446   7.497  0.5772 -0.1659 -1.0040
   90MOL     C116199   7.659   5.451   3.416 -1.2297 -0.2386  0.4877
   90MOL     C216200   7.721   5.548   3.311  0.1248  0.1940 -0.2836
   90MOL     C316201   7.602   5.325   3.348 -0.3819  0.4345  0.0929
   90MOL     O416202   7.501   5.267   3.389  0.0690  0.0508  0.2118
   90MOL     O516203   7.683   5.288   3.256 -0.6584 -0.1572  0.4691
   90MOL     H616204   7.738   5.433   3.490 -1.0621  1.3259  0.7136
   90MOL     H716205   7.761   5.639   3.357 -1.1754  0.1376  0.9631
   90MOL     H816206   7.814   5.508   3.271  0.6651  0.9718  0.1583
   90MOL     H916207   7.653   5.565   3.228 -1.2414 -0.9889  0.5776
   90MOL    H1016208   7.581   5.503   3.472 -0.5862 -1.8021  2.9445
   90MOL    C1116209   7.660   5.155   3.200 -0.3749  0.3284 -0.3589
   90MOL    C1216210   7.731   5.047   3.274  0.6988  0.3081 -0.0280
   90MOL    C1316211   7.720   5.154   3.052  0.2860 -0.2516  0.4141
   90MOL    O1416212   7.648   5.145   2.954  0.2265 -0.4641  0.0935
   90MOL    O1516213   7.859   5.152   3.042  0.3859 -0.0675  0.4312
   90MOL    H1616214   7.555   5.127   3.190 -0.5729  1.7638 -2.6841
   90MOL    H1716215   7.836   5.073   3.290  1.0074 -2.0777  1.9942
   90MOL    H1816216   7.675   5.045   3.368  0.3734  1.1178 -0.1994
   90MOL    H1916217   7.716   4.949   3.230 -2.1926  0.5584  0.2759
   90MOL    C2016218   7.931   5.154   2.916 -0.5851 -0.8674  0.6245
   90MOL    C2116219   8.075   5.145   2.957  0.0448  0.5324  0.7054
   90MOL    C2216220   7.901   5.290   2.843  0.4418 -0.5135  0.4565
   90MOL    O2316221   7.851   5.296   2.731 -0.1387  0.7838  0.1881
   90MOL    O2416222   7.933   5.400   2.917 -0.3414 -0.1118 -0.5601
   90MOL    H2516223   7.911   5.065   2.858  1.7675 -0.7645 -0.3911
   90MOL    H2616224   8.140   5.156   2.870 -1.2412  2.4411 -0.0361
   90MOL    H2716225   8.105   5.207   3.041 -1.5720  1.4358  0.6335
   90MOL    H2816226   8.080   5.039   2.980 -3.6868  0.5268  1.8284
   90MOL    C2916227   7.902   5.533   2.874  0.0320  0.1533 -0.9300
   90MOL    C3016228   7.937   5.627   2.993  0.2532 -0.3902 -0.0257
   90MOL    C3116229   7.753   5.560   2.835 -0.4059  0.2419 -0.0197
   90MOL    O3216230   7.724   5.603   2.716 -0.0766 -0.4446 -0.1967
   90MOL    O3316231   7.663   5.531   2.929 -0.2064  0.1456 -0.6561
   90MOL    H3416232   7.969   5.545   2.789  0.2995 -1.4289 -0.9631
   90MOL    H3516233   7.861   5.623   3.071 -0.2564  0.3120 -0.4947
   90MOL    H3616234   8.033   5.606   3.042 -0.7014 -3.7901  0.5422
   90MOL    H3716235   7.936   5.732   2.964 -1.5980 -0.8134 -1.5300
   90MOL    C3816236   7.525   5.563   2.911 -0.1961  0.0530 -0.1797
   90MOL    C3916237   7.505   5.716   2.934  0.2286 -0.1063 -0.2800
   90MOL    C4016238   7.442   5.483   3.009 -0.6837  0.3870  0.4037
   90MOL    O4116239   7.484   5.372   3.037 -0.5711 -0.5289 -0.1476
   90MOL    O4216240   7.318   5.533   3.045 -0.9128 -0.4668  0.1241
   90MOL    H4316241   7.498   5.538   2.808 -0.1422  0.6825 -0.3512
   90MOL    H4416242   7.573   5.771   2.869  0.3261  0.8015  0.5798
   90MOL    H4516243   7.412   5.751   2.890  1.5457  3.1113 -0.6510
   90MOL    H4616244   7.518   5.747   3.038  1.0022 -1.3401  0.0107
   90MOL    C4716245   7.257   5.472   3.159 -0.1604 -0.8399  0.5766
   90MOL    C4816246   7.124   5.407   3.125 -0.3413 -0.1145  0.0970
   90MOL    C4916247   7.241   5.581   3.269  0.1355  0.2167  0.3067
   90MOL    O5016248   7.303   5.573   3.375 -0.0058 -0.3141 -0.4066
   90MOL    O5116249   7.141   5.671   3.242  0.4463 -0.1722 -0.5475
   90MOL    H5216250   7.324   5.400   3.208 -2.1428 -2.7238  0.6030
   90MOL    H5316251   7.149   5.318   3.067  3.7841  1.1996 -0.2964
   90MOL    H5416252   7.070   5.375   3.214 -0.7485  0.5483  0.0905
   90MOL    H5516253   7.059   5.471   3.066 -1.1168  1.2119  2.3410
   90MOL    C5616254   7.096   5.761   3.340 -0.3779 -0.1062  0.2175
   90MOL    C5716255   6.963   5.824   3.288  0.5403  0.3535 -1.1265
   90MOL    C5816256   7.198   5.866   3.385 -0.7619 -1.2020 -0.4995
   90MOL    O5916257   7.227   5.876   3.502 -0.2474  0.2971  0.4674
   90MOL    O6016258   7.247   5.936   3.276  0.2265 -0.2903 -0.4055
   90MOL    H6116259   7.067   5.700   3.425 -3.4118  1.2390  0.1934
   90MOL    H6216260   6.916   5.877   3.371 -1.7051 -3.1440 -0.0412
   90MOL    H6316261   6.973   5.902   3.213  1.6208  0.2003 -1.1374
   90MOL    H6416262   6.900   5.745   3.246  1.8119 -0.8643 -0.7617
   90MOL    C6516263   7.355   6.034   3.295 -0.3997  1.2004 -0.6523
   90MOL    C6616264   7.369   6.113   3.161 -0.0559 -0.2002 -0.0206
   90MOL    C6716265   7.487   5.972   3.338 -0.2540  0.3820  0.2365
   90MOL    O6816266   7.555   5.888   3.270  0.2327 -0.0720 -0.5170
   90MOL    O6916267   7.525   6.021   3.456 -0.1868  0.3037 -0.5425
   90MOL    H7016268   7.328   6.101   3.376 -0.3226  0.5424 -0.0759
   90MOL    H7116269   7.467   6.160   3.146  0.0307 -1.0745 -2.4608
   90MOL    H7216270   7.359   6.048   3.073  0.2650  0.0149 -0.2163
   90MOL    H7316271   7.291   6.188   3.160  0.0172 -0.1257 -0.9464
   90MOL    C7416272   7.663   6.018   3.491  0.4400 -0.2267 -0.0566
   90MOL    C7516273   7.701   5.896   3.573  0.6259 -0.0052 -0.8999
   90MOL    C7616274   7.679   6.143   3.579  0.4103  0.9648  0.4662
   90MOL    O7716275   7.710   6.140   3.698  0.2435  0.5877  0.0632
   90MOL    O7816276   7.651   6.254   3.507 -0.1099 -0.2429  0.9226
   90MOL    H7916277   7.726   6.034   3.403 -0.8825 -0.0800 -1.0033
   90MOL    H8016278   7.807   5.892   3.598  0.6726  1.8732 -0.7184
   90MOL    H8116279   7.652   5.901   3.670  1.7819  3.3509 -0.4416
   90MOL    H8216280   7.674   5.811   3.510  0.2951 -1.6895  1.4498
   90MOL    C8316281   7.688   6.380   3.559  0.2292 -0.0041  0.0628
   90MOL    C8416282   7.610   6.485   3.474  0.6202  0.7668 -0.2670
   90MOL    C8516283   7.838   6.407   3.563  0.3245  0.1146 -0.2062
   90MOL    O8616284   7.918   6.323   3.532  0.5236  0.8741 -0.1298
   90MOL    O8716285   7.863   6.527   3.600  0.2749  0.1170 -0.0632
   90MOL    H8816286   7.650   6.384   3.661 -1.9181  2.3916 -0.7580
   90MOL    H8916287   7.519   6.443   3.432  0.3958  0.2615  0.7146
   90MOL    H9016288   7.565   6.571   3.525  0.7700  1.5590 -1.4583
   90MOL    H9116289   7.663   6.523   3.387 -1.9037  2.2322 -1.2320
   90MOL    C9216290   7.991   6.596   3.571 -0.1374  1.1731  0.1501
   90MOL    C9316291   8.071   6.583   3.708  0.4610 -0.5199 -0.4543
   90MOL    C9416292   7.959   6.740   3.527 -0.7776  0.5143 -0.1785
   90MOL    O9516293   8.010   6.833   3.591  0.6292 -0.0692 -0.0717
   90MOL    O9616294   7.882   6.750   3.415 -0.0634  0.0725  0.3325
   90MOL    H9716295   8.050   6.540   3.498  0.3865  0.0589  1.4024
   90MOL    H9816296   8.024   6.649   3.781  1.5875 -0.7801  0.5258
   90MOL    H9916297   8.072   6.479   3.740  2.8486 -0.5313 -0.4244
   90MOL   H10016298   0.028   6.614   3.698  0.5368 -0.8908 -0.8494
   90MOL   C10116299   7.842   6.877   3.363  0.2507 -0.8026  0.1223
   90MOL   C10216300   7.701   6.864   3.313  0.2727  0.9778 -0.0052
   90MOL   C10316301   7.944   6.919   3.254  0.4555 -0.0290  0.2315
   90MOL   O10416302   7.924   7.018   3.181 -0.0927  0.2848  0.3357
   90MOL   O10516303   8.061   6.847   3.255  0.1530  0.0603  0.2839
   90MOL   H10616304   7.843   6.955   3.438  0.2365 -0.9684  0.2963
   90MOL   H10716305   7.691   6.789   3.235  5.2126 -1.5930  1.5849
   90MOL   H10816306   7.636   6.821   3.390  1.1998 -0.5881 -0.0798
   90MOL   H10916307   7.652   6.957   3.283  0.1141 -0.1472 -3.3440
   90MOL   C11016308   0.020   6.887   3.174  0.3159 -0.7839 -0.5700
   90MOL   C11116309   0.089   6.756   3.127  0.5702  0.2984 -0.1340
   90MOL   C11216310   0.114   6.980   3.256  0.2880  0.9670  0.0931
   90MOL   O11316311   0.090   7.017   3.370  0.0786  0.2079  0.6093
   90MOL   O11416312   0.227   7.005   3.180  0.7769 -0.1979  0.2872
   90MOL   H11516313   8.126   6.930   3.083 -0.2430  2.5246  1.1949
   90MOL   H11616314   0.159   6.780   3.047 -0.2821 -1.6387 -1.4937
   90MOL   H11716315   0.137   6.702   3.208 -0.9834  0.4704  0.9220
   90MOL   H11816316   0.008   6.696   3.086  0.4776 -0.6238  1.3742
   90MOL   C11916317   0.340   7.077   3.211  1.3085 -0.1619 -0.1972
   90MOL   C12016318   0.436   6.964   3.256 -0.6226 -0.2724 -0.7375
   90MOL   C12116319   0.328   7.195   3.307  0.3492  0.1800 -1.2249
   90MOL   O12216320   0.392   7.196   3.411 -0.8017 -0.7512  0.0627
   90MOL   O12316321   0.241   7.282   3.259  0.0833 -0.7569 -0.3452
   90MOL   H12416322   0.377   7.107   3.113  0.7148  0.9107 -0.1110
   90MOL   H12516323   0.531   7.006   3.287 -2.4197  2.2468  1.5106
   90MOL   H12616324   0.388   6.895   3.325 -0.7490 -0.0142 -0.5696
   90MOL   H12716325   0.449   6.894   3.173  3.0257 -0.4676 -0.1123
   90MOL   C12816326   0.225   7.411   3.323 -0.0273  0.0182  0.2773
   90MOL   C12916327   0.082   7.469   3.328  0.4347 -0.1381 -0.4232
   90MOL   C13016328   0.330   7.504   3.268  0.6230  0.0023  0.4296
   90MOL   O13116329   0.397   7.577   3.345 -0.4905 -0.1696  0.2388
   90MOL   O13216330   0.328   7.521   3.130  0.2415  0.2959  0.4611
   90MOL   H13316331   0.254   7.401   3.428  0.8007 -1.2778 -0.0579
   90MOL   H13416332   0.076   7.573   3.359 -2.1504 -0.4130  0.1344
   90MOL   H13516333   0.037   7.479   3.230  0.2228  0.0559 -0.3063
   90MOL   H13616334   0.009   7.421   3.394  0.4061  2.2502  1.3463
   90MOL   C13716335   0.412   7.620   3.066  0.0882  0.0493 -0.1809
   90MOL   C13816336   0.338   7.650   2.930 -0.0533  0.3168 -0.2497
   90MOL   C13916337   0.552   7.567   3.042  0.0963  0.2227 -0.1603
   90MOL   O14016338   0.655   7.617   3.077 -0.3212 -0.4152 -0.0449
   90MOL   O14116339   0.541   7.446   2.967 -0.4895 -0.8727  0.7688
   90MOL   H14216340   0.408   7.710   3.127  0.5118  0.0482 -0.1517
   90MOL   H14316341   0.388   7.711   2.854 -1.6255 -1.5509 -2.8807
   90MOL   H14416342   0.316   7.555   2.881 -0.4396 -0.8293  2.1012
   90MOL   H14516343   0.245   7.705   2.944 -0.0290  0.8945 -2.1199
   90MOL   C14616344   0.646   7.355   2.961 -0.2480  0.1063 -0.4297
   90MOL   C14716345   0.618   7.238   2.868  0.0755 -0.2100 -0.0125
   90MOL   C14816346   0.687   7.300   3.096  0.7203 -0.8398 -0.6547
   90MOL   O14916347   0.603   7.299   3.188 -0.0967  0.3292 -0.6871
   90MOL   O15016348   0.809   7.248   3.094  0.3338 -0.0590  0.2939
   90MOL   H15116349   0.736   7.406   2.925 -0.5008  1.8180  1.2885
   90MOL   H15216350   0.535   7.180   2.910 -1.3815  1.1495 -0.9593
   90MOL   H15316351   0.601   7.272   2.766 -0.9272  0.4020  0.3506
   90MOL   H15416352   0.707   7.178   2.852 -0.5507 -1.0765 -0.2928
   90MOL   C15516353   0.840   7.161   3.199 -1.2312  0.0311 -0.1602
   90MOL   C15616354   0.992   7.155   3.218 -0.4284 -0.1565  0.0076
   90MOL   C15716355   0.786   7.019   3.177 -0.0302 -0.5187 -0.0323
   90MOL   O15816356   0.723   6.986   3.077  1.1284  0.1194  0.1416
   90MOL   O15916357   0.813   6.947   3.288  0.0905 -0.1880  0.1856
   90MOL   H16016358   0.810   7.188   3.300  1.3317  1.0569  0.3324
   90MOL   H16116359   1.043   7.246   3.250  0.8301 -0.0025 -2.2773
   90MOL   H16216360   1.023   7.077   3.287  0.6821 -0.5886 -0.9552
   90MOL   H16316361   1.034   7.135   3.119  0.5826 -0.6583  0.5335
   90MOL   C16416362   0.781   6.809   3.298 -0.9971 -0.2227  0.3292
   90MOL   C16516363   0.785   6.754   3.445 -0.0078  0.1933  0.2611
   90MOL   C16616364   0.876   6.732   3.204  0.0850  0.1837 -0.6825
   90MOL   O16716365   0.993   6.770   3.180 -0.1416  0.6124 -0.2472
   90MOL   O16816366   0.816   6.627   3.150  0.1992  0.9212 -0.1396
   90MOL   H16916367   0.680   6.786   3.263 -0.8788 -0.1106 -0.0898
   90MOL   H17016368   0.720   6.813   3.509 -0.7829 -0.8679  0.4629
   90MOL   H17116369   0.755   6.650   3.446 -0.1543  0.1770 -2.0984
   90MOL   H17216370   0.886   6.770   3.482  0.5851  1.0636 -1.6603
   90MOL   C17316371   0.869   6.533   3.057 -0.3247  0.1591  0.1666
   90MOL   C17416372   0.760   6.427   3.037 -0.1993  0.4727 -0.1250
   90MOL   C17516373   0.996   6.464   3.108 -0.8524  0.6299  0.3631
   90MOL   O17616374   1.003   6.346   3.132  0.3540 -0.4680 -0.7224
   90MOL   O17716375   1.095   6.548   3.128 -0.4257 -0.3612 -0.4729
   90MOL   H17816376   0.887   6.591   2.966 -1.0217 -0.9958 -0.7181
   90MOL   H17916377   0.676   6.464   2.978 -1.5781 -0.9713  0.8661
   90MOL   H18016378   0.810   6.343   2.988  0.3495  0.4088  0.5428
   90MOL   H18116379   0.715   6.397   3.132 -0.6404  1.4175 -0.0272
   90MOL   H18216380   1.069   6.638   3.119  0.4539  0.0437  0.8031
   91MOL     C116381   1.205   1.073   1.840 -0.9184  0.2598 -0.6664
   91MOL     C216382   1.067   1.128   1.866  0.0653 -0.1255 -0.6080
   91MOL     C316383   1.220   0.935   1.899 -0.7549 -0.5997 -0.0188
   91MOL     O416384   1.270   0.924   2.012  0.1829 -0.4758 -0.2169
   91MOL     O516385   1.171   0.832   1.817  0.2017  0.4981 -0.1609
   91MOL     H616386   1.236   1.074   1.735 -2.1646  4.4940 -1.0628
   91MOL     H716387   1.036   1.106   1.968 -2.7333  1.1068 -1.1500
   91MOL     H816388   1.068   1.237   1.856  0.8347  0.0602  1.2973
   91MOL     H916389   0.989   1.074   1.812  0.7581 -1.8559  0.0853
   91MOL    H1016390   1.273   1.138   1.895 -0.3244 -1.5995  0.8310
   91MOL    C1116391   1.174   0.695   1.870  0.1741  0.3192 -0.5638
   91MOL    C1216392   1.047   0.667   1.953 -0.0239 -0.2847  0.1105
   91MOL    C1316393   1.302   0.643   1.917 -0.5364  0.2689 -0.2083
   91MOL    O1416394   1.307   0.557   2.010  0.1491  0.8249  0.4512
   91MOL    O1516395   1.419   0.696   1.859  0.0214  0.4066  0.1453
   91MOL    H1616396   1.165   0.628   1.785  1.0872 -0.2970 -0.1875
   91MOL    H1716397   1.068   0.707   2.052  0.4483 -0.1834 -0.0298
   91MOL    H1816398   0.959   0.712   1.907  0.6687 -3.1383 -4.3473
   91MOL    H1916399   1.029   0.561   1.969 -2.2196 -0.1107 -0.9998
   91MOL    C2016400   1.547   0.671   1.918 -0.4882  0.0461 -0.1251
   91MOL    C2116401   1.588   0.798   1.984  0.0263  0.1919  0.2729
   91MOL    C2216402   1.639   0.626   1.798 -0.2369  0.7900  0.1382
   91MOL    O2316403   1.714   0.702   1.746  0.1476  0.1555  0.2413
   91MOL    O2416404   1.601   0.511   1.740 -0.3394 -0.4745  0.0613
   91MOL    H2516405   1.552   0.597   1.998 -0.9491 -0.8537 -0.9119
   91MOL    H2616406   1.609   0.884   1.920 -0.8385 -0.8118 -1.4001
   91MOL    H2716407   1.514   0.834   2.055 -1.0556 -0.6912 -0.3919
   91MOL    H2816408   1.675   0.783   2.048  0.7505  1.1052 -0.4943
   91MOL    C2916409   1.684   0.446   1.638  0.2676  0.0981 -0.4863
   91MOL    C3016410   1.611   0.336   1.565 -0.1343 -0.1570  0.0598
   91MOL    C3116411   1.820   0.392   1.692 -0.3754  0.2858  0.0450
   91MOL    O3216412   1.906   0.355   1.613 -0.6491  0.1228 -0.4339
   91MOL    O3316413   1.839   0.407   1.822 -0.2697  0.0352 -0.1997
   91MOL    H3416414   1.709   0.511   1.555 -1.7361 -1.4059 -2.3134
   91MOL    H3516415   1.548   0.258   1.608  1.1024 -1.1524  0.0886
   91MOL    H3616416   1.538   0.388   1.502 -2.3694 -1.4134  1.5326
   91MOL    H3716417   1.681   0.288   1.498  0.2898  0.7705 -0.1621
   91MOL    C3816418   1.962   0.386   1.882 -0.1697 -0.1734 -0.4419
   91MOL    C3916419   1.950   0.337   2.030 -0.0085 -0.0952 -0.1473
   91MOL    C4016420   2.039   0.519   1.870 -0.2044 -0.3187  0.9210
   91MOL    O4116421   2.143   0.530   1.804 -0.4500 -0.1358  0.0112
   91MOL    O4216422   1.977   0.625   1.932 -0.4227 -0.2484  0.0432
   91MOL    H4316423   2.012   0.303   1.833 -1.9614  0.2199 -3.0303
   91MOL    H4416424   1.946   0.228   2.039 -1.0960 -0.0811 -0.3957
   91MOL    H4516425   2.025   0.371   2.101  0.5107  0.1516 -0.8060
   91MOL    H4616426   1.855   0.379   2.063  0.4842  0.1656  0.9588
   91MOL    C4716427   2.037   0.754   1.937  0.6459 -1.1771 -0.2907
   91MOL    C4816428   2.017   0.806   2.079  0.5063  0.5170 -0.5648
   91MOL    C4916429   1.991   0.843   1.823  0.4109  0.6669  0.0386
   91MOL    O5016430   1.908   0.936   1.832 -0.6091  0.2214  0.2964
   91MOL    O5116431   2.040   0.800   1.706 -0.1728  0.1832 -0.4697
   91MOL    H5216432   2.145   0.745   1.922  0.8497  1.1622 -0.5262
   91MOL    H5316433   2.092   0.755   2.138  0.7778  1.9303  0.3318
   91MOL    H5416434   2.036   0.913   2.093  0.2287  0.2790  1.7634
   91MOL    H5516435   1.916   0.786   2.117  1.0346  0.4994  0.8426
   91MOL    C5616436   1.986   0.855   1.589  0.0941  0.0255  0.2833
   91MOL    C5716437   1.962   0.741   1.492  0.2523 -0.3665  0.4258
   91MOL    C5816438   2.090   0.954   1.527 -0.1392 -0.5925 -0.3450
   91MOL    O5916439   2.167   1.020   1.599  0.2646  0.1502 -0.1496
   91MOL    O6016440   2.089   0.961   1.392 -0.7167  0.6550  0.2414
   91MOL    H6116441   1.894   0.913   1.597 -0.2715 -0.3830 -0.8417
   91MOL    H6216442   1.885   0.763   1.418  1.1684 -0.9458 -0.7036
   91MOL    H6316443   2.049   0.713   1.432 -1.4826  0.0230 -2.3659
   91MOL    H6416444   1.949   0.647   1.547 -1.2807  0.2352  1.1488
   91MOL    C6516445   2.216   1.000   1.330 -0.0202 -0.1831 -0.0101
   91MOL    C6616446   2.185   1.125   1.240  0.0785  0.1890 -0.1596
   91MOL    C6716447   2.274   0.896   1.240  0.1297  0.2270  0.3500
   91MOL    O6816448   2.390   0.861   1.252  0.0350 -0.4551 -0.1625
   91MOL    O6916449   2.189   0.844   1.157 -0.4377 -0.0048  0.2828
   91MOL    H7016450   2.298   1.027   1.396 -1.2215  0.1077  1.4064
   91MOL    H7116451   2.147   1.203   1.306  2.1288  2.6642 -1.7883
   91MOL    H7216452   2.265   1.177   1.187  0.1833  1.3534  1.1150
   91MOL    H7316453   2.096   1.100   1.183  0.6156 -2.0522 -0.0443
   91MOL    C7416454   2.216   0.732   1.073 -0.2092  0.4515 -0.0636
   91MOL    C7516455   2.155   0.764   0.935 -0.1178  0.8824  0.3377
   91MOL    C7616456   2.167   0.612   1.148  0.1476  0.0013  0.3308
   91MOL    O7716457   2.073   0.544   1.107  0.0877 -0.5306 -0.4997
   91MOL    O7816458   2.237   0.596   1.262  0.2554  0.0920  0.6265
   91MOL    H7916459   2.323   0.716   1.059  0.0929  0.3442  2.1657
   91MOL    H8016460   2.215   0.736   0.849  2.4675  0.1655  2.3037
   91MOL    H8116461   2.051   0.732   0.926  0.4514 -2.0810  3.1965
   91MOL    H8216462   2.155   0.873   0.925 -0.4753  0.8412 -0.1287
   91MOL    C8316463   2.203   0.489   1.352  0.9205  0.4894  0.0136
   91MOL    C8416464   2.276   0.516   1.481 -0.8587 -0.1476  0.2492
   91MOL    C8516465   2.249   0.342   1.306 -0.0347  0.0193 -0.3233
   91MOL    O8616466   2.363   0.307   1.306  0.1039 -0.2092 -0.1902
   91MOL    O8716467   2.148   0.261   1.260 -0.5445  0.7837 -0.0868
   91MOL    H8816468   2.094   0.492   1.355  0.9328 -0.0442  1.8563
   91MOL    H8916469   2.255   0.613   1.526  1.5262  0.6782 -0.3390
   91MOL    H9016470   2.259   0.430   1.545 -0.9861  0.6738  1.3334
   91MOL    H9116471   2.381   0.526   1.453 -0.8191 -0.0170  0.4446
   91MOL    C9216472   2.175   0.130   1.213  0.6317  0.4288 -0.5503
   91MOL    C9316473   2.052   0.064   1.150 -0.4696  0.3278  0.2322
   91MOL    C9416474   2.223   0.031   1.321  0.0865  0.3992  0.3229
   91MOL    O9516475   2.176   0.021   1.432  0.0731  0.7976 -0.4478
   91MOL    O9616476   2.315   8.101   1.265  0.3292  0.8121 -0.9396
   91MOL    H9716477   2.260   0.135   1.145  1.0006  0.1379 -0.1146
   91MOL    H9816478   2.068   8.113   1.106  1.4373  0.6822  0.0722
   91MOL    H9916479   1.971   0.066   1.222  1.5058  2.9473  2.4716
   91MOL   H10016480   2.024   0.144   1.080 -0.0025  1.4929  1.3540
   91MOL   C10116481   2.346   7.979   1.325  0.3372 -0.1595  0.3115
   91MOL   C10216482   2.436   7.993   1.441 -0.0954  0.1976 -0.3005
   91MOL   C10316483   2.389   7.883   1.217 -0.6033 -0.1447  0.4534
   91MOL   O10416484   2.506   7.840   1.217  0.1011  0.4816 -0.2841
   91MOL   O10516485   2.293   7.840   1.138 -0.2280  0.1953 -0.4131
   91MOL   H10616486   2.258   7.928   1.366  0.1018  1.2395  1.5891
   91MOL   H10716487   2.531   8.043   1.425 -0.4304  0.8444 -0.2931
   91MOL   H10816488   2.391   8.045   1.526  0.6507  1.9988 -0.9955
   91MOL   H10916489   2.447   7.891   1.479  0.6082  0.4460  0.1762
   91MOL   C11016490   2.302   7.722   1.056 -0.5130 -0.1362 -0.2685
   91MOL   C11116491   2.172   7.696   0.986 -0.1853  0.1887 -0.1770
   91MOL   C11216492   2.353   7.598   1.128 -0.2298 -0.1073 -0.2090
   91MOL   O11316493   2.469   7.558   1.101  0.1177 -0.2989 -0.1377
   91MOL   O11416494   2.266   7.541   1.218 -1.0024 -0.0253 -0.3156
   91MOL   H11516495   2.378   7.731   0.979  2.9009 -2.8235  2.6587
   91MOL   H11616496   2.195   7.639   0.896 -0.7036  0.3815 -0.4333
   91MOL   H11716497   2.098   7.649   1.050  1.0878 -0.5782  0.7454
   91MOL   H11816498   2.123   7.784   0.945  0.6564  1.0224  0.5828
   91MOL   C11916499   2.326   7.451   1.315  0.4354 -0.5019  0.4233
   91MOL   C12016500   2.209   7.378   1.359  0.6359  0.0084 -0.4644
   91MOL   C12116501   2.408   7.515   1.427  0.3529 -0.7612  0.2320
   91MOL   O12216502   2.406   7.636   1.452  0.2305  0.0610  0.0113
   91MOL   O12316503   2.480   7.427   1.491 -0.1333 -0.3325  0.4686
   91MOL   H12416504   2.396   7.389   1.259  2.3383  0.4990  1.6532
   91MOL   H12516505   2.258   7.303   1.423 -0.8214 -0.4680  0.1090
   91MOL   H12616506   2.148   7.440   1.424 -0.1474 -1.2893  0.0611
   91MOL   H12716507   2.162   7.322   1.279  0.0526  2.1952 -1.6906
   91MOL   C12816508   2.561   7.461   1.603 -0.4957  0.5585  0.1522
   91MOL   C12916509   2.691   7.376   1.584  0.0950 -0.2888 -0.3547
   91MOL   C13016510   2.505   7.410   1.733  0.4631  0.2006  0.5127
   91MOL   O13116511   2.438   7.309   1.744  0.1028 -0.3033 -0.4710
   91MOL   O13216512   2.548   7.484   1.829  0.0896 -0.4248  0.2288
   91MOL   H13316513   2.590   7.566   1.611 -0.8161  0.7043 -0.6064
   91MOL   H13416514   2.760   7.403   1.664  0.8331 -0.8332 -0.8023
   91MOL   H13516515   2.681   7.268   1.567 -1.6394 -0.3805  1.1474
   91MOL   H13616516   2.733   7.420   1.494 -0.0332 -1.0863 -0.8162
   91MOL   C13716517   2.510   7.459   1.961  0.0189 -0.9011 -0.8873
   91MOL   C13816518   2.363   7.481   1.999  0.1682 -0.6985 -0.4152
   91MOL   C13916519   2.599   7.547   2.055 -0.2537  0.0315  0.1068
   91MOL   O14016520   2.657   7.504   2.154 -0.2611 -0.2269  0.0301
   91MOL   O14116521   2.610   7.677   2.005 -0.0622  0.0758  0.7974
   91MOL   H14216522   2.548   7.359   1.986  0.3461 -0.9687 -1.6632
   91MOL   H14316523   2.292   7.459   1.920 -0.4430 -2.6034  0.6410
   91MOL   H14416524   2.323   7.420   2.080  1.8872 -2.3297 -0.7666
   91MOL   H14516525   2.347   7.586   2.023  1.1306 -0.2285 -1.7688
   91MOL   C14616526   2.678   7.783   2.070  0.1042 -0.5748  0.1025
   91MOL   C14716527   2.643   7.921   1.992  0.2731  0.4370  0.0093
   91MOL   C14816528   2.835   7.762   2.058  0.0734  0.1112  0.0774
   91MOL   O14916529   2.886   7.657   2.026 -0.4232  0.0940  0.0572
   91MOL   O15016530   2.902   7.871   2.094  0.3628 -0.1475  0.1174
   91MOL   H15116531   2.656   7.787   2.176 -0.1469  2.5883 -0.0256
   91MOL   H15216532   2.534   7.925   1.994  0.0741 -1.9836 -3.0978
   91MOL   H15316533   2.684   8.005   2.048 -0.2427 -0.7168  2.1935
   91MOL   H15416534   2.676   7.927   1.889  0.8987 -0.5446  0.1507
   91MOL   C15516535   3.045   7.884   2.090 -1.3128 -0.3222 -0.2775
   91MOL   C15616536   3.099   8.035   2.121 -0.0198 -0.4571  0.1091
   91MOL   C15716537   3.102   7.854   1.943  0.9373  0.2821 -0.4999
   91MOL   O15816538   3.185   7.768   1.926  0.3574 -0.2844 -0.1658
   91MOL   O15916539   3.050   7.932   1.851  0.2127 -0.7753  0.3762
   91MOL   H16016540   3.089   7.816   2.162  1.6366  1.2482 -0.5180
   91MOL   H16116541   3.063   8.102   2.044 -2.4201  0.7009  2.1893
   91MOL   H16216542   3.066   8.074   2.217 -3.0440  0.2720 -1.1912
   91MOL   H16316543   3.208   8.042   2.112 -0.2363  1.4146 -1.2472
   91MOL   C16416544   3.070   7.912   1.710 -0.3669 -0.5109  0.2759
   91MOL   C16516545   3.052   8.053   1.648  0.2843 -0.0807 -0.0908
   91MOL   C16616546   2.968   7.800   1.652  0.2399  0.2686  0.4478
   91MOL   O16716547   2.886   7.745   1.724 -0.0506  0.2204 -0.0457
   91MOL   O16816548   2.988   7.767   1.520 -0.3336 -0.4821  0.4728
   91MOL   H16916549   3.174   7.885   1.696 -0.5977 -1.1460 -0.2423
   91MOL   H17016550   3.141   8.115   1.648  0.2993 -0.0854 -1.3797
   91MOL   H17116551   3.034   8.041   1.541 -0.7331  2.3554 -0.2240
   91MOL   H17216552   2.966   8.110   1.683  0.7227  0.9254 -0.6434
   91MOL   C17316553   2.900   7.673   1.462 -0.1369 -0.1554  0.0569
   91MOL   C17416554   2.983   7.590   1.368  0.3669 -0.5749  0.4764
   91MOL   C17516555   2.782   7.745   1.398  0.0145 -0.0042 -0.1463
   91MOL   O17616556   2.748   7.858   1.429  0.7128 -0.3507  0.1035
   91MOL   O17716557   2.706   7.669   1.317 -0.4182  0.4172 -0.5026
   91MOL   H17816558   2.862   7.604   1.537  1.4824 -0.4145  0.6770
   91MOL   H17916559   3.080   7.571   1.414  0.3813 -2.5254 -0.3235
   91MOL   H18016560   2.935   7.494   1.349  1.6226 -1.1835  0.3253
   91MOL   H18116561   2.988   7.646   1.275 -1.7447 -1.1419 -0.0233
   91MOL   H18216562   2.636   7.717   1.276 -1.5515 -2.0564 -1.6111
   92MOL     C116563   2.130   2.063   5.150  0.4986 -0.5175  0.1206
   92MOL     C216564   2.126   2.055   4.996 -0.4268 -0.0205 -0.7626
   92MOL     C316565   2.100   2.203   5.202 -0.2367 -0.3979 -0.0444
   92MOL     O416566   2.191   2.283   5.229 -0.1928  0.4995  0.4014
   92MOL     O516567   1.976   2.244   5.196 -0.4031 -0.0195  0.1682
   92MOL     H616568   2.059   1.995   5.196  0.5067 -2.1777 -2.2568
   92MOL     H716569   2.227   2.070   4.956  0.4300  2.2910  2.0960
   92MOL     H816570   2.098   1.958   4.954 -0.4188  0.1703 -1.2179
   92MOL     H916571   2.058   2.133   4.961 -1.1361 -0.1157  0.3946
   92MOL    H1016572   2.225   2.022   5.183  0.7789 -0.0833 -0.1314
   92MOL    C1116573   1.937   2.378   5.215  0.0971  0.7858  0.1877
   92MOL    C1216574   1.792   2.389   5.259 -0.0156  0.4169  0.4361
   92MOL    C1316575   1.975   2.457   5.091  0.3852  0.0399 -1.0810
   92MOL    O1416576   2.054   2.558   5.098  0.0847  0.5741 -0.2530
   92MOL    O1516577   1.923   2.405   4.979 -0.2176  0.9446  0.2435
   92MOL    H1616578   1.986   2.439   5.290  0.3842  0.2109  0.4651
   92MOL    H1716579   1.729   2.378   5.170  0.1896  2.7257 -0.0239
   92MOL    H1816580   1.778   2.320   5.342 -2.3022  0.9857  0.5776
   92MOL    H1916581   1.772   2.492   5.289  1.9373  1.0285 -0.2995
   92MOL    C2016582   1.957   2.451   4.846  0.1084  0.4120  0.1845
   92MOL    C2116583   1.838   2.422   4.759  0.1891 -1.0522 -0.5868
   92MOL    C2216584   2.092   2.394   4.798 -0.0320 -0.2217 -0.1677
   92MOL    O2316585   2.099   2.275   4.752  0.1530 -0.1514  0.3527
   92MOL    O2416586   2.193   2.477   4.824  0.1025 -0.5705  0.0742
   92MOL    H2516587   1.963   2.560   4.836  0.2018  0.4865  1.0233
   92MOL    H2616588   1.826   2.317   4.733 -0.2153 -0.9167 -0.9625
   92MOL    H2716589   1.752   2.461   4.814  0.7247  0.0383 -0.5045
   92MOL    H2816590   1.851   2.479   4.667  1.0291  0.0508  0.2102
   92MOL    C2916591   2.330   2.446   4.801  0.6824 -0.9922  0.0365
   92MOL    C3016592   2.412   2.520   4.909 -0.8678 -0.2275 -0.3967
   92MOL    C3116593   2.366   2.470   4.652  0.0481  0.2376 -0.0281
   92MOL    O3216594   2.285   2.480   4.560 -0.2523  0.0688  0.8117
   92MOL    O3316595   2.500   2.470   4.643 -0.3190  0.1126 -0.0080
   92MOL    H3416596   2.349   2.341   4.823  1.9704 -0.8421 -0.3023
   92MOL    H3516597   2.383   2.503   5.013  2.4881  0.6744  0.7656
   92MOL    H3616598   2.516   2.489   4.900 -1.0981 -0.8877 -0.8045
   92MOL    H3716599   2.412   2.628   4.893 -1.1256 -0.4154 -1.6860
   92MOL    C3816600   2.567   2.502   4.519  0.4666 -0.0421 -0.0836
   92MOL    C3916601   2.649   2.382   4.469 -0.6898 -0.0152 -0.2893
   92MOL    C4016602   2.650   2.632   4.534 -0.3164  0.6582 -0.0222
   92MOL    O4116603   2.690   2.670   4.644 -0.2142  0.1189 -0.3225
   92MOL    O4216604   2.679   2.690   4.420  0.5869  0.0590  0.6521
   92MOL    H4316605   2.498   2.528   4.439 -1.7956  0.5331  2.0073
   92MOL    H4416606   2.576   2.322   4.414  1.0165 -2.2735 -0.1853
   92MOL    H4516607   2.734   2.409   4.407 -1.4682  0.7787 -1.0172
   92MOL    H4616608   2.695   2.325   4.550  0.2662  1.1014 -0.0395
   92MOL    C4716609   2.754   2.807   4.404  0.0992 -0.3305 -0.1496
   92MOL    C4816610   2.668   2.935   4.419  0.4551  0.5045  0.2914
   92MOL    C4916611   2.815   2.809   4.262  0.7619 -0.4006  1.5277
   92MOL    O5016612   2.936   2.814   4.247  0.2711  0.6709 -0.4657
   92MOL    O5116613   2.722   2.824   4.159  0.1061  0.0686 -0.0144
   92MOL    H5216614   2.843   2.795   4.466  0.1206 -1.6165 -0.4060
   92MOL    H5316615   2.573   2.939   4.364 -0.0248  2.5249  1.2370
   92MOL    H5416616   2.635   2.949   4.522 -1.9822  0.5327 -0.4607
   92MOL    H5516617   2.722   3.025   4.391 -1.3173  0.4716 -3.6628
   92MOL    C5616618   2.764   2.830   4.022  0.3370  0.1646 -0.5331
   92MOL    C5716619   2.641   2.896   3.951  0.1323 -0.3609  0.1323
   92MOL    C5816620   2.788   2.690   3.963 -0.5134 -0.0814 -0.2845
   92MOL    O5916621   2.784   2.592   4.038 -0.3333  0.2698  0.3881
   92MOL    O6016622   2.806   2.684   3.835  0.1132  0.0726 -0.0409
   92MOL    H6116623   2.850   2.896   4.009 -0.2500  0.7913 -1.3276
   92MOL    H6216624   2.644   3.001   3.981  2.6125 -0.0796 -0.9496
   92MOL    H6316625   2.640   2.901   3.842  0.0940  1.2340  0.1904
   92MOL    H6416626   2.548   2.851   3.985 -0.0726  0.2254  0.3450
   92MOL    C6516627   2.818   2.562   3.768 -0.5238 -0.8043 -0.3011
   92MOL    C6616628   2.962   2.514   3.781  0.0059  0.6994 -0.0214
   92MOL    C6716629   2.769   2.582   3.617  0.2186 -0.3784  0.4715
   92MOL    O6816630   2.843   2.614   3.527 -0.4859 -0.4038  0.4791
   92MOL    O6916631   2.632   2.576   3.606  0.2034  0.4864  0.1689
   92MOL    H7016632   2.754   2.485   3.810 -0.9612 -0.5664 -0.5221
   92MOL    H7116633   2.991   2.472   3.685 -0.7540  0.4213 -0.1334
   92MOL    H7216634   3.034   2.591   3.809  0.0839  0.2177  1.1682
   92MOL    H7316635   2.955   2.445   3.866 -1.8767  0.5000 -0.3246
   92MOL    C7416636   2.571   2.628   3.486 -0.8665 -0.1791 -0.2646
   92MOL    C7516637   2.418   2.651   3.497 -0.7403 -0.2805 -0.0559
   92MOL    C7616638   2.603   2.547   3.363 -0.7148 -0.0062 -0.3006
   92MOL    O7716639   2.642   2.432   3.370 -0.0265 -0.4189  0.3464
   92MOL    O7816640   2.605   2.624   3.252  0.5953  0.3893  0.0091
   92MOL    H7916641   2.625   2.721   3.468 -1.0393 -0.1374 -0.5802
   92MOL    H8016642   2.362   2.677   3.407 -1.4352  2.5867  1.1358
   92MOL    H8116643   2.381   2.554   3.530  1.6400 -0.6471  1.7427
   92MOL    H8216644   2.407   2.730   3.572 -1.5159  0.0635 -0.5369
   92MOL    C8316645   2.608   2.561   3.119  0.3775 -0.7272  0.7018
   92MOL    C8416646   2.716   2.616   3.033  0.3244  0.1777  0.5557
   92MOL    C8516647   2.467   2.557   3.055 -0.7252 -0.6833 -0.3741
   92MOL    O8616648   2.447   2.604   2.942  0.0545 -0.2258 -0.6296
   92MOL    O8716649   2.384   2.492   3.134  0.3993  0.4422  0.0203
   92MOL    H8816650   2.633   2.456   3.134  0.3216 -1.2160 -2.2712
   92MOL    H8916651   2.809   2.574   3.071 -1.0552 -1.6235  2.0680
   92MOL    H9016652   2.708   2.586   2.929  0.3411  1.2543  0.2332
   92MOL    H9116653   2.708   2.725   3.039  0.5791  0.1394  1.9226
   92MOL    C9216654   2.248   2.486   3.118  0.2292  0.1433 -0.4986
   92MOL    C9316655   2.188   2.391   3.004 -0.0223  0.0271  0.4841
   92MOL    C9416656   2.175   2.622   3.110 -0.9238  0.0454 -0.7670
   92MOL    O9516657   2.157   2.680   3.004  0.0745 -0.1836  0.3027
   92MOL    O9616658   2.156   2.673   3.232  0.0411  0.1408  0.6283
   92MOL    H9716659   2.227   2.433   3.211 -0.5498  2.3205  0.5959
   92MOL    H9816660   2.215   2.287   3.026 -0.4298 -0.3067 -0.5887
   92MOL    H9916661   2.080   2.384   3.004 -0.1369  1.6370 -0.2672
   92MOL   H10016662   2.232   2.423   2.910 -0.6890 -2.7781 -0.8373
   92MOL   C10116663   2.073   2.792   3.244 -0.5300 -0.0256 -0.3294
   92MOL   C10216664   2.152   2.893   3.334  0.5087 -0.4677 -0.0227
   92MOL   C10316665   1.937   2.751   3.301 -0.2626  0.0926  0.2472
   92MOL   O10416666   1.898   2.763   3.418 -0.4110 -0.5653 -0.4026
   92MOL   O10516667   1.861   2.698   3.203 -0.5200  0.2781 -0.3264
   92MOL   H10616668   2.047   2.851   3.156 -1.3047 -3.1652 -2.2876
   92MOL   H10716669   2.260   2.886   3.319  0.2341  1.0426 -2.9476
   92MOL   H10816670   2.129   2.995   3.306 -0.3928 -0.8065 -0.5294
   92MOL   H10916671   2.116   2.881   3.436 -2.4421 -0.1706 -0.9662
   92MOL   C11016672   1.742   2.623   3.237 -0.7034 -0.1345  0.4056
   92MOL   C11116673   1.684   2.563   3.108  0.4821 -0.7210  0.5887
   92MOL   C11216674   1.631   2.717   3.297 -0.3982 -0.3232  0.0239
   92MOL   O11316675   1.581   2.692   3.405 -0.8487  0.5182  0.5161
   92MOL   O11416676   1.595   2.815   3.224  0.3946 -0.1600  0.2534
   92MOL   H11516677   1.781   2.550   3.309  1.4597  2.0569  1.5202
   92MOL   H11616678   1.590   2.511   3.126 -1.5124  2.7824  0.5666
   92MOL   H11716679   1.656   2.648   3.046  0.8415 -2.9399 -2.7316
   92MOL   H11816680   1.751   2.495   3.054 -0.9411 -0.3809 -1.6648
   92MOL   C11916681   1.513   2.920   3.287 -0.5625 -0.8398 -0.0208
   92MOL   C12016682   1.379   2.918   3.218 -0.1939 -0.4532 -0.3190
   92MOL   C12116683   1.582   3.054   3.260  0.3680 -0.0180 -0.3144
   92MOL   O12216684   1.627   3.129   3.346  0.1523  0.8088 -0.3197
   92MOL   O12316685   1.597   3.081   3.128 -0.2750  0.2071 -0.6247
   92MOL   H12416686   1.491   2.917   3.394  1.7972 -1.1060  0.4767
   92MOL   H12516687   1.399   2.909   3.111  3.2455  0.3921  0.2061
   92MOL   H12616688   1.318   2.835   3.254 -0.3257  0.1594  0.8874
   92MOL   H12716689   1.327   3.014   3.225 -0.7406 -0.7933  0.3502
   92MOL   C12816690   1.686   3.191   3.088  0.2997 -1.0534 -0.5894
   92MOL   C12916691   1.648   3.227   2.944 -0.2284 -0.2372 -0.8978
   92MOL   C13016692   1.831   3.158   3.101  0.1054  0.6184 -0.5261
   92MOL   O13116693   1.877   3.047   3.124 -0.3058  0.2226 -0.1272
   92MOL   O13216694   1.910   3.268   3.079 -0.0660  0.2576 -0.2847
   92MOL   H13316695   1.669   3.286   3.139  0.4998 -0.0310 -2.3652
   92MOL   H13416696   1.548   3.270   2.933 -0.5403 -0.7919 -0.2225
   92MOL   H13516697   1.715   3.308   2.913 -1.4477  1.5065  0.8636
   92MOL   H13616698   1.670   3.135   2.891 -1.8327 -1.2866  0.2267
   92MOL   C13716699   2.057   3.266   3.077 -0.2628  0.0190  0.2114
   92MOL   C13816700   2.108   3.411   3.090  0.0029 -0.1450 -0.1636
   92MOL   C13916701   2.117   3.187   2.959  0.4202  0.1068 -0.5352
   92MOL   O14016702   2.051   3.181   2.857  0.2379 -0.0399  0.2890
   92MOL   O14116703   2.239   3.138   2.976 -0.6719 -0.1004  0.3415
   92MOL   H14216704   2.087   3.212   3.167  1.8673  0.8965  0.0429
   92MOL   H14316705   2.034   3.472   3.142  0.7957  0.1316  0.6856
   92MOL   H14416706   2.197   3.421   3.154  0.2550  0.0773 -0.5485
   92MOL   H14516707   2.150   3.447   2.996 -0.9180 -0.1178 -0.5655
   92MOL   C14616708   2.296   3.041   2.875 -0.0400  0.4456 -0.3867
   92MOL   C14716709   2.414   2.974   2.950 -0.2862 -0.0544 -0.2406
   92MOL   C14816710   2.346   3.123   2.745  0.0473 -0.1210 -0.5573
   92MOL   O14916711   2.328   3.242   2.745 -0.4643  0.6341  0.5729
   92MOL   O15016712   2.407   3.046   2.649 -0.1887  0.0524  0.1163
   92MOL   H15116713   2.223   2.961   2.858  0.0062 -0.2435  2.4293
   92MOL   H15216714   2.387   2.921   3.041 -0.3361  1.9486  0.9504
   92MOL   H15316715   2.448   2.900   2.878 -2.2730 -0.4256 -0.8283
   92MOL   H15416716   2.494   3.045   2.971  1.0385 -1.1644 -1.4388
   92MOL   C15516717   2.451   3.106   2.531 -0.1832  0.0100  0.1498
   92MOL   C15616718   2.356   3.073   2.414 -0.2335  0.6614 -0.0278
   92MOL   C15716719   2.593   3.052   2.493  0.3934 -0.4375 -0.1542
   92MOL   O15816720   2.685   3.127   2.458  0.0330  0.0601 -0.3036
   92MOL   O15916721   2.608   2.916   2.495  0.3613 -0.2399  0.0271
   92MOL   H16016722   2.466   3.214   2.533 -0.5518  0.0439  1.2956
   92MOL   H16116723   2.403   3.123   2.329  1.6602  0.7248  1.0374
   92MOL   H16216724   2.352   2.966   2.391  2.4062  0.6365 -0.5346
   92MOL   H16316725   2.255   3.112   2.426 -0.6721 -0.9962  1.9867
   92MOL   C16416726   2.735   2.854   2.483 -0.0701 -1.1871  0.2023
   92MOL   C16516727   2.711   2.713   2.432  0.7711  0.0055 -0.3414
   92MOL   C16616728   2.816   2.859   2.620 -0.0929  0.1429  0.1581
   92MOL   O16716729   2.764   2.857   2.730 -0.3681  0.5728  0.6723
   92MOL   O16816730   2.953   2.832   2.604  0.3298  0.0321  0.0962
   92MOL   H16916731   2.793   2.901   2.403  0.4764  1.4922  2.1481
   92MOL   H17016732   2.644   2.659   2.499  0.7291 -1.2044 -1.3271
   92MOL   H17116733   2.668   2.715   2.331  3.2540 -3.0705 -1.5552
   92MOL   H17216734   2.804   2.655   2.430  1.7052  1.3652  2.1807
   92MOL   C17316735   3.038   2.785   2.708 -0.3845 -0.2318  0.0656
   92MOL   C17416736   3.185   2.777   2.657  0.5771  0.2732 -0.5335
   92MOL   C17516737   2.996   2.648   2.768  0.8720  0.0448 -0.4144
   92MOL   O17616738   3.006   2.630   2.886  0.0707 -0.3889  0.2743
   92MOL   O17716739   2.957   2.554   2.679 -0.4034  0.3708 -0.2892
   92MOL   H17816740   3.047   2.859   2.787  0.6639 -2.6241  2.2655
   92MOL   H17916741   3.201   2.720   2.566 -1.0281  0.2648 -0.8193
   92MOL   H18016742   3.228   2.875   2.637  1.0675 -0.3559 -2.6805
   92MOL   H18116743   3.248   2.740   2.737  0.4628  1.7115  0.2434
   92MOL   H18216744   2.916   2.480   2.722  0.3659  0.3155  0.3662
   93MOL     C116745   6.980   6.747   3.586 -0.3726  0.0638 -0.6096
   93MOL     C216746   6.958   6.608   3.657  0.5217 -0.4941  0.6699
   93MOL     C316747   6.859   6.846   3.599 -0.3085  0.4188 -0.8256
   93MOL     O416748   6.790   6.868   3.501  0.4574 -0.1321  0.2231
   93MOL     O516749   6.841   6.885   3.730  0.4859  0.3876 -0.1501
   93MOL     H616750   7.069   6.796   3.627 -2.0626  2.6218  0.1318
   93MOL     H716751   6.983   6.603   3.763  1.0567  2.4518  0.7444
   93MOL     H816752   6.854   6.577   3.645  1.1746 -2.3672 -0.3157
   93MOL     H916753   7.006   6.528   3.601  0.7176 -1.1703  1.8000
   93MOL    H1016754   6.997   6.732   3.480 -2.8560 -0.2678 -0.9847
   93MOL    C1116755   6.737   6.967   3.771  1.3009 -0.5744  0.2478
   93MOL    C1216756   6.599   6.893   3.761  0.0716  0.1125 -0.5944
   93MOL    C1316757   6.738   7.105   3.704  0.3003 -0.0670 -0.3296
   93MOL    O1416758   6.637   7.160   3.668 -0.0391 -0.0912  0.4026
   93MOL    O1516759   6.874   7.149   3.692  0.1018 -0.4424 -0.6367
   93MOL    H1616760   6.763   7.000   3.872  0.1891 -0.7091  0.5836
   93MOL    H1716761   6.593   6.795   3.808  0.6001  1.6507  2.8099
   93MOL    H1816762   6.525   6.957   3.809 -1.7327 -2.0496 -0.4239
   93MOL    H1916763   6.566   6.891   3.657 -0.5336  2.3326 -0.4662
   93MOL    C2016764   6.917   7.280   3.644  0.1731  0.2071 -0.1596
   93MOL    C2116765   6.891   7.370   3.760  0.1542  0.0339 -0.5658
   93MOL    C2216766   6.847   7.328   3.517 -0.1124  0.1883  0.1083
   93MOL    O2316767   6.792   7.437   3.504 -0.7221  0.4220 -0.1178
   93MOL    O2416768   6.849   7.231   3.423 -0.1238 -0.1138  0.0334
   93MOL    H2516769   7.024   7.274   3.622 -0.3433  0.2495 -2.9473
   93MOL    H2616770   6.941   7.327   3.846 -1.8011 -1.8110 -0.3013
   93MOL    H2716771   6.936   7.467   3.735 -1.3129  0.6389 -0.9091
   93MOL    H2816772   6.785   7.379   3.783  0.3707 -0.6582  0.7259
   93MOL    C2916773   6.781   7.249   3.297  0.1410 -0.1822 -0.6525
   93MOL    C3016774   6.751   7.114   3.229  0.1649  0.2685  0.0229
   93MOL    C3116775   6.859   7.343   3.204 -0.4608  0.2850  0.3051
   93MOL    O3216776   6.799   7.426   3.134  0.1009  0.8543  0.2362
   93MOL    O3316777   6.995   7.317   3.204  0.5767  0.2898 -0.4553
   93MOL    H3416778   6.692   7.306   3.320  0.8932 -0.1114  2.2779
   93MOL    H3516779   6.656   7.118   3.176 -0.9480 -1.8364  1.7702
   93MOL    H3616780   6.828   7.081   3.159  1.5069  2.9010  0.1857
   93MOL    H3716781   6.735   7.036   3.304 -1.6349  0.6226  0.0311
   93MOL    C3816782   7.079   7.405   3.139  0.1240 -0.6537 -0.6811
   93MOL    C3916783   7.216   7.327   3.108 -0.6635 -0.7858  0.4089
   93MOL    C4016784   7.096   7.539   3.222  0.4522 -0.2696  0.3874
   93MOL    O4116785   7.006   7.572   3.296 -0.5655 -0.5719  0.2928
   93MOL    O4216786   7.211   7.608   3.201  0.1648 -0.0556  0.0342
   93MOL    H4316787   7.032   7.426   3.042  0.9330  0.1914 -0.8927
   93MOL    H4416788   7.279   7.378   3.034 -0.0453 -2.1526 -0.0164
   93MOL    H4516789   7.277   7.318   3.197  0.9901 -2.3426 -0.8366
   93MOL    H4616790   7.180   7.236   3.060  0.3187  0.5434 -3.0485
   93MOL    C4716791   7.232   7.751   3.243 -0.9324  0.6408  0.9358
   93MOL    C4816792   7.341   7.805   3.150  0.1708 -0.1549  0.7555
   93MOL    C4916793   7.264   7.760   3.391 -0.3211  0.0420 -0.6276
   93MOL    O5016794   7.330   7.678   3.457  0.6095 -0.3308  0.7511
   93MOL    O5116795   7.206   7.871   3.438  0.0537 -0.5437  0.1179
   93MOL    H5216796   7.137   7.799   3.220 -0.4726  0.3024 -1.8267
   93MOL    H5316797   7.423   7.734   3.160 -0.5558 -1.2497 -0.8829
   93MOL    H5416798   7.328   7.813   3.042 -2.6994  0.6083  1.1275
   93MOL    H5516799   7.375   7.904   3.180 -0.0800  0.4955 -1.0611
   93MOL    C5616800   7.238   7.911   3.576  0.7727  0.5877 -0.1842
   93MOL    C5716801   7.123   8.004   3.619 -0.1682  0.0057 -0.6970
   93MOL    C5816802   7.367   7.993   3.587 -0.4560 -0.3065  0.1718
   93MOL    O5916803   7.438   7.982   3.687 -0.2881 -0.5520 -0.1885
   93MOL    O6016804   7.381   8.090   3.488 -0.5122 -0.2222  0.3269
   93MOL    H6116805   7.232   7.817   3.630  0.6836  1.4983  1.4026
   93MOL    H6216806   7.144   8.032   3.722  0.6271 -0.1972 -0.8002
   93MOL    H6316807   7.118   8.100   3.566  4.8767  0.6379 -0.2452
   93MOL    H6416808   7.024   7.960   3.609 -0.9552  1.1229  1.8597
   93MOL    C6516809   7.497   0.024   3.475 -0.2262 -0.1416 -0.0091
   93MOL    C6616810   7.461   0.172   3.464  0.6040 -0.6153 -0.3851
   93MOL    C6716811   7.581   8.122   3.353 -0.5236 -0.2889 -0.6379
   93MOL    O6816812   7.564   8.018   3.297  0.8255  0.0913 -0.3228
   93MOL    O6916813   7.680   0.064   3.321 -0.4298 -0.0590 -0.3050
   93MOL    H7016814   7.558   0.016   3.564 -0.7267 -0.9832  0.2557
   93MOL    H7116815   7.364   0.184   3.512  1.1768 -0.1378  0.6577
   93MOL    H7216816   7.534   0.240   3.507  1.3387 -0.7833 -1.3360
   93MOL    H7316817   7.442   0.204   3.361  0.9550  2.3484  0.4473
   93MOL    C7416818   7.774   0.034   3.223 -0.0901  0.3687 -0.5375
   93MOL    C7516819   7.899   0.114   3.265 -0.6016  0.0407 -0.5803
   93MOL    C7616820   7.729   0.086   3.084 -0.1085 -0.5752  0.1274
   93MOL    O7716821   7.810   0.087   2.989  0.5449 -0.1146  0.5077
   93MOL    O7816822   7.608   0.131   3.074  0.4160 -0.3639  0.1513
   93MOL    H7916823   7.792   8.074   3.230  0.0800  0.5736  2.3796
   93MOL    H8016824   7.955   0.058   3.340  0.5566  0.6740 -0.9538
   93MOL    H8116825   7.970   0.129   3.184  0.3784  0.4499  0.3452
   93MOL    H8216826   7.885   0.213   3.308  0.2039  0.0817 -0.4028
   93MOL    C8316827   7.558   0.220   2.978  0.1963  0.7279  0.2934
   93MOL    C8416828   7.557   0.161   2.833  0.4598  0.0494 -0.3439
   93MOL    C8516829   7.628   0.353   2.986 -0.9287  0.3567 -0.2391
   93MOL    O8616830   7.678   0.412   2.892 -0.0347 -0.7460 -0.4996
   93MOL    O8716831   7.608   0.410   3.107 -0.9907  0.1615 -0.2253
   93MOL    H8816832   7.457   0.249   3.007  0.1627  1.4500 -0.4980
   93MOL    H8916833   7.632   0.083   2.819 -0.4045 -0.4668 -2.2896
   93MOL    H9016834   7.457   0.121   2.818 -0.3811  0.7619  3.0052
   93MOL    H9116835   7.568   0.236   2.754 -1.0868  0.7011  0.0441
   93MOL    C9216836   7.695   0.522   3.143 -0.2058 -0.1386 -0.1972
   93MOL    C9316837   7.819   0.470   3.220  0.2309 -0.0258  0.0469
   93MOL    C9416838   7.611   0.614   3.228  0.3614 -0.1296 -0.6307
   93MOL    O9516839   7.603   0.734   3.211 -0.5708 -0.0614  0.0682
   93MOL    O9616840   7.555   0.553   3.331 -0.1401  0.8685  0.4102
   93MOL    H9716841   7.719   0.574   3.051 -1.0407 -0.4257 -0.5836
   93MOL    H9816842   7.792   0.429   3.318 -0.5247  1.5783  0.5350
   93MOL    H9916843   7.873   0.396   3.161 -0.5472 -0.0293 -0.6792
   93MOL   H10016844   7.886   0.550   3.249  0.0086  0.3962 -0.5961
   93MOL   C10116845   7.483   0.608   3.443 -0.1543 -0.5736 -0.2060
   93MOL   C10216846   7.332   0.626   3.413 -0.1609  0.7862 -0.4933
   93MOL   C10316847   7.554   0.734   3.500  0.4124  0.3488 -0.5295
   93MOL   O10416848   7.493   0.826   3.550  0.4938 -0.6409 -0.2640
   93MOL   O10516849   7.691   0.719   3.502 -0.0758  0.2684 -0.2653
   93MOL   H10616850   7.477   0.536   3.524  1.3759 -1.1498 -0.5809
   93MOL   H10716851   7.286   0.548   3.352 -1.4628  1.2968 -0.1686
   93MOL   H10816852   7.288   0.646   3.510 -1.8772 -0.4609 -0.9975
   93MOL   H10916853   7.314   0.703   3.338 -0.7601 -1.1081 -2.3610
   93MOL   C11016854   7.783   0.816   3.553 -0.8169 -0.4109  0.0183
   93MOL   C11116855   7.781   0.815   3.706 -0.6071 -0.3820  0.2648
   93MOL   C11216856   7.755   0.956   3.490  0.1991  0.5859 -0.1957
   93MOL   O11316857   7.700   1.042   3.551  0.1129 -0.3057 -0.0385
   93MOL   O11416858   7.792   0.964   3.356  0.1378  0.1620  0.0859
   93MOL   H11516859   7.883   0.781   3.531 -0.5533 -1.1228  2.2135
   93MOL   H11616860   7.678   0.827   3.740 -0.2964  1.6623  0.5923
   93MOL   H11716861   7.815   0.723   3.754  0.0614 -0.3679 -0.1776
   93MOL   H11816862   7.835   0.897   3.755 -2.4288  3.7241 -4.1851
   93MOL   C11916863   7.787   1.085   3.285 -0.3344 -0.5222 -1.0912
   93MOL   C12016864   7.766   1.049   3.145 -0.1361 -0.0217 -0.6723
   93MOL   C12116865   7.914   1.166   3.304 -0.4206  0.6707 -0.0381
   93MOL   O12216866   7.923   1.267   3.374  0.7673  0.4970 -0.4164
   93MOL   O12316867   8.017   1.108   3.232 -0.0163 -0.0819  0.3684
   93MOL   H12416868   7.704   1.149   3.313  0.2130  0.0821 -0.8282
   93MOL   H12516869   7.831   0.964   3.121  0.1480 -0.0663  0.2406
   93MOL   H12616870   7.666   1.013   3.123  0.3168 -1.0639 -1.1029
   93MOL   H12716871   7.777   1.128   3.070  0.6138  0.4815 -0.0378
   93MOL   C12816872   0.005   1.155   3.252  0.2202  0.0962  0.9602
   93MOL   C12916873   0.066   1.192   3.108  0.1498 -0.3498 -0.0113
   93MOL   C13016874   0.088   1.064   3.342  0.6842 -0.0355 -0.1849
   93MOL   O13116875   0.107   1.095   3.459 -0.7879 -0.6135 -0.4101
   93MOL   O13216876   0.124   0.948   3.276 -0.4339  0.1796 -0.1533
   93MOL   H13316877   8.144   1.248   3.307  1.0178  0.9840 -0.3934
   93MOL   H13416878   0.114   1.106   3.062  1.9022  0.5071  0.1640
   93MOL   H13516879   8.138   1.234   3.041  0.2062 -0.4082 -0.1114
   93MOL   H13616880   0.149   1.263   3.119 -0.5812  0.1825  2.4503
   93MOL   C13716881   0.187   0.851   3.362  0.1940 -0.0046 -0.5940
   93MOL   C13816882   0.280   0.765   3.273  0.4047  0.3718  0.2334
   93MOL   C13916883   0.072   0.768   3.423 -0.2827 -0.3110  0.6259
   93MOL   O14016884   8.106   0.754   3.367 -0.4244  0.3080  0.1324
   93MOL   O14116885   0.124   0.685   3.523 -0.4643  0.4507  0.4539
   93MOL   H14216886   0.245   0.885   3.448 -0.1121 -1.1442  0.0754
   93MOL   H14316887   0.312   0.686   3.341 -2.0477  1.6536  2.9957
   93MOL   H14416888   0.227   0.717   3.190  0.7497 -1.0521  0.8261
   93MOL   H14516889   0.355   0.828   3.224 -0.3739 -0.2784 -1.8782
   93MOL   C14616890   0.053   0.570   3.579  0.9239 -0.0360 -0.2207
   93MOL   C14716891   0.130   0.499   3.687 -0.4808  0.7146 -0.1672
   93MOL   C14816892   0.013   0.474   3.462 -0.0369  0.2964  0.2554
   93MOL   O14916893   8.042   0.442   3.449  0.0864 -0.5826  0.1017
   93MOL   O15016894   0.111   0.424   3.385 -0.5220 -0.3985  0.1195
   93MOL   H15116895   8.106   0.609   3.616  0.5155 -1.1232 -0.1038
   93MOL   H15216896   0.198   0.564   3.742  1.6634 -0.6153 -1.1593
   93MOL   H15316897   0.053   0.446   3.742 -0.3033  0.2361 -0.3747
   93MOL   H15416898   0.193   0.422   3.641 -1.4794 -0.1168 -0.1702
   93MOL   C15516899   0.075   0.359   3.264 -0.3221  0.6063 -0.2592
   93MOL   C15616900   0.173   0.248   3.253 -0.5108 -0.2498 -0.0509
   93MOL   C15716901   0.090   0.458   3.146 -0.5456  0.3539  0.4239
   93MOL   O15816902   0.192   0.477   3.085  0.1452  0.0067  0.1932
   93MOL   O15916903   8.126   0.528   3.115  0.0783  0.0971 -0.1356
   93MOL   H16016904   8.125   0.312   3.260 -0.2478 -0.0040  3.2255
   93MOL   H16116905   0.272   0.288   3.234 -1.3217  0.7482 -2.2629
   93MOL   H16216906   0.173   0.192   3.347  2.3495  2.1531  1.4464
   93MOL   H16316907   0.156   0.183   3.167  2.6202  0.1917 -1.0577
   93MOL   C16416908   8.117   0.598   2.988  0.7642 -0.1629 -0.6143
   93MOL   C16516909   7.984   0.672   2.984 -0.3292 -0.2938  0.2492
   93MOL   C16616910   8.126   0.508   2.863  0.8987 -0.9591 -0.1249
   93MOL   O16716911   0.069   0.537   2.779  0.5892  0.2562  0.3003
   93MOL   O16816912   8.027   0.420   2.850 -0.2055  0.0135  0.3653
   93MOL   H16916913   0.057   0.663   2.986 -0.2862  1.4735  2.2077
   93MOL   H17016914   7.978   0.732   3.074 -2.3621  1.8097 -1.2227
   93MOL   H17116915   7.988   0.733   2.893 -1.5099  2.6533  2.1100
   93MOL   H17216916   7.907   0.595   2.979 -0.5279 -0.0902  0.1345
   93MOL   C17316917   8.051   0.305   2.771 -0.1092  0.0976  1.0735
   93MOL   C17416918   7.908   0.279   2.711 -0.0678  0.4800 -0.3189
   93MOL   C17516919   8.108   0.198   2.857 -0.1130  0.1325 -0.1092
   93MOL   O17616920   8.134   0.205   2.975 -0.7163 -0.0457 -0.1785
   93MOL   O17716921   8.138   0.088   2.778  0.3532  0.5449  0.3035
   93MOL   H17816922   8.115   0.345   2.692 -3.7954  0.8610 -1.6526
   93MOL   H17916923   7.846   0.232   2.787  0.6078  0.3517  0.1513
   93MOL   H18016924   7.859   0.374   2.692 -1.0177 -0.1061 -0.8671
   93MOL   H18116925   7.910   0.204   2.632 -2.0270  1.0310 -0.9103
   93MOL   H18216926   0.014   0.020   2.840 -2.7102 -0.5997  0.2974
   94MOL     C116927   5.911   7.035   7.053 -0.5008  0.3478 -0.9402
   94MOL     C216928   6.026   6.993   6.963  0.6666 -0.5069 -0.0546
   94MOL     C316929   5.880   6.951   7.172  0.3403  0.9067 -0.4620
   94MOL     O416930   5.764   6.912   7.184 -0.1428  0.1288 -0.4496
   94MOL     O516931   5.986   6.922   7.254 -0.2604  0.0598  0.1428
   94MOL     H616932   5.928   7.138   7.082 -0.9966 -0.1460  1.1369
   94MOL     H716933   6.026   7.050   6.870  3.7264 -1.1440 -0.4817
   94MOL     H816934   6.117   7.015   7.019  0.2776  1.0890 -0.0148
   94MOL     H916935   6.022   6.890   6.929 -0.0317 -0.4601 -0.1371
   94MOL    H1016936   5.821   7.036   6.992 -1.3591  1.7788  0.3427
   94MOL    C1116937   5.959   6.858   7.374  0.2420  0.9931  0.0591
   94MOL    C1216938   5.915   6.960   7.485  0.2755 -0.1317  0.3541
   94MOL    C1316939   6.086   6.779   7.405 -0.2543 -0.0248  0.6960
   94MOL    O1416940   6.119   6.764   7.525  0.0726  0.6694  0.6787
   94MOL    O1516941   6.150   6.721   7.302 -0.3289  0.1594 -0.2968
   94MOL    H1616942   5.885   6.780   7.360  1.4161  0.1867 -1.8020
   94MOL    H1716943   5.842   7.033   7.449 -0.2845  1.1300  3.9042
   94MOL    H1816944   5.868   6.906   7.567  1.6168 -0.3045  1.0177
   94MOL    H1916945   5.996   7.018   7.529  0.2838 -1.9707  2.8849
   94MOL    C2016946   6.282   6.661   7.324 -0.7646 -0.2312 -1.0344
   94MOL    C2116947   6.359   6.655   7.201 -0.2508 -0.0300 -0.2303
   94MOL    C2216948   6.270   6.523   7.392 -0.1432 -0.0804 -0.5242
   94MOL    O2316949   6.365   6.481   7.464 -0.2905 -0.1454 -0.1103
   94MOL    O2416950   6.164   6.454   7.351 -0.5141  0.4242 -0.0453
   94MOL    H2516951   6.352   6.727   7.374 -1.3227  0.6025 -1.3375
   94MOL    H2616952   6.355   6.749   7.146 -1.4173 -0.8709 -1.6510
   94MOL    H2716953   6.458   6.631   7.237 -1.0017 -1.9558  0.6256
   94MOL    H2816954   6.331   6.581   7.126  1.2154 -1.5521  0.7127
   94MOL    C2916955   6.132   6.327   7.391  0.5887 -0.1800 -0.0328
   94MOL    C3016956   5.998   6.283   7.321 -0.1920 -0.7456 -0.3258
   94MOL    C3116957   6.117   6.326   7.544 -0.1172 -0.1767  0.4470
   94MOL    O3216958   6.038   6.395   7.613 -0.2522  0.1009  0.0496
   94MOL    O3316959   6.216   6.244   7.594 -0.1543 -0.8621 -0.4052
   94MOL    H3416960   6.211   6.265   7.348  1.1601  0.7152 -0.2825
   94MOL    H3516961   5.985   6.325   7.221  0.8236 -0.5563 -0.3807
   94MOL    H3616962   5.993   6.176   7.300  0.8495 -0.7926 -0.3308
   94MOL    H3716963   5.908   6.314   7.374  1.8328 -0.1306  2.8880
   94MOL    C3816964   6.227   6.228   7.732  0.8028  0.0518 -0.5350
   94MOL    C3916965   6.327   6.326   7.785 -0.6465  0.3468  0.2261
   94MOL    C4016966   6.268   6.083   7.758  0.5120  0.2066  0.4071
   94MOL    O4116967   6.321   6.003   7.680 -0.4028 -0.0421  0.0874
   94MOL    O4216968   6.223   6.047   7.875  0.3926 -0.4405  0.6380
   94MOL    H4316969   6.139   6.241   7.795 -0.1248 -1.3632 -1.5220
   94MOL    H4416970   6.412   6.320   7.718  0.0632  2.7169  0.8537
   94MOL    H4516971   6.284   6.426   7.784 -2.7018 -0.4786  1.4318
   94MOL    H4616972   6.373   6.301   7.881  0.5833 -0.2857 -0.5151
   94MOL    C4716973   6.269   5.930   7.939  0.3942 -0.1406 -0.2020
   94MOL    C4816974   6.144   5.874   8.008  0.5751 -0.1886 -0.4839
   94MOL    C4916975   6.381   5.964   8.030 -0.3485 -0.3062  0.2785
   94MOL    O5016976   6.488   5.901   8.031 -0.0367 -0.4146 -0.4636
   94MOL    O5116977   6.348   6.069   8.110 -0.2625  0.3076 -0.4893
   94MOL    H5216978   6.293   5.852   7.866 -0.5885 -0.3582 -0.2940
   94MOL    H5316979   6.154   5.778   8.060  0.8492  0.3654  0.5098
   94MOL    H5416980   6.114   5.937   8.092 -0.8499  0.4517 -1.4645
   94MOL    H5516981   6.058   5.868   7.942  0.0573  0.2225  0.1468
   94MOL    C5616982   6.426   6.127   0.057 -0.0520  0.0140  0.5333
   94MOL    C5716983   6.351   6.254   0.091  0.0536  0.0947  0.1045
   94MOL    C5816984   6.571   6.150   0.020 -0.2537  0.1806  0.1142
   94MOL    O5916985   6.656   6.086   0.076 -0.1931  0.4988 -0.0816
   94MOL    O6016986   6.583   6.237   8.063 -0.3145 -0.1586 -0.0799
   94MOL    H6116987   6.427   6.073   0.151  1.4728 -0.4786  0.2370
   94MOL    H6216988   6.243   6.239   0.096  0.3853 -2.9306 -0.6983
   94MOL    H6316989   6.398   6.304   0.176 -0.5758 -0.2659  0.6702
   94MOL    H6416990   6.359   6.312   8.146  1.9315 -2.3067 -1.2835
   94MOL    C6516991   6.704   6.249   7.990 -0.1491 -0.5008  0.2394
   94MOL    C6616992   6.698   6.381   7.903 -0.1756 -0.0273  0.1450
   94MOL    C6716993   6.725   6.134   7.899  0.4810  0.0132 -0.1224
   94MOL    O6816994   6.681   6.117   7.783  0.0791 -0.0474  0.3793
   94MOL    O6916995   6.808   6.041   7.958  0.3166 -0.5144 -0.0069
   94MOL    H7016996   6.790   6.255   8.057  1.8274  1.1240 -2.3784
   94MOL    H7116997   6.617   6.382   7.830 -0.0357 -0.2269 -0.0162
   94MOL    H7216998   6.693   6.473   7.961 -1.4180  0.2633 -0.4107
   94MOL    H7316999   6.785   6.392   7.838 -0.1582 -1.0720 -0.0235
   94MOL    C7417000   6.809   5.907   7.905  0.3514 -0.4067  0.0030
   94MOL    C7517001   6.815   5.808   8.014  0.4145  0.2940 -0.1118
   94MOL    C7617002   6.933   5.909   7.812  0.1340  0.1201  0.1924
   94MOL    O7717003   7.040   5.947   7.861 -0.0579  0.3241 -0.0459
   94MOL    O7817004   6.906   5.876   7.688  0.1893  0.0792 -0.0557
   94MOL    H7917005   6.722   5.877   7.846  1.3017  0.9701 -2.1310
   94MOL    H8017006   6.908   5.805   8.072  0.4761  1.7612 -0.1126
   94MOL    H8117007   6.736   5.825   8.088  1.2856  0.2154  0.8568
   94MOL    H8217008   6.800   5.710   7.969 -0.6793  0.1074  0.6260
   94MOL    C8317009   7.016   5.840   7.602 -0.3748  0.5499 -0.5673
   94MOL    C8417010   6.956   5.827   7.457  0.5053 -0.2824  0.1631
   94MOL    C8517011   7.078   5.709   7.648  0.4449  0.0019  0.0616
   94MOL    O8617012   7.202   5.695   7.634  0.0094  0.2603 -0.6670
   94MOL    O8717013   6.987   5.617   7.700  0.5429 -0.1371  0.0303
   94MOL    H8817014   7.090   5.919   7.611  1.7328 -1.5898  1.6274
   94MOL    H8917015   6.880   5.754   7.428 -0.2068  0.5733 -0.1602
   94MOL    H9017016   6.922   5.924   7.422 -0.0807  0.0332  1.5956
   94MOL    H9117017   7.030   5.807   7.379 -0.8686 -0.2020 -1.1895
   94MOL    C9217018   7.017   5.491   7.752 -0.3678 -0.4270  0.2650
   94MOL    C9317019   6.893   5.429   7.818  0.0899 -0.5333  0.5666
   94MOL    C9417020   7.132   5.495   7.854 -0.0939 -0.8786 -0.5439
   94MOL    O9517021   7.229   5.419   7.851  0.6293 -0.5908 -0.1737
   94MOL    O9617022   7.116   5.587   7.957 -0.1849  0.4734  0.1915
   94MOL    H9717023   7.046   5.427   7.669 -2.0399 -0.4634 -0.3059
   94MOL    H9817024   6.817   5.405   7.744 -0.9832  2.3408  0.6555
   94MOL    H9917025   6.926   5.338   7.868  1.5210 -1.2661 -1.6393
   94MOL   H10017026   6.852   5.493   7.897 -0.6134 -0.5262  0.2018
   94MOL   C10117027   7.218   5.626   8.049  0.7759 -0.0991 -0.9103
   94MOL   C10217028   7.166   5.666   0.037  0.4979 -0.1318 -0.6336
   94MOL   C10317029   7.318   5.729   7.986 -0.2073 -0.2271 -0.8212
   94MOL   O10417030   7.428   5.687   7.952 -0.3039  0.2622 -0.0100
   94MOL   O10517031   7.283   5.863   8.013  0.6325 -0.1905  0.2035
   94MOL   H10617032   7.276   5.535   8.064 -0.0507 -0.3472  0.9828
   94MOL   H10717033   7.102   5.754   0.032  1.4925  0.5385 -2.0961
   94MOL   H10817034   7.110   5.577   0.066 -2.3941  1.5576 -0.7778
   94MOL   H10917035   7.243   5.672   0.113  0.1739 -2.0869 -0.1292
   94MOL   C11017036   7.365   5.979   7.998  0.2751 -0.0684 -0.2108
   94MOL   C11117037   7.408   6.007   7.856 -0.6150  0.1155  0.1330
   94MOL   C11217038   7.477   5.987   8.098 -0.6175  0.9848 -0.3909
   94MOL   O11317039   7.561   6.075   8.088  0.1749  0.6010 -0.0577
   94MOL   O11417040   7.461   5.894   0.048  0.9719 -0.0466 -0.2321
   94MOL   H11517041   7.300   6.054   8.042  0.6798  0.0282  0.2289
   94MOL   H11617042   7.438   5.911   7.815  0.3058 -0.9562  3.2007
   94MOL   H11717043   7.329   6.044   7.790 -1.6250  1.1009  1.8676
   94MOL   H11817044   7.498   6.067   7.837  0.1404 -1.2779 -0.7802
   94MOL   C11917045   7.542   5.899   0.169 -0.1708 -0.4216 -0.6842
   94MOL   C12017046   7.510   6.018   0.264  0.2973  0.0611 -0.2359
   94MOL   C12117047   7.694   5.877   0.144 -0.1655 -0.0654  0.1184
   94MOL   O12217048   7.743   5.774   0.096  0.1051 -0.6607  0.2139
   94MOL   O12317049   7.761   6.003   0.159 -0.4143  0.4153  0.3140
   94MOL   H12417050   7.514   5.805   0.217 -0.5270  0.3936  0.7436
   94MOL   H12517051   7.557   6.113   0.238  1.7986 -1.0416 -1.6251
   94MOL   H12617052   7.401   6.028   0.262  0.1979 -0.6194  1.0642
   94MOL   H12717053   7.555   6.001   0.362 -0.1391 -1.0229 -0.2258
   94MOL   C12817054   7.900   6.007   0.135  0.6607 -0.7368 -0.9994
   94MOL   C12917055   7.941   6.132   0.207  1.0422 -0.4226 -0.0528
   94MOL   C13017056   7.940   6.012   8.135 -0.7532 -0.2849  0.4825
   94MOL   O13117057   7.865   6.062   8.047  0.7180 -0.0301 -0.3446
   94MOL   O13217058   8.045   5.934   8.098  0.1192  0.8096  0.1326
   94MOL   H13317059   7.949   5.938   0.204 -1.1219  0.0283  1.1074
   94MOL   H13417060   7.908   6.225   0.160 -1.0066 -0.9702  0.2896
   94MOL   H13517061   7.895   6.139   0.305  2.0562  0.6444  0.3689
   94MOL   H13617062   8.050   6.135   0.221  0.5926  3.1288  3.8941
   94MOL   C13717063   8.103   5.954   7.966 -0.5519 -0.3690  0.0041
   94MOL   C13817064   0.079   5.865   7.934  0.0979  0.7644 -0.0810
   94MOL   C13917065   0.005   6.100   7.947 -1.2821  0.0789 -0.1631
   94MOL   O14017066   8.128   6.169   7.850  1.1736 -0.1749  0.3477
   94MOL   O14117067   0.079   6.143   8.053 -0.7061  0.8971 -0.5524
   94MOL   H14217068   8.036   5.924   7.885  1.1554  0.0468 -1.5893
   94MOL   H14317069   0.068   5.763   7.971 -0.7070  0.3595 -1.4210
   94MOL   H14417070   0.080   5.865   7.825 -1.0332 -1.1171 -0.1173
   94MOL   H14517071   0.167   5.918   7.970 -0.3556  2.8096 -1.8762
   94MOL   C14617072   0.140   6.271   8.049  0.2391 -0.2032 -0.0688
   94MOL   C14717073   0.252   6.275   0.009  0.0613  0.5937  0.2221
   94MOL   C14817074   0.021   6.369   8.078 -0.9127  0.7429 -0.2106
   94MOL   O14917075   8.060   6.338   8.131 -0.0976  0.0027  0.1171
   94MOL   O15017076   0.063   6.496   8.057  0.0830 -0.4724  0.2817
   94MOL   H15117077   0.191   6.284   7.954  4.5422  0.0262  2.1514
   94MOL   H15217078   0.203   6.310   0.100 -1.1363  1.8777 -0.9017
   94MOL   H15317079   0.290   6.175   0.029 -0.1820  0.5063  0.2508
   94MOL   H15417080   0.328   6.350   8.135  0.8657  0.0725  1.2050
   94MOL   C15517081   8.120   6.605   8.094 -0.1415 -0.0755 -0.4253
   94MOL   C15617082   0.005   6.729   8.008  0.0994  0.6998 -0.5884
   94MOL   C15717083   0.002   6.644   0.092  0.0721 -0.7397  0.1912
   94MOL   O15817084   0.090   6.595   0.164  0.4120  0.2724  0.7755
   94MOL   O15917085   8.071   6.738   0.140  0.2376  0.0193 -0.3361
   94MOL   H16017086   8.014   6.582   8.081 -0.4594  0.7373  0.6219
   94MOL   H16117087   0.101   6.716   7.957  0.8761  3.0137  0.2336
   94MOL   H16217088   8.076   6.750   7.934  1.6408 -0.2229 -2.4940
   94MOL   H16317089   0.009   6.821   8.066  0.9042 -0.2536  0.9167
   94MOL   C16417090   8.091   6.799   0.267  0.2224  0.1394  0.1960
   94MOL   C16517091   7.990   6.914   0.265  0.3734  0.0754  0.0594
   94MOL   C16617092   0.081   6.862   0.275  0.0731 -0.1537 -0.3451
   94MOL   O16717093   0.149   6.857   0.379 -0.0316 -0.8316  0.8814
   94MOL   O16817094   0.126   6.924   0.166 -0.4683 -0.0202 -0.0512
   94MOL   H16917095   8.062   6.740   0.354 -0.8801  2.8703  1.7437
   94MOL   H17017096   7.992   6.975   0.355 -1.3344 -0.1819  0.2934
   94MOL   H17117097   7.984   6.983   0.180  0.8803  0.4417  0.3240
   94MOL   H17217098   7.886   6.882   0.280  0.8804 -0.7779  1.8029
   94MOL   C17317099   0.253   6.990   0.152 -0.0926  0.4316  0.1736
   94MOL   C17417100   0.232   7.133   0.102 -0.1513 -0.1542  0.5910
   94MOL   C17517101   0.343   6.902   0.068 -0.0104  0.2854  0.0117
   94MOL   O17617102   0.454   6.874   0.108  0.3986 -0.2111 -0.3072
   94MOL   O17717103   0.285   6.857   8.099  0.2052 -0.3307  0.3237
   94MOL   H17817104   0.296   6.995   0.252 -2.9768 -2.7647  1.6848
   94MOL   H17917105   0.188   7.205   0.171 -0.8787  0.9118 -0.9368
   94MOL   H18017106   0.332   7.177   0.095 -0.3703  0.3305  0.5111
   94MOL   H18117107   0.194   7.146   0.000  0.7135 -0.3597  0.2390
   94MOL   H18217108   0.340   6.785   8.070 -1.1507 -1.9395  1.6048
   95MOL     C117109   3.746   0.468   2.048 -0.1670  0.2209  0.5384
   95MOL     C217110   3.808   0.419   2.178  0.8512  0.2317 -0.3217
   95MOL     C317111   3.747   0.617   2.036 -0.3062  0.9590 -0.3666
   95MOL     O417112   3.804   0.677   1.946  0.0110  0.0457  0.0279
   95MOL     O517113   3.689   0.676   2.139  0.1707 -0.3818 -0.5501
   95MOL     H617114   3.803   0.428   1.963 -2.2103 -0.1049 -0.7200
   95MOL     H717115   3.754   0.454   2.266 -1.5861  0.6685 -1.9145
   95MOL     H817116   3.798   0.310   2.180  0.3909  0.2774 -0.0183
   95MOL     H917117   3.909   0.455   2.194  1.7850 -2.6357  0.5478
   95MOL    H1017118   3.645   0.429   2.054 -0.1851  0.0655 -0.5479
   95MOL    C1117119   3.658   0.814   2.139 -0.1772 -0.1131  0.5070
   95MOL    C1217120   3.660   0.857   2.285 -0.2759 -0.6108  0.1019
   95MOL    C1317121   3.525   0.835   2.065 -0.6875  0.6198  0.6192
   95MOL    O1417122   3.427   0.868   2.129  0.5431  0.3489  0.4005
   95MOL    O1517123   3.534   0.807   1.928 -0.2839 -0.1507  0.2029
   95MOL    H1617124   3.731   0.879   2.092 -0.7268  0.2662  0.1819
   95MOL    H1717125   3.650   0.966   2.288  1.5588 -0.4493  0.7443
   95MOL    H1817126   3.579   0.811   2.342 -1.1566  0.3510 -0.3448
   95MOL    H1917127   3.757   0.847   2.334 -0.0470  0.1263 -0.1894
   95MOL    C2017128   3.417   0.786   1.847  0.6405 -0.2575 -0.8354
   95MOL    C2117129   3.470   0.726   1.712  0.2117 -0.3699  0.5660
   95MOL    C2217130   3.343   0.917   1.824 -0.1646  0.3474  0.0406
   95MOL    O2317131   3.400   0.999   1.754  0.7917  0.0553  0.0455
   95MOL    O2417132   3.223   0.929   1.887  0.2449  0.5795  0.0651
   95MOL    H2517133   3.344   0.717   1.889  0.0780  1.2347  0.6692
   95MOL    H2617134   3.392   0.686   1.648 -1.1161  2.8637  0.0923
   95MOL    H2717135   3.531   0.794   1.652  0.1241  0.1740  1.0908
   95MOL    H2817136   3.544   0.649   1.737 -0.5911 -1.6785 -0.9858
   95MOL    C2917137   3.135   1.035   1.852  0.3820  0.2846  0.1597
   95MOL    C3017138   3.013   1.020   1.944 -0.1492  0.2565  0.6921
   95MOL    C3117139   3.098   1.035   1.699 -0.5914 -0.0081 -0.0816
   95MOL    O3217140   3.111   1.134   1.629 -0.0626  0.0032  0.0411
   95MOL    O3317141   3.041   0.922   1.647 -0.2529 -0.0686  0.1519
   95MOL    H3417142   3.187   1.128   1.876 -0.2027  0.6314  0.1052
   95MOL    H3517143   2.963   0.924   1.930 -0.7645  0.6105  0.4880
   95MOL    H3617144   3.044   1.028   2.048  0.0459  0.9328  0.5823
   95MOL    H3717145   2.933   1.092   1.933 -0.2174  0.2171  0.9222
   95MOL    C3817146   2.981   0.905   1.517 -0.1977 -0.1673  0.0910
   95MOL    C3917147   2.851   0.818   1.530  0.3163  0.2511 -0.4384
   95MOL    C4017148   3.082   0.853   1.409  0.3230  0.1143 -0.3632
   95MOL    O4117149   3.046   0.774   1.320 -0.7371  0.3311  0.5396
   95MOL    O4217150   3.208   0.915   1.412 -0.2979  0.1966 -0.2921
   95MOL    H4317151   2.959   1.006   1.482 -1.5985 -1.0931 -1.7723
   95MOL    H4417152   2.868   0.710   1.527  0.5789  0.2664  0.4198
   95MOL    H4517153   2.817   0.837   1.631  1.1617 -2.1118  0.3369
   95MOL    H4617154   2.785   0.840   1.446  2.2770  3.2049 -1.2932
   95MOL    C4717155   3.299   0.888   1.305 -0.8444  0.2738  0.0618
   95MOL    C4817156   3.431   0.952   1.357 -0.5131  0.6833  0.0936
   95MOL    C4917157   3.260   0.949   1.170  0.7085  0.2370  0.3182
   95MOL    O5017158   3.250   1.068   1.147 -0.0448  0.0743 -0.9116
   95MOL    O5117159   3.249   0.847   1.083  0.0251 -0.3535 -0.4816
   95MOL    H5217160   3.308   0.779   1.308 -1.0587  0.2769  1.4379
   95MOL    H5317161   3.512   0.950   1.285  0.4425  0.8042  1.1500
   95MOL    H5417162   3.409   1.055   1.386  1.2512  1.2895 -0.7043
   95MOL    H5517163   3.460   0.899   1.447 -2.3164 -0.5155 -0.0013
   95MOL    C5617164   3.201   0.866   0.948 -0.1018  0.0175 -0.5359
   95MOL    C5717165   3.174   0.724   0.902 -0.1844  0.0872 -0.0997
   95MOL    C5817166   3.295   0.937   0.855 -0.1335  0.1207  0.0250
   95MOL    O5917167   3.260   1.007   0.762  0.1400  0.1198 -0.2583
   95MOL    O6017168   3.425   0.910   0.881 -0.3013  0.5203  0.0446
   95MOL    H6117169   3.108   0.921   0.935  1.0202  1.5892 -2.1501
   95MOL    H6217170   3.106   0.669   0.968  1.0654 -2.1025 -0.5820
   95MOL    H6317171   3.128   0.730   0.804  0.5698  0.7917 -0.4140
   95MOL    H6417172   3.265   0.664   0.893 -0.1409  0.0277  0.6806
   95MOL    C6517173   3.526   1.008   0.848  0.3340 -0.1835  0.4005
   95MOL    C6617174   3.654   0.922   0.849  0.4506 -0.1188 -0.5714
   95MOL    C6717175   3.542   1.119   0.964 -0.6604  0.1945 -0.2956
   95MOL    O6817176   3.595   1.103   1.076 -0.0960 -0.0886 -0.4413
   95MOL    O6917177   3.488   1.233   0.919 -0.3343  0.0237  0.3925
   95MOL    H7017178   3.506   1.043   0.747 -2.8015 -0.4731  0.8621
   95MOL    H7117179   3.702   0.916   0.947  1.7551 -0.0083 -1.1930
   95MOL    H7217180   3.640   0.816   0.828  0.1152 -0.1075 -0.4072
   95MOL    H7317181   3.722   0.963   0.775 -0.6922  0.0180 -1.5708
   95MOL    C7417182   3.467   1.357   0.992  0.1080 -0.5260 -0.4245
   95MOL    C7517183   3.405   1.470   0.906  0.0973  0.3019 -0.4486
   95MOL    C7617184   3.585   1.396   1.095  0.4890 -0.1216 -0.0497
   95MOL    O7717185   3.699   1.398   1.057  0.3388 -0.2548  0.1441
   95MOL    O7817186   3.540   1.427   1.218  0.4795  0.0289 -0.3763
   95MOL    H7917187   3.395   1.331   1.069  0.3158 -1.4801 -0.5451
   95MOL    H8017188   3.309   1.427   0.880 -0.7730  2.9317 -1.8327
   95MOL    H8117189   3.374   1.549   0.975  1.8799 -0.9116  1.8038
   95MOL    H8217190   3.473   1.480   0.822  1.7328  0.8423  0.9074
   95MOL    C8317191   3.634   1.463   1.318  0.0811  0.4491  0.4180
   95MOL    C8417192   3.575   1.418   1.451  0.0346  0.2258  0.0682
   95MOL    C8517193   3.654   1.617   1.306 -0.4993  0.5881  0.0505
   95MOL    O8617194   3.590   1.692   1.228 -0.1682  0.2113 -0.2063
   95MOL    O8717195   3.754   1.647   1.379 -0.0790 -0.5382  0.0115
   95MOL    H8817196   3.730   1.415   1.303 -0.4786  0.0563 -2.2227
   95MOL    H8917197   3.646   1.424   1.533 -2.0188 -1.1504  1.9912
   95MOL    H9017198   3.487   1.472   1.485  1.1436  1.6507  0.7157
   95MOL    H9117199   3.547   1.313   1.452 -1.0209  0.4430 -2.5675
   95MOL    C9217200   3.802   1.783   1.383 -0.3594 -0.0680 -0.8531
   95MOL    C9317201   3.904   1.807   1.272  0.1310 -0.1051  0.8387
   95MOL    C9417202   3.853   1.820   1.524 -0.1584 -0.3843  0.2134
   95MOL    O9517203   3.814   1.913   1.587  0.6947 -0.5242 -0.4253
   95MOL    O9617204   3.951   1.738   1.555 -0.0602 -0.4186  0.0171
   95MOL    H9717205   3.713   1.843   1.367 -0.3507 -0.4041 -2.3093
   95MOL    H9817206   3.931   1.715   1.221 -1.1145 -0.9302  1.6436
   95MOL    H9917207   3.870   1.881   1.200  0.8309  1.6584  2.2876
   95MOL   H10017208   4.005   1.834   1.300 -0.4942  1.5490  1.5732
   95MOL   C10117209   4.007   1.732   1.691  0.4268 -0.0903  0.3541
   95MOL   C10217210   4.137   1.644   1.685  0.3485 -0.3203 -0.0232
   95MOL   C10317211   3.900   1.678   1.794  0.6791 -0.2941 -0.1415
   95MOL   O10417212   3.789   1.635   1.768  0.4513 -0.2986 -0.2253
   95MOL   O10517213   3.949   1.690   1.918 -0.0169 -0.2973  0.0485
   95MOL   H10617214   4.044   1.832   1.711 -0.7970  0.5531 -0.6085
   95MOL   H10717215   4.191   1.642   1.590  0.3347  1.0137 -0.0698
   95MOL   H10817216   4.202   1.673   1.768 -0.6498  2.2514 -0.0866
   95MOL   H10917217   4.117   1.538   1.698  1.8379 -0.3383  2.4549
   95MOL   C11017218   3.871   1.645   2.029 -0.6736  0.2119 -0.6849
   95MOL   C11117219   3.875   1.754   2.137 -0.4125 -0.6004  0.4163
   95MOL   C11217220   3.927   1.511   2.076  0.6178  0.0483  0.1281
   95MOL   O11317221   3.998   1.426   2.008 -0.1892  0.3185  0.7462
   95MOL   O11417222   3.882   1.476   2.198  0.1140 -0.5906 -0.2946
   95MOL   H11517223   3.769   1.627   1.995 -1.0598  1.2194 -0.0779
   95MOL   H11617224   3.977   1.787   2.157 -0.4898 -0.3005  0.3127
   95MOL   H11717225   3.828   1.843   2.096  0.5940 -0.3930 -0.3026
   95MOL   H11817226   3.825   1.720   2.228  1.0396 -1.5598  0.8779
   95MOL   C11917227   3.912   1.345   2.247 -0.0048  0.6103 -0.1417
   95MOL   C12017228   3.786   1.259   2.235 -0.7116  0.0642 -0.3371
   95MOL   C12117229   3.967   1.350   2.390  0.9233 -0.0772 -0.7495
   95MOL   O12217230   3.915   1.279   2.479 -0.3023 -0.0522 -0.4824
   95MOL   O12317231   4.079   1.426   2.406  0.4067  0.0180  0.0786
   95MOL   H12417232   3.996   1.302   2.192  0.7712  1.4351  0.3845
   95MOL   H12517233   3.708   1.300   2.300 -0.6934  1.5471 -1.2136
   95MOL   H12617234   3.756   1.249   2.130  0.1313  1.3492 -0.7093
   95MOL   H12717235   3.808   1.163   2.280 -0.7084 -0.0502 -0.5835
   95MOL   C12817236   4.140   1.445   2.538 -1.2473 -0.1029  0.5307
   95MOL   C12917237   4.261   1.541   2.540 -0.7268 -0.1335  0.9307
   95MOL   C13017238   4.167   1.315   2.613  0.0522  0.7021 -0.7313
   95MOL   O13117239   4.221   1.217   2.552 -0.3627  0.1393 -0.1728
   95MOL   O13217240   4.129   1.321   2.743 -0.2591  0.1883  0.0362
   95MOL   H13317241   4.067   1.487   2.607 -1.0120  1.8480 -0.3818
   95MOL   H13417242   4.247   1.644   2.505 -0.2886 -0.2547  0.3815
   95MOL   H13517243   4.280   1.557   2.646  0.4829  0.5996  0.6113
   95MOL   H13617244   4.351   1.496   2.499 -1.0874 -1.5970  1.7430
   95MOL   C13717245   4.119   1.209   2.832 -0.6642 -0.0830 -0.2962
   95MOL   C13817246   4.036   1.261   2.952 -0.3373 -0.5123  0.1840
   95MOL   C13917247   4.257   1.155   2.877 -0.6193 -0.0479  0.7869
   95MOL   O14017248   4.313   1.198   2.981  0.2190 -0.1262  0.1898
   95MOL   O14117249   4.300   1.052   2.803  0.8061 -0.1171 -0.6894
   95MOL   H14217250   4.065   1.140   2.767  0.1632 -0.5650 -0.4786
   95MOL   H14317251   3.952   1.317   2.911  0.6669  1.1945  0.3901
   95MOL   H14417252   4.000   1.179   3.013 -1.4316 -1.2466 -1.4122
   95MOL   H14517253   4.084   1.346   3.000  0.1141  0.7573 -2.3905
   95MOL   C14617254   4.409   0.971   2.852  0.1976 -0.2945 -0.9427
   95MOL   C14717255   4.537   1.042   2.824 -0.3843 -0.9354  0.2074
   95MOL   C14817256   4.398   0.835   2.788  0.3519 -1.1815 -0.4473
   95MOL   O14917257   4.399   0.732   2.863 -0.5707  0.2684 -0.3126
   95MOL   O15017258   4.380   0.835   2.653 -0.0579  0.4976 -0.3945
   95MOL   H15117259   4.387   0.957   2.958  0.2808 -0.2584 -0.9210
   95MOL   H15217260   4.581   1.014   2.728 -0.8742  1.4482 -0.7451
   95MOL   H15317261   4.526   1.150   2.829  0.0304 -0.9593  1.8285
   95MOL   H15417262   4.609   1.016   2.901 -1.8216 -0.9849  1.5684
   95MOL   C15517263   4.358   0.708   2.596 -0.4027 -0.5406  0.2314
   95MOL   C15617264   4.437   0.694   2.467  0.6039  0.2292 -0.1671
   95MOL   C15717265   4.207   0.698   2.563 -0.5911 -0.5118  0.1200
   95MOL   O15817266   4.134   0.607   2.604  0.8667  0.2020 -0.2434
   95MOL   O15917267   4.170   0.808   2.494 -0.0818  0.9949 -0.5493
   95MOL   H16017268   4.367   0.616   2.655 -1.5569 -0.1671  1.0165
   95MOL   H16117269   4.437   0.786   2.408  1.6098  0.9265  0.8878
   95MOL   H16217270   4.543   0.676   2.486  0.6814  1.2569  0.3902
   95MOL   H16317271   4.405   0.609   2.406  0.9370 -0.5230  0.7007
   95MOL   C16417272   4.030   0.828   2.468  0.6862  0.1246 -0.5653
   95MOL   C16517273   4.014   0.933   2.353 -0.1622  0.1619 -0.8168
   95MOL   C16617274   3.968   0.881   2.603  0.6272  0.3796  0.6985
   95MOL   O16717275   4.029   0.906   2.704  0.3864 -0.6738 -0.1236
   95MOL   O16817276   3.836   0.880   2.599 -0.0186 -0.1347  0.0255
   95MOL   H16917277   3.979   0.736   2.441  0.8549 -0.3084  0.5488
   95MOL   H17017278   4.104   0.993   2.339  0.2092  0.3004  1.9116
   95MOL   H17117279   3.994   0.884   2.257  2.0419 -1.2600 -0.5965
   95MOL   H17217280   3.933   1.004   2.370 -0.0133  0.1167  0.0965
   95MOL   C17317281   3.759   0.921   2.714  0.5120 -0.6326  0.5409
   95MOL   C17417282   3.620   0.851   2.724  0.8371 -0.2535  0.1297
   95MOL   C17517283   3.746   1.073   2.714  0.0626 -0.4572  0.4871
   95MOL   O17617284   3.800   1.150   2.792 -0.4569 -0.3957 -0.1111
   95MOL   O17717285   3.688   1.125   2.598 -0.8517 -0.6865 -0.1151
   95MOL   H17817286   3.810   0.893   2.806 -2.4355  0.4741  2.5560
   95MOL   H17917287   3.573   0.845   2.626 -2.8444  4.0241  1.4487
   95MOL   H18017288   3.619   0.750   2.764  1.5491  0.8623  3.0926
   95MOL   H18117289   3.561   0.912   2.793  0.2247 -1.1423  0.4004
   95MOL   H18217290   3.690   1.219   2.608  2.2561 -0.6398 -0.6712
   96MOL     C117291   5.907   0.378   6.314  0.1984 -0.3744  0.1740
   96MOL     C217292   5.855   0.521   6.345 -0.1771  0.0208  0.2463
   96MOL     C317293   5.805   0.274   6.297 -0.3318 -0.0460 -0.0120
   96MOL     O417294   5.685   0.295   6.325  0.3009  0.3218 -0.0408
   96MOL     O517295   5.855   0.158   6.240  0.0901  0.2252 -0.2915
   96MOL     H617296   5.973   0.382   6.227  2.4157 -0.6357  1.8008
   96MOL     H717297   5.785   0.567   6.276 -0.9408 -1.5582 -0.0639
   96MOL     H817298   5.814   0.527   6.445  0.8327  0.9816  0.6182
   96MOL     H917299   5.940   0.589   6.335  0.5059 -0.8381  0.0528
   96MOL    H1017300   5.990   0.342   6.374  0.4839 -0.9547 -0.5610
   96MOL    C1117301   5.763   0.060   6.201  0.4537  0.6484 -0.0466
   96MOL    C1217302   5.851   8.080   6.190 -0.3418 -0.0670  0.4809
   96MOL    C1317303   5.682   0.098   6.075 -0.1459 -0.4238  0.3063
   96MOL    O1417304   5.560   0.120   6.088 -0.3179  0.1440  0.0268
   96MOL    O1517305   5.766   0.102   5.965 -0.3702 -0.3577 -0.1522
   96MOL    H1617306   5.686   0.040   6.276  0.8733 -1.3966 -0.1332
   96MOL    H1717307   5.788   7.991   6.190 -0.9945  0.3973 -0.3690
   96MOL    H1817308   5.923   8.085   6.109 -0.2918 -2.4877  0.3360
   96MOL    H1917309   5.897   8.082   6.289  1.1517 -0.0045 -0.2131
   96MOL    C2017310   5.707   0.092   5.833 -0.2872  0.7380 -0.2214
   96MOL    C2117311   5.776   8.122   5.750  0.4556  0.4396  0.4603
   96MOL    C2217312   5.721   0.240   5.782  0.4038  0.3516 -0.4158
   96MOL    O2317313   5.751   0.262   5.671 -0.7511 -0.4695  0.0004
   96MOL    O2417314   5.688   0.329   5.872 -0.1415 -0.1426 -0.2095
   96MOL    H2517315   5.600   0.075   5.842 -0.0940 -0.0531  0.5913
   96MOL    H2617316   5.885   8.125   5.760  0.4721  0.4216  0.3001
   96MOL    H2717317   5.731   8.024   5.765  0.4556  0.6639  1.9392
   96MOL    H2817318   5.768   8.144   5.643  0.4128 -2.3611 -0.1762
   96MOL    C2917319   5.710   0.468   5.850 -0.2569 -0.6036 -0.7700
   96MOL    C3017320   5.825   0.520   5.942  0.1062  0.6983 -0.6494
   96MOL    C3117321   5.581   0.557   5.867 -0.4567 -0.0541  0.1074
   96MOL    O3217322   5.569   0.645   5.952 -0.3668 -0.0568 -0.2609
   96MOL    O3317323   5.481   0.522   5.780 -0.7604  0.2754 -0.3312
   96MOL    H3417324   5.747   0.487   5.750  0.7129 -3.7138 -1.0648
   96MOL    H3517325   5.824   0.626   5.963  3.8319  0.5083  0.7249
   96MOL    H3617326   5.816   0.474   6.041  4.3338 -0.8778 -0.8885
   96MOL    H3717327   5.923   0.486   5.910 -0.2805 -2.9530  1.6451
   96MOL    C3817328   5.355   0.586   5.807 -0.7587  0.9385  0.4465
   96MOL    C3917329   5.252   0.501   5.722  0.4463 -0.2803 -0.1935
   96MOL    C4017330   5.352   0.733   5.775  0.1701 -0.4413  0.7080
   96MOL    O4117331   5.430   0.791   5.701  0.3447 -0.0108 -0.6342
   96MOL    O4217332   5.268   0.803   5.853  0.1060  0.1441  0.1269
   96MOL    H4317333   5.326   0.561   5.910 -1.1090  0.4264  0.2288
   96MOL    H4417334   5.263   0.508   5.613 -0.2087 -1.1526 -0.3149
   96MOL    H4517335   5.271   0.395   5.742  2.2554  0.1765  0.6162
   96MOL    H4617336   5.155   0.530   5.761  0.7975  0.8169 -0.1201
   96MOL    C4717337   5.239   0.940   5.839  0.4427  0.6760 -0.0675
   96MOL    C4817338   5.151   0.960   5.716 -0.0414 -0.6035 -0.3451
   96MOL    C4917339   5.364   1.037   5.840  0.3727  0.4190 -0.4423
   96MOL    O5017340   5.361   1.147   5.790  0.7911  0.0299 -0.6331
   96MOL    O5117341   5.466   0.988   5.912 -0.0961 -0.1199 -0.0233
   96MOL    H5217342   5.188   0.968   5.931  1.8101 -1.6446  1.4443
   96MOL    H5317343   5.133   1.067   5.705 -0.3776 -0.9092 -3.0876
   96MOL    H5417344   5.209   0.928   5.629  0.0446 -0.4527 -0.3433
   96MOL    H5517345   5.059   0.903   5.730 -0.7681  0.5167 -0.4452
   96MOL    C5617346   5.591   1.057   5.914 -0.5498  0.5310 -0.6836
   96MOL    C5717347   5.689   0.968   5.837  0.7638 -0.9762 -0.2780
   96MOL    C5817348   5.632   1.089   6.057  0.1873  0.3952 -0.1863
   96MOL    O5917349   5.724   1.031   6.112 -0.2598  0.2030 -0.1333
   96MOL    O6017350   5.548   1.177   6.112  0.0887  0.2188  0.1166
   96MOL    H6117351   5.599   1.153   5.862 -2.1713  0.5765 -0.8726
   96MOL    H6217352   5.653   0.962   5.735 -1.9774 -0.0808  0.5909
   96MOL    H6317353   5.790   1.010   5.840 -0.1886  1.3840 -0.2601
   96MOL    H6417354   5.687   0.870   5.884 -0.9574 -0.0238  1.7063
   96MOL    C6517355   5.562   1.229   6.239  0.1534 -0.0395  0.2466
   96MOL    C6617356   5.423   1.273   6.289  0.2665 -0.0265  0.3325
   96MOL    C6717357   5.658   1.350   6.235  0.8133  0.3555  0.0456
   96MOL    O6817358   5.620   1.462   6.256 -0.0197 -0.0463 -0.4307
   96MOL    O6917359   5.779   1.318   6.191 -1.1422  0.4100  0.1838
   96MOL    H7017360   5.602   1.158   6.311  1.4296 -0.1425 -0.5378
   96MOL    H7117361   5.354   1.305   6.211 -0.7519  2.4249  2.1470
   96MOL    H7217362   5.364   1.195   6.338  0.5705 -0.5581 -0.1504
   96MOL    H7317363   5.427   1.350   6.367  2.3530  0.0837  0.1388
   96MOL    C7417364   5.877   1.414   6.160 -0.5028 -0.0195  0.4994
   96MOL    C7517365   5.924   1.492   6.282  0.4297 -0.1493  0.1397
   96MOL    C7617366   5.847   1.501   6.040  1.0066 -0.3672 -0.5784
   96MOL    O7717367   5.879   1.620   6.028  0.0085 -0.4602  0.1151
   96MOL    O7817368   5.813   1.429   5.941 -0.2863 -0.0759 -0.3887
   96MOL    H7917369   5.958   1.350   6.123 -0.7056 -1.8130  3.0682
   96MOL    H8017370   6.017   1.542   6.254 -0.2878  1.2660  0.2581
   96MOL    H8117371   5.849   1.566   6.310 -1.6847 -1.0061 -3.1089
   96MOL    H8217372   5.932   1.421   6.365  4.5578  0.1406  0.1072
   96MOL    C8317373   5.807   1.487   5.815 -0.5822 -0.0549 -0.0998
   96MOL    C8417374   5.660   1.523   5.801  0.2180 -0.2625  0.0396
   96MOL    C8517375   5.842   1.374   5.712 -0.4765  0.2377  0.0918
   96MOL    O8617376   5.905   1.275   5.748 -0.3424 -0.2784  0.0310
   96MOL    O8717377   5.802   1.406   5.587 -0.5223  0.1503 -0.5635
   96MOL    H8817378   5.857   1.583   5.797 -1.5549  0.3271 -0.8136
   96MOL    H8917379   5.592   1.438   5.800  0.6843 -0.6561 -2.1336
   96MOL    H9017380   5.625   1.589   5.880  1.1214 -0.5054  0.6495
   96MOL    H9117381   5.640   1.571   5.705 -1.9058  0.4554  0.8125
   96MOL    C9217382   5.823   1.309   5.489 -0.0213 -0.5560  0.0556
   96MOL    C9317383   5.807   1.392   5.365  0.1587  0.2256 -0.0022
   96MOL    C9417384   5.707   1.204   5.485 -0.2072 -0.1026  0.0546
   96MOL    O9517385   5.610   1.210   5.565  0.0554  0.1154 -0.2086
   96MOL    O9617386   5.723   1.107   5.378 -0.0273  0.2618  0.6250
   96MOL    H9717387   5.925   1.271   5.488 -0.1804 -1.0440  1.4535
   96MOL    H9817388   5.881   1.472   5.373  0.3646  0.1487 -1.0632
   96MOL    H9917389   5.834   1.341   5.272 -0.1061  0.6916 -0.3419
   96MOL   H10017390   5.707   1.434   5.354  0.6451  1.3649 -0.1659
   96MOL   C10117391   5.630   0.995   5.368 -0.3079  0.3539 -0.0855
   96MOL   C10217392   5.683   0.907   5.246 -0.0738  0.8129  0.9579
   96MOL   C10317393   5.491   1.045   5.339 -1.0583 -0.2611  0.0887
   96MOL   O10417394   5.409   1.031   5.426  0.0518  0.3394  0.2666
   96MOL   O10517395   5.476   1.097   5.217 -0.4903  0.1634 -0.0321
   96MOL   H10617396   5.639   0.941   5.462  1.4140  0.3046 -0.2629
   96MOL   H10717397   5.781   0.864   5.264 -0.3568 -0.4727 -0.4503
   96MOL   H10817398   5.617   0.826   5.214  1.6413 -0.8762  1.6742
   96MOL   H10917399   5.697   0.969   5.157  0.4213 -0.5193  0.0987
   96MOL   C11017400   5.355   1.165   5.182 -0.3476 -0.2148  0.1250
   96MOL   C11117401   5.311   1.130   5.046  0.4385 -0.3973 -0.1208
   96MOL   C11217402   5.383   1.320   5.187  0.8085 -0.1827 -0.2570
   96MOL   O11317403   5.489   1.372   5.220 -0.2111 -0.2313  0.1731
   96MOL   O11417404   5.267   1.389   5.194 -0.2205 -0.1097  0.3755
   96MOL   H11517405   5.272   1.143   5.249 -1.1815  2.4699  0.0512
   96MOL   H11617406   5.240   1.202   5.005  1.1760  0.6698  0.4815
   96MOL   H11717407   5.396   1.134   4.978  0.2669 -0.5402 -0.3441
   96MOL   H11817408   5.260   1.033   5.048  2.2701 -1.4070 -0.9785
   96MOL   C11917409   5.247   1.531   5.208  0.3023  0.6242 -0.4858
   96MOL   C12017410   5.114   1.581   5.142 -0.8891  0.6088  0.0467
   96MOL   C12117411   5.363   1.618   5.166 -0.4901 -0.3545  0.2495
   96MOL   O12217412   5.410   1.623   5.046  0.2287  0.3052 -0.2612
   96MOL   O12317413   5.411   1.677   5.274 -0.0736  0.1210  0.7214
   96MOL   H12417414   5.232   1.557   5.313  2.6027 -1.3393  0.3756
   96MOL   H12517415   5.106   1.551   5.037  2.3699 -1.6378  0.3719
   96MOL   H12617416   5.028   1.532   5.186 -0.4177 -0.6910 -0.4458
   96MOL   H12717417   5.107   1.689   5.150 -0.5718  0.6773 -0.5253
   96MOL   C12817418   5.536   1.745   5.284 -0.5451  0.1888 -0.3545
   96MOL   C12917419   5.568   1.765   5.439  0.2449  0.7859  0.3192
   96MOL   C13017420   5.538   1.881   5.212 -0.6543  0.4680 -1.1229
   96MOL   O13117421   5.611   1.907   5.113 -0.1777  0.0297 -0.1951
   96MOL   O13217422   5.445   1.969   5.258  0.5243  0.0108  0.8161
   96MOL   H13317423   5.619   1.688   5.242 -0.7324 -0.6547  0.3929
   96MOL   H13417424   5.524   1.850   5.491  0.7709  1.6003 -0.5480
   96MOL   H13517425   5.548   1.677   5.500  1.2106  0.2379 -0.1438
   96MOL   H13617426   5.673   1.794   5.441  0.5153  0.4375 -3.9719
   96MOL   C13717427   5.439   2.099   5.205 -0.1598 -0.3192  0.0973
   96MOL   C13817428   5.342   2.185   5.296  0.7802 -0.2329  0.0556
   96MOL   C13917429   5.390   2.106   5.058 -0.0650 -0.2421  0.2385
   96MOL   O14017430   5.327   2.016   5.004  0.1588 -0.2514 -0.1240
   96MOL   O14117431   5.411   2.229   4.999 -0.0260  0.0126  0.0108
   96MOL   H14217432   5.538   2.145   5.206  0.2081 -1.1133  0.3532
   96MOL   H14317433   5.241   2.157   5.266  1.3938 -1.7116 -0.6818
   96MOL   H14417434   5.356   2.163   5.401  0.2012 -1.0472 -0.0348
   96MOL   H14517435   5.363   2.291   5.281 -0.4059  0.2492  1.7543
   96MOL   C14617436   5.359   2.272   4.871 -0.5358  0.7836  0.3109
   96MOL   C14717437   5.417   2.399   4.814 -0.4395  0.3197 -0.3749
   96MOL   C14817438   5.207   2.272   4.868  0.2101 -0.0809  0.4627
   96MOL   O14917439   5.138   2.250   4.771  0.1397 -0.1160 -0.0457
   96MOL   O15017440   5.155   2.306   4.986  0.0634 -0.2515  0.2732
   96MOL   H15117441   5.391   2.197   4.798  1.4305  0.2947  1.6369
   96MOL   H15217442   5.388   2.424   4.712  4.0646 -0.7701 -2.0371
   96MOL   H15317443   5.379   2.479   4.877  1.7719 -0.7456  2.3979
   96MOL   H15417444   5.525   2.405   4.821 -0.5188  2.1397 -0.3035
   96MOL   C15517445   5.018   2.304   5.016  0.4583 -0.5175  0.2031
   96MOL   C15617446   4.983   2.418   5.113  0.2914  0.5326 -0.1768
   96MOL   C15717447   4.991   2.166   5.075  0.0665 -0.0943 -0.1591
   96MOL   O15817448   4.975   2.146   5.196 -0.6976  0.4315 -0.4333
   96MOL   O15917449   5.006   2.067   4.986 -0.2872  0.4231 -0.4767
   96MOL   H16017450   4.950   2.324   4.933  1.4075  0.4418 -0.3555
   96MOL   H16117451   5.027   2.511   5.076 -0.8424  1.0008 -0.3768
   96MOL   H16217452   4.878   2.446   5.117  0.0475 -0.4970  1.0581
   96MOL   H16317453   5.015   2.393   5.215 -0.0419 -1.8317 -0.6192
   96MOL   C16417454   5.017   1.932   5.022 -0.6701 -0.2578  0.2100
   96MOL   C16517455   5.088   1.858   4.911 -0.0647  0.1502  1.0474
   96MOL   C16617456   4.878   1.875   5.038  0.0235  0.0979 -0.3536
   96MOL   O16717457   4.779   1.928   4.988 -0.2976  0.2076 -0.1389
   96MOL   O16817458   4.869   1.760   5.113  0.0356  0.0119 -0.8426
   96MOL   H16917459   5.076   1.917   5.112  0.2301  0.3543 -0.2716
   96MOL   H17017460   5.018   1.806   4.846 -0.7730  2.1972  0.1480
   96MOL   H17117461   5.142   1.934   4.854 -0.3754 -1.0996 -0.9594
   96MOL   H17217462   5.163   1.784   4.941  1.0219  0.9956  0.4705
   96MOL   C17317463   4.746   1.694   5.131  0.4380  0.0814  0.4341
   96MOL   C17417464   4.736   1.653   5.281  0.2691 -0.6018  0.6778
   96MOL   C17517465   4.745   1.567   5.047 -0.2046  0.4165 -0.1435
   96MOL   O17617466   4.729   1.457   5.092 -0.2473  1.5509  0.2946
   96MOL   O17717467   4.774   1.596   4.914 -1.2350 -0.6243  0.1926
   96MOL   H17817468   4.659   1.751   5.099  0.8503 -1.3985 -3.5789
   96MOL   H17917469   4.651   1.586   5.298  0.3052 -1.5568 -2.6405
   96MOL   H18017470   4.826   1.599   5.311 -0.2454 -2.8919 -1.7105
   96MOL   H18117471   4.718   1.734   5.352 -1.5064  0.6284 -1.1271
   96MOL   H18217472   4.759   1.526   4.853 -1.1156 -0.0157 -0.5476
   97MOL     C117473   6.739   3.888   2.887 -1.4725  0.2697  0.7277
   97MOL     C217474   6.685   4.023   2.941  0.0057 -0.0347 -0.0800
   97MOL     C317475   6.635   3.791   2.843  0.0951  0.5289  0.1186
   97MOL     O417476   6.636   3.736   2.733  0.0359  0.0831  0.1491
   97MOL     O517477   6.543   3.777   2.934 -0.3660 -0.7489 -0.1285
   97MOL     H617478   6.810   3.902   2.805 -0.6731 -1.8099  1.0342
   97MOL     H717479   6.596   4.049   2.883  0.0883 -1.1303 -0.7163
   97MOL     H817480   6.641   4.016   3.040  0.6274 -0.6065  0.1553
   97MOL     H917481   6.756   4.105   2.955 -0.4449  0.2984  0.2863
   97MOL    H1017482   6.801   3.847   2.966  0.5918 -0.0546 -1.0117
   97MOL    C1117483   6.435   3.686   2.909  0.6650 -0.8019 -0.4243
   97MOL    C1217484   6.324   3.722   3.012 -0.8043 -0.3917 -0.1816
   97MOL    C1317485   6.478   3.541   2.916 -0.1104  0.5541  0.4415
   97MOL    O1417486   6.457   3.468   3.015 -0.4990  0.3495 -0.8415
   97MOL    O1517487   6.544   3.493   2.807 -0.3011  0.0477  0.0284
   97MOL    H1617488   6.385   3.709   2.815 -1.8266 -1.6103  0.6779
   97MOL    H1717489   6.242   3.651   2.998  1.2399 -3.1179  1.0707
   97MOL    H1817490   6.359   3.724   3.115  1.8780  3.5165 -1.0623
   97MOL    H1917491   6.277   3.812   2.973 -1.4167  0.4732  2.4494
   97MOL    C2017492   6.602   3.360   2.793  0.1976  0.2097  0.7060
   97MOL    C2117493   6.694   3.367   2.670 -0.5745  0.1035 -0.0379
   97MOL    C2217494   6.503   3.242   2.790  1.1245 -0.1605  0.4997
   97MOL    O2317495   6.416   3.235   2.703  0.3860  0.3412  0.4964
   97MOL    O2417496   6.515   3.156   2.888 -0.8032  0.3435  0.2627
   97MOL    H2517497   6.657   3.346   2.886  0.2700  1.5522  0.8795
   97MOL    H2617498   6.633   3.392   2.583 -0.6499  2.5085  0.6625
   97MOL    H2717499   6.754   3.458   2.664 -0.6720  0.1542 -0.2480
   97MOL    H2817500   6.748   3.278   2.638  0.2505  0.8972 -0.9070
   97MOL    C2917501   6.442   3.041   2.895  0.5907  0.1959  0.0748
   97MOL    C3017502   6.457   3.002   3.046 -0.0317  0.2698 -0.1542
   97MOL    C3117503   6.491   2.937   2.795  0.1732  0.0923 -0.0598
   97MOL    O3217504   6.464   2.951   2.677  0.1509 -0.0450 -0.6130
   97MOL    O3317505   6.570   2.840   2.849 -0.1325  0.5155 -0.3318
   97MOL    H3417506   6.336   3.054   2.871 -0.2701 -4.2430  1.0058
   97MOL    H3517507   6.391   2.917   3.062 -1.2123  1.1780 -0.1287
   97MOL    H3617508   6.550   2.955   3.080  0.5035  1.0533 -0.5180
   97MOL    H3717509   6.409   3.073   3.113 -0.0851  1.8526 -1.8271
   97MOL    C3817510   6.641   2.741   2.767 -0.7177  0.4570  0.5249
   97MOL    C3917511   6.711   2.644   2.861 -0.6854  0.6193 -0.1655
   97MOL    C4017512   6.744   2.804   2.669  0.9120 -0.5367 -0.0154
   97MOL    O4117513   6.783   2.921   2.687  0.6458 -0.6833  0.3415
   97MOL    O4217514   6.790   2.711   2.574 -0.2772 -0.5170  0.2487
   97MOL    H4317515   6.567   2.690   2.705  0.7637 -1.6778  0.4752
   97MOL    H4417516   6.796   2.601   2.808 -0.4762  1.6268 -0.6723
   97MOL    H4517517   6.752   2.698   2.946 -1.6723  0.5958  0.3286
   97MOL    H4617518   6.631   2.577   2.891  1.7231 -1.3767  1.9056
   97MOL    C4717519   6.896   2.749   2.478 -0.5535  1.1517  0.2473
   97MOL    C4817520   6.919   2.617   2.408 -0.6851  0.3677  0.3274
   97MOL    C4917521   7.026   2.788   2.549 -0.6640 -0.2806  0.1097
   97MOL    O5017522   7.053   2.744   2.662 -0.1829  0.4519 -0.1524
   97MOL    O5117523   7.108   2.862   2.473  0.0764 -0.2032 -0.2794
   97MOL    H5217524   6.866   2.830   2.412  1.8587  2.8405  1.1700
   97MOL    H5317525   6.857   2.602   2.319  0.1547  0.4402 -0.2794
   97MOL    H5417526   7.021   2.606   2.370 -1.4613 -2.6430 -0.9983
   97MOL    H5517527   6.925   2.528   2.471  1.1090 -0.9078 -1.5638
   97MOL    C5617528   7.238   2.908   2.522  0.0604  0.0012 -0.0781
   97MOL    C5717529   7.276   3.039   2.444 -0.0012  0.4623 -0.6787
   97MOL    C5817530   7.333   2.792   2.508 -0.1042 -0.2765  0.4427
   97MOL    O5917531   7.300   2.686   2.450  0.2351 -0.1505  0.5635
   97MOL    O6017532   7.454   2.821   2.553  0.0975 -0.3397  0.2445
   97MOL    H6117533   7.232   2.937   2.627  0.6878  0.4788 -0.1729
   97MOL    H6217534   7.341   3.112   2.492  0.3350  0.3938 -1.0312
   97MOL    H6317535   7.305   3.011   2.343  0.0931  1.1934 -0.8549
   97MOL    H6417536   7.186   3.096   2.425  0.4875  0.6177 -2.5902
   97MOL    C6517537   7.565   2.736   2.545 -0.4650  0.4483  0.3502
   97MOL    C6617538   7.688   2.806   2.615  0.7106  0.3636  0.2493
   97MOL    C6717539   7.603   2.701   2.405  0.3620 -0.4254 -0.0826
   97MOL    O6817540   7.557   2.766   2.309  0.4163 -0.3916  0.4731
   97MOL    O6917541   7.684   2.590   2.400  0.3755 -0.9529  0.6074
   97MOL    H7017542   7.531   2.648   2.600 -1.0870 -0.3104 -1.2008
   97MOL    H7117543   7.723   2.895   2.562 -1.5117  2.0710  1.5590
   97MOL    H7217544   7.670   2.831   2.719 -0.5418 -1.2708  0.4417
   97MOL    H7317545   7.776   2.743   2.607  0.1375 -0.1562 -2.7663
   97MOL    C7417546   7.696   2.509   2.284  0.1591  0.3051 -0.3802
   97MOL    C7517547   7.805   2.548   2.184  0.8506  0.3167  0.2204
   97MOL    C7617548   7.560   2.466   2.229  0.0478  0.1127 -0.2016
   97MOL    O7717549   7.525   2.497   2.118  0.9851 -0.1848  0.0352
   97MOL    O7817550   7.479   2.417   2.327  0.1004  0.0008 -0.2204
   97MOL    H7917551   7.735   2.419   2.329 -1.8919 -0.4259  0.0168
   97MOL    H8017552   7.904   2.526   2.224  0.1483 -2.4205  0.6108
   97MOL    H8117553   7.798   2.488   2.093 -0.1524  0.8341 -0.0524
   97MOL    H8217554   7.798   2.652   2.153 -2.1422 -0.6569 -2.7403
   97MOL    C8317555   7.343   2.374   2.301  0.6037  0.3279  0.3209
   97MOL    C8417556   7.264   2.360   2.426 -0.1743 -0.2534 -0.1575
   97MOL    C8517557   7.338   2.238   2.225 -0.1987  0.1303 -0.1897
   97MOL    O8617558   7.437   2.170   2.211  0.1276 -0.2873  0.3060
   97MOL    O8717559   7.218   2.220   2.175 -0.1145  0.2409 -0.3722
   97MOL    H8817560   7.295   2.451   2.240 -0.7498 -2.2660 -1.9861
   97MOL    H8917561   7.305   2.283   2.492 -0.8370 -0.3687  0.1141
   97MOL    H9017562   7.283   2.451   2.483  1.2357 -1.2972  1.0905
   97MOL    H9117563   7.157   2.352   2.413 -0.5147  0.9799  1.7583
   97MOL    C9217564   7.172   2.099   2.110  0.3233  0.8187 -0.5743
   97MOL    C9317565   7.065   2.149   2.009 -0.0065 -0.4376  0.1979
   97MOL    C9417566   7.112   1.994   2.210 -0.3907 -0.3664  0.0904
   97MOL    O9517567   7.087   1.880   2.178  0.2966  0.2814 -0.4844
   97MOL    O9617568   7.096   2.045   2.334 -0.1040  0.0650 -0.0025
   97MOL    H9717569   7.255   2.054   2.056 -0.5165 -0.3946 -0.8722
   97MOL    H9817570   7.005   2.221   2.064 -1.3695  0.0306 -1.8519
   97MOL    H9917571   7.118   2.193   1.924  1.4700 -2.9553 -0.2531
   97MOL   H10017572   6.995   2.077   1.968 -0.0434 -1.1190  1.4317
   97MOL   C10117573   7.062   1.954   2.443  0.2506  1.2794  0.1945
   97MOL   C10217574   7.010   2.038   2.555  0.4712  0.7849  1.0808
   97MOL   C10317575   7.190   1.871   2.473  0.6455  0.1676  0.0631
   97MOL   O10417576   7.192   1.749   2.471 -0.2976 -0.1725 -0.1637
   97MOL   O10517577   7.294   1.946   2.493 -0.0532  0.2066  0.1161
   97MOL   H10617578   6.988   1.876   2.421  0.3199  1.7652 -1.9250
   97MOL   H10717579   7.093   2.082   2.610  0.3370  2.8458 -0.3100
   97MOL   H10817580   6.952   2.120   2.513 -0.4255  0.1205  1.0030
   97MOL   H10917581   6.947   1.977   2.620  2.9995 -1.4462  1.5114
   97MOL   C11017582   7.429   1.895   2.494 -0.1555  0.3145  0.1168
   97MOL   C11117583   7.513   1.992   2.577  0.4182  0.3723 -0.0496
   97MOL   C11217584   7.486   1.880   2.351  0.4486 -0.2063  0.2573
   97MOL   O11317585   7.413   1.896   2.257  0.5140  0.7886  0.1296
   97MOL   O11417586   7.614   1.854   2.340  0.2758 -0.3619 -0.3670
   97MOL   H11517587   7.438   1.800   2.546 -0.0042  1.1042  1.5396
   97MOL   H11617588   7.471   2.000   2.677  0.6149 -0.5626  0.1161
   97MOL   H11717589   7.613   1.953   2.591  0.9919  1.7076 -0.3168
   97MOL   H11817590   7.531   2.085   2.522 -0.4651 -1.2021 -3.1124
   97MOL   C11917591   7.682   1.875   2.217 -0.4889  0.2492 -0.2493
   97MOL   C12017592   7.798   1.773   2.216 -0.2154  0.6226 -0.1126
   97MOL   C12117593   7.740   2.017   2.210  0.6014 -0.7906 -0.6299
   97MOL   O12217594   7.765   2.079   2.309 -0.1033  0.0659 -0.4689
   97MOL   O12317595   7.767   2.057   2.086 -0.3225  0.6665 -0.0941
   97MOL   H12417596   7.621   1.865   2.127  0.3839  1.3245 -0.9761
   97MOL   H12517597   7.878   1.805   2.150 -0.2697  1.0214  0.0106
   97MOL   H12617598   7.831   1.762   2.319 -1.1958 -0.5574  0.0894
   97MOL   H12717599   7.757   1.678   2.180 -1.5571  1.2227 -0.2011
   97MOL   C12817600   7.808   2.187   2.056  0.7614  0.4830 -0.2237
   97MOL   C12917601   7.765   2.211   1.909  0.3304 -0.4784 -0.0522
   97MOL   C13017602   7.962   2.199   2.062  0.6547 -0.2303  0.4532
   97MOL   O13117603   8.035   2.104   2.087  0.1611 -0.3430 -0.3282
   97MOL   O13217604   7.991   2.330   2.039  0.4046 -0.7990  0.0611
   97MOL   H13317605   7.763   2.261   2.122 -0.8822 -0.1572 -0.6064
   97MOL   H13417606   7.752   2.118   1.853  0.0798 -0.1569 -0.5259
   97MOL   H13517607   7.665   2.254   1.914  1.3524  1.8739  1.2477
   97MOL   H13617608   7.835   2.264   1.845  1.2808 -1.9171 -0.2154
   97MOL   C13717609   8.123   2.389   2.052  0.8377 -0.4087 -0.8910
   97MOL   C13817610   8.118   2.542   2.009 -0.1084  0.3079  0.2069
   97MOL   C13917611   0.086   2.326   1.971 -0.5104 -0.4060 -0.8622
   97MOL   O14017612   0.065   2.280   1.860 -0.2430  0.0438  0.4503
   97MOL   O14117613   0.205   2.346   2.040 -0.1956  0.7650 -0.5431
   97MOL   H14217614   0.002   2.384   2.158  0.6605  0.2670 -0.8074
   97MOL   H14317615   8.064   2.600   2.084  0.4405  0.5894  0.3879
   97MOL   H14417616   0.069   2.587   1.994 -1.4321  2.6921 -1.7539
   97MOL   H14517617   8.060   2.549   1.917 -1.3661 -0.5308  0.9238
   97MOL   C14617618   0.336   2.339   1.977 -0.2592  0.6523  0.5462
   97MOL   C14717619   0.438   2.358   2.081  0.3928 -0.4807 -0.2260
   97MOL   C14817620   0.354   2.452   1.870 -0.4129  0.5838  0.1603
   97MOL   O14917621   0.272   2.540   1.845 -0.4486  0.7700  0.1117
   97MOL   O15017622   0.479   2.435   1.808  0.4171 -0.6108 -0.4434
   97MOL   H15117623   0.345   2.237   1.941 -3.5394  0.2509  0.7485
   97MOL   H15217624   0.443   2.267   2.140 -1.2595 -0.6101 -0.2832
   97MOL   H15317625   0.534   2.389   2.039 -2.1052  0.6854 -5.6093
   97MOL   H15417626   0.409   2.440   2.146  0.0584  0.8065 -1.9466
   97MOL   C15517627   0.519   2.511   1.702 -0.0705  0.0100 -0.5841
   97MOL   C15617628   0.637   2.442   1.631  0.4419  0.3318  0.1917
   97MOL   C15717629   0.565   2.646   1.750 -0.2381 -0.3644 -0.4088
   97MOL   O15817630   0.557   2.744   1.672 -0.4479 -0.2583 -0.4850
   97MOL   O15917631   0.636   2.646   1.866  0.2086  0.2483  0.0238
   97MOL   H16017632   0.437   2.528   1.633  2.0199  1.7541 -2.7406
   97MOL   H16117633   0.664   2.500   1.542  2.6741  1.2670  1.4395
   97MOL   H16217634   0.717   2.420   1.702 -0.7350 -1.2818  1.0488
   97MOL   H16317635   0.609   2.344   1.593 -1.1509  0.8362  0.0177
   97MOL   C16417636   0.689   2.770   1.918  0.2566  1.2031 -0.1790
   97MOL   C16517637   0.779   2.733   2.036 -0.0676  0.8568  0.3372
   97MOL   C16617638   0.582   2.864   1.972  0.6918  0.5303 -0.0492
   97MOL   O16717639   0.566   2.971   1.915  0.1372 -0.2983 -0.8358
   97MOL   O16817640   0.515   2.811   2.072 -0.2259 -0.3427  0.0989
   97MOL   H16917641   0.748   2.827   1.846  1.6619  0.1015  0.0658
   97MOL   H17017642   0.722   2.675   2.108  0.6112 -0.2659 -0.0252
   97MOL   H17117643   0.866   2.682   1.996 -0.5656 -0.2727  0.6817
   97MOL   H17217644   0.815   2.822   2.088  1.5361  0.9327 -0.8773
   97MOL   C17317645   0.410   2.878   2.139 -0.5393 -0.2416 -0.8947
   97MOL   C17417646   0.457   2.933   2.271  0.4596 -0.2287 -0.1933
   97MOL   C17517647   0.296   2.774   2.171 -0.0295  0.1803 -0.0370
   97MOL   O17617648   0.180   2.784   2.125  0.3061  0.4804 -0.0864
   97MOL   O17717649   0.345   2.665   2.234  0.6936  0.0785  0.4103
   97MOL   H17817650   0.370   2.963   2.084  1.3536  0.4316 -1.2435
   97MOL   H17917651   0.377   2.946   2.344 -1.8535 -2.7468 -2.1750
   97MOL   H18017652   0.526   2.868   2.325  0.8960  0.3688 -0.0302
   97MOL   H18117653   0.495   3.034   2.258 -2.1599  0.8382  0.1507
   97MOL   H18217654   0.269   2.609   2.242  1.5444 -1.1130  0.1554
   98MOL     C117655   5.845   0.454   1.117 -0.0196 -0.0061 -0.2946
   98MOL     C217656   5.852   0.570   1.220 -0.5697 -0.1706 -0.2302
   98MOL     C317657   5.983   0.430   1.041 -0.3423 -0.2536 -0.4957
   98MOL     O417658   6.020   0.320   1.033  0.5312  0.0173  0.0811
   98MOL     O517659   6.040   0.541   0.986  0.0964 -0.1112  0.0774
   98MOL     H617660   5.813   0.362   1.164  1.5701 -0.0666  0.7238
   98MOL     H717661   5.910   0.656   1.187  0.8532 -1.0160  0.0235
   98MOL     H817662   5.757   0.621   1.229 -0.2949  0.0206  1.7933
   98MOL     H917663   5.900   0.526   1.308 -1.5953 -2.1947 -0.6602
   98MOL    H1017664   5.774   0.487   1.041  0.8561  1.8921 -0.3359
   98MOL    C1117665   6.162   0.528   0.907  0.0663 -0.5804 -0.1495
   98MOL    C1217666   6.215   0.670   0.887  0.3137  0.4827  0.6923
   98MOL    C1317667   6.123   0.467   0.769 -0.1540  0.2460  0.6150
   98MOL    O1417668   6.193   0.381   0.709 -0.5475  0.2736 -0.2373
   98MOL    O1517669   6.010   0.523   0.728 -0.0153 -0.1823 -0.4320
   98MOL    H1617670   6.239   0.474   0.963  1.4383  2.1624  0.6577
   98MOL    H1717671   6.313   0.671   0.841  1.5471  2.2714  3.2457
   98MOL    H1817672   6.144   0.736   0.836  2.0894  2.6085  0.9113
   98MOL    H1917673   6.239   0.730   0.975 -1.0741  0.4333  1.1181
   98MOL    C2017674   5.948   0.488   0.601 -0.2821  0.1122 -0.4289
   98MOL    C2117675   5.875   0.353   0.591  0.9094  0.1734  0.3270
   98MOL    C2217676   6.049   0.530   0.486 -0.3065 -0.6785  0.2640
   98MOL    O2317677   6.064   0.459   0.387  0.9790  0.0665 -0.0581
   98MOL    O2417678   6.104   0.656   0.509  0.2370  0.4208 -0.6305
   98MOL    H2517679   5.867   0.561   0.595 -0.0654  0.2920 -1.1828
   98MOL    H2617680   5.774   0.376   0.557  0.7778 -1.2909 -0.3361
   98MOL    H2717681   5.925   0.292   0.516  1.8434  1.6477 -0.2550
   98MOL    H2817682   5.858   0.296   0.683 -0.4894  1.3174  0.7953
   98MOL    C2917683   6.188   0.730   0.420 -0.3513 -0.5482  0.1618
   98MOL    C3017684   6.338   0.683   0.427 -0.1984  0.4133 -0.7734
   98MOL    C3117685   6.176   0.881   0.462  0.2316  0.8578  0.6588
   98MOL    O3217686   6.141   0.966   0.379  0.5229 -0.4362  0.3702
   98MOL    O3317687   6.199   0.900   0.592 -0.2680 -0.0725 -0.6374
   98MOL    H3417688   6.152   0.726   0.318  1.0425  3.0120 -0.5567
   98MOL    H3517689   6.353   0.584   0.385  0.5821  0.6016 -0.9557
   98MOL    H3617690   6.407   0.746   0.370  0.8190  0.7281  0.7838
   98MOL    H3717691   6.381   0.692   0.526  0.3820  2.3805 -1.1723
   98MOL    C3817692   6.194   1.032   0.648 -0.0842  0.1829  0.4929
   98MOL    C3917693   6.316   1.053   0.742  0.3130  0.7275 -0.1184
   98MOL    C4017694   6.057   1.052   0.715 -0.0479  0.3523 -0.1950
   98MOL    O4117695   5.997   1.160   0.710  0.1894  0.0570 -0.0905
   98MOL    O4217696   6.025   0.953   0.797 -0.1256 -0.1395 -0.0072
   98MOL    H4317697   6.202   1.108   0.570  2.9715 -0.9512 -0.4066
   98MOL    H4417698   6.407   1.079   0.690 -0.0480  0.6572 -0.7881
   98MOL    H4517699   6.300   1.134   0.813 -0.0850 -2.0515  3.1095
   98MOL    H4617700   6.335   0.964   0.803  2.6685  1.4646  0.2505
   98MOL    C4717701   5.894   0.931   0.850 -0.2612 -0.1296  0.1194
   98MOL    C4817702   5.909   0.859   0.983 -0.2170  0.1806 -0.3438
   98MOL    C4917703   5.807   0.848   0.758  0.2130  0.0129  0.5609
   98MOL    O5017704   5.843   0.822   0.648  0.4888 -0.2886  0.0622
   98MOL    O5117705   5.691   0.812   0.817 -0.3482  0.6761 -0.2344
   98MOL    H5217706   5.847   1.027   0.868 -0.5078 -0.3104  0.4533
   98MOL    H5317707   5.992   0.898   1.041 -1.6711  2.7493  0.1007
   98MOL    H5417708   5.821   0.860   1.048 -1.1878  2.8488 -1.5857
   98MOL    H5517709   5.933   0.754   0.966 -1.8815 -1.0140  4.0216
   98MOL    C5617710   5.607   0.712   0.753 -0.6193  0.9309 -0.0284
   98MOL    C5717711   5.502   0.776   0.665 -0.7022  0.1379 -0.8723
   98MOL    C5817712   5.540   0.627   0.857 -0.2441 -0.2904 -0.0615
   98MOL    O5917713   5.580   0.516   0.883  0.9752  0.3700  0.7241
   98MOL    O6017714   5.448   0.697   0.931 -0.7202  0.2521  0.0315
   98MOL    H6117715   5.659   0.650   0.681 -1.9551  1.5079 -1.5222
   98MOL    H6217716   5.426   0.706   0.628 -2.1428  0.5882  1.1470
   98MOL    H6317717   5.448   0.858   0.713 -0.1101  0.1522 -0.2097
   98MOL    H6417718   5.546   0.816   0.574 -0.0366 -0.2262 -0.7126
   98MOL    C6517719   5.355   0.642   1.027  0.6818  0.1525  0.4732
   98MOL    C6617720   5.432   0.622   1.163  0.5347 -0.4034  0.2091
   98MOL    C6717721   5.283   0.511   0.981  0.1721 -0.5257 -0.5688
   98MOL    O6817722   5.280   0.402   1.043  0.1422  0.1459 -0.0849
   98MOL    O6917723   5.222   0.547   0.863 -0.0791  0.6634 -0.3706
   98MOL    H7017724   5.282   0.723   1.034  0.6733  0.2387 -0.4591
   98MOL    H7117725   5.466   0.721   1.192  0.3036 -0.3143  0.1784
   98MOL    H7217726   5.369   0.594   1.248  0.6089  0.5178  0.5663
   98MOL    H7317727   5.507   0.543   1.163 -1.3609 -2.2522  1.5854
   98MOL    C7417728   5.161   0.447   0.774  0.3304  0.3031 -0.0270
   98MOL    C7517729   5.028   0.394   0.833 -0.1597  0.0019  0.5905
   98MOL    C7617730   5.266   0.344   0.725  0.0611 -0.2875  0.0887
   98MOL    O7717731   5.354   0.378   0.652 -0.0652 -0.2979  0.2949
   98MOL    O7817732   5.250   0.213   0.770  0.4587 -0.1792 -0.2134
   98MOL    H7917733   5.135   0.507   0.687  1.2183  0.8809  0.1033
   98MOL    H8017734   4.985   0.326   0.759  1.9142 -0.2763 -0.3804
   98MOL    H8117735   5.039   0.334   0.923 -0.6248 -0.4409  0.3564
   98MOL    H8217736   4.963   0.479   0.854 -1.0884 -0.1778 -1.4459
   98MOL    C8317737   5.338   0.115   0.715  0.5085 -0.6198 -0.1632
   98MOL    C8417738   5.254   8.133   0.691  0.5490  0.0509  0.4239
   98MOL    C8517739   5.448   0.088   0.819 -0.1470 -0.3457 -0.0858
   98MOL    O8617740   5.486   8.116   0.838  0.0288  0.1989  0.1090
   98MOL    O8717741   5.498   0.201   0.872 -0.2776  0.1644 -0.0542
   98MOL    H8817742   5.370   0.146   0.615  1.1307  1.7294  0.7103
   98MOL    H8917743   5.220   8.068   0.771 -1.6556 -0.2149 -0.6913
   98MOL    H9017744   5.161   8.146   0.636  0.5659 -1.0232  0.1350
   98MOL    H9117745   5.317   8.067   0.632  0.0162 -0.0996  0.0216
   98MOL    C9217746   5.579   0.200   0.996 -0.2530 -0.1647 -0.6369
   98MOL    C9317747   5.732   0.162   0.971 -0.3800  0.4682 -0.4187
   98MOL    C9417748   5.518   0.109   1.105  0.0708  0.0961  0.2875
   98MOL    O9517749   5.592   0.028   1.160 -0.0492  0.0890 -0.1412
   98MOL    O9617750   5.392   0.129   1.121 -0.0695  0.1999  0.5609
   98MOL    H9717751   5.575   0.295   1.050  1.2487 -1.8310  2.5595
   98MOL    H9817752   5.790   0.179   1.061 -1.0950  0.0966  0.1129
   98MOL    H9917753   5.746   0.059   0.940  0.4033  1.3615 -3.2124
   98MOL   H10017754   5.777   0.222   0.892 -0.5086  1.5540  0.3229
   98MOL   C10117755   5.322   0.057   1.220  0.8613  0.3674  0.2399
   98MOL   C10217756   5.172   0.089   1.193 -0.0424 -0.3287  0.5625
   98MOL   C10317757   5.367   0.088   1.362  0.4792  0.6057 -0.8228
   98MOL   O10417758   5.354   0.007   1.454  0.0048 -0.0781 -0.7667
   98MOL   O10517759   5.424   0.213   1.375  0.2265  0.1817  0.0531
   98MOL   H10617760   5.340   8.097   1.211 -1.3142 -0.0082  0.0549
   98MOL   H10717761   5.158   0.189   1.233 -0.5956  0.2022 -0.9482
   98MOL   H10817762   5.164   0.085   1.085  0.1827 -1.4429  0.5821
   98MOL   H10917763   5.103   0.019   1.241  1.5939 -3.4914 -1.4896
   98MOL   C11017764   5.495   0.258   1.492 -0.0305 -0.2840 -0.4613
   98MOL   C11117765   5.566   0.383   1.443 -0.0105  0.9130  0.0016
   98MOL   C11217766   5.594   0.154   1.560  0.2112  0.1534 -0.3424
   98MOL   O11317767   5.703   0.133   1.506  0.7910  0.2356  0.0301
   98MOL   O11417768   5.544   0.088   1.671  0.1393  0.4381  0.5071
   98MOL   H11517769   5.420   0.286   1.566 -0.5264  0.7156 -1.3442
   98MOL   H11617770   5.601   0.432   1.534 -0.3131  1.1128  0.0111
   98MOL   H11717771   5.658   0.361   1.388 -0.3625 -0.2739 -0.1161
   98MOL   H11817772   5.504   0.459   1.395  0.0783  0.9046 -0.1303
   98MOL   C11917773   5.606   8.126   1.735 -0.3040  0.1414 -0.1287
   98MOL   C12017774   5.496   8.050   1.818 -0.0740 -0.1193 -0.4352
   98MOL   C12117775   5.733   0.018   1.814  0.8270 -0.2726 -0.1432
   98MOL   O12217776   5.835   8.103   1.796 -0.2500  0.8412 -0.1009
   98MOL   O12317777   5.714   0.126   1.900  0.0707 -0.8395 -0.1004
   98MOL   H12417778   5.642   8.057   1.659 -2.3283 -1.8066  0.6289
   98MOL   H12517779   5.479   8.094   1.917  2.5815  0.7832 -0.3411
   98MOL   H12617780   5.396   8.043   1.775  0.5268 -0.7597 -1.7557
   98MOL   H12717781   5.535   7.950   1.834  1.0212  0.7436  2.6633
   98MOL   C12817782   5.821   0.178   1.985 -0.1160 -0.2861 -0.1106
   98MOL   C12917783   5.759   0.217   2.123 -0.3164  0.8842  0.2774
   98MOL   C13017784   5.890   0.299   1.919 -0.1627  0.0712  0.0026
   98MOL   O13117785   5.882   0.410   1.965  0.0991  0.0600 -0.3745
   98MOL   O13217786   5.953   0.271   1.810  0.8182  0.0795  0.2972
   98MOL   H13317787   5.902   0.109   2.008  2.0758  1.5666 -2.0564
   98MOL   H13417788   5.707   0.135   2.171  0.2362  0.6974  0.5524
   98MOL   H13517789   5.830   0.255   2.196 -0.1454 -1.4048  1.3480
   98MOL   H13617790   5.689   0.300   2.109  2.4587  3.1201 -0.7248
   98MOL   C13717791   6.011   0.373   1.725  0.7301 -0.2900  0.0536
   98MOL   C13817792   5.976   0.327   1.585  0.1614  0.0307 -0.0654
   98MOL   C13917793   6.162   0.396   1.753 -0.7028 -0.0951 -0.8355
   98MOL   O14017794   6.232   0.308   1.807 -0.3637  0.0676 -0.2962
   98MOL   O14117795   6.209   0.511   1.695  0.0780 -0.3088  0.2605
   98MOL   H14217796   5.948   0.461   1.739 -2.0772 -2.4877  1.7025
   98MOL   H14317797   6.034   0.240   1.553 -0.1713 -0.0144 -0.5496
   98MOL   H14417798   5.869   0.310   1.569  0.0075  0.8192  0.1287
   98MOL   H14517799   6.014   0.395   1.510 -0.3949  0.5905  0.1568
   98MOL   C14617800   6.352   0.526   1.676 -0.0590 -0.3487 -0.4225
   98MOL   C14717801   6.382   0.669   1.630  0.9482 -0.0846  0.1241
   98MOL   C14817802   6.403   0.423   1.582 -0.1197 -0.1842  0.6375
   98MOL   O14917803   6.518   0.371   1.593  0.0727 -0.1510  0.1513
   98MOL   O15017804   6.323   0.399   1.475  0.0210  0.2858 -0.3639
   98MOL   H15117805   6.403   0.500   1.769 -0.7136 -0.0403  0.0261
   98MOL   H15217806   6.359   0.682   1.524  0.3225  2.2483  0.5183
   98MOL   H15317807   6.319   0.748   1.671  1.7577  1.3108 -1.2977
   98MOL   H15417808   6.486   0.698   1.644  0.6646  1.3089 -0.5829
   98MOL   C15517809   6.369   0.317   1.370  1.3750 -0.3687 -0.3823
   98MOL   C15617810   6.274   0.362   1.253 -0.0521 -0.1308  0.1054
   98MOL   C15717811   6.366   0.166   1.401  0.8470  0.1892  0.0598
   98MOL   O15817812   6.465   0.097   1.410 -0.1735  0.6729 -0.9291
   98MOL   O15917813   6.239   0.125   1.422  0.2429 -1.3702  0.3256
   98MOL   H16017814   6.463   0.362   1.338  0.5218  1.6241 -0.1413
   98MOL   H16117815   6.232   0.458   1.283  0.0336 -0.4579  1.3075
   98MOL   H16217816   6.326   0.364   1.157 -0.7811  1.1394 -0.2680
   98MOL   H16317817   6.190   0.295   1.237 -0.3127  0.2334 -0.0341
   98MOL   C16417818   6.187   8.138   1.435 -0.1279 -0.1953 -0.6811
   98MOL   C16517819   6.237   8.074   1.564  0.1646 -0.2644 -0.2008
   98MOL   C16617820   6.228   8.052   1.315 -0.0903  0.2613  0.8124
   98MOL   O16717821   6.297   7.952   1.325  0.0011 -0.8694  0.4046
   98MOL   O16817822   6.183   8.107   1.199  0.1236 -0.4478 -0.0712
   98MOL   H16917823   6.079   8.146   1.448 -0.1072  0.0478 -0.6588
   98MOL   H17017824   6.346   8.070   1.568  0.0928 -1.9113  0.9107
   98MOL   H17117825   6.200   8.129   1.650  1.4681 -1.3492  1.0823
   98MOL   H17217826   6.192   7.976   1.579 -1.5434  0.6182  0.5966
   98MOL   C17317827   6.224   8.051   1.074  0.1613 -0.1507  0.2491
   98MOL   C17417828   6.206   0.011   0.969  0.3838  0.7154  0.0055
   98MOL   C17517829   6.130   7.932   1.041 -0.3338  0.3297  0.3696
   98MOL   O17617830   6.030   7.904   1.104 -0.4043  0.0342  0.2444
   98MOL   O17717831   6.159   7.881   0.917 -0.3869  0.2372 -0.1294
   98MOL   H17817832   6.328   8.017   1.076  0.8270  1.7519 -0.8308
   98MOL   H17917833   6.260   8.132   0.878 -1.9372  2.4037 -1.9207
   98MOL   H18017834   6.100   0.018   0.946 -0.3167  0.4958  2.9623
   98MOL   H18117835   6.236   0.109   1.008 -0.7910  1.3003 -0.5368
   98MOL   H18217836   6.094   7.817   0.893 -0.8103  0.9298 -0.8732
   99MOL     C117837   6.048   1.545   6.711 -0.3551 -0.1516 -0.5112
   99MOL     C217838   6.039   1.682   6.644  0.3935 -0.9993  0.4566
   99MOL     C317839   6.100   1.556   6.862  0.2254 -0.2812  0.3239
   99MOL     O417840   6.110   1.661   6.925  0.2180 -0.3983  0.4940
   99MOL     O517841   6.125   1.430   6.913  0.0219 -0.1973 -0.0392
   99MOL     H617842   5.949   1.499   6.710 -0.1680 -0.5534 -1.4134
   99MOL     H717843   5.986   1.745   6.716  0.5212 -1.5822  1.0705
   99MOL     H817844   6.139   1.719   6.622 -0.2427  0.2345 -0.4143
   99MOL     H917845   5.983   1.677   6.551 -0.7024 -0.3959  1.0602
   99MOL    H1017846   6.116   1.494   6.642 -0.6570 -1.3189  0.0439
   99MOL    C1117847   6.152   1.414   7.047  0.7735 -0.3840  0.6972
   99MOL    C1217848   6.302   1.402   7.070  0.9939 -0.3236  0.2917
   99MOL    C1317849   6.075   1.296   7.104  0.3587  0.6582  0.4156
   99MOL    O1417850   6.099   1.246   7.214 -0.1963 -0.5390 -0.3222
   99MOL    O1517851   5.970   1.262   7.023  0.1621 -0.4233  0.0076
   99MOL    H1617852   6.111   1.495   7.105  1.3479 -1.0441  2.0434
   99MOL    H1717853   6.312   1.373   7.174 -1.8337 -0.6793  0.4966
   99MOL    H1817854   6.348   1.319   7.015 -0.5991  0.0601 -1.6848
   99MOL    H1917855   6.346   1.502   7.063 -1.8394  1.0259  1.1168
   99MOL    C2017856   5.872   1.164   7.059  0.0523  0.9904  0.2798
   99MOL    C2117857   5.911   1.030   6.997 -1.0527  0.3570  0.4980
   99MOL    C2217858   5.739   1.214   6.991 -0.1249 -0.3434 -0.6738
   99MOL    O2317859   5.705   1.337   7.005  0.7851 -0.2087 -0.5691
   99MOL    O2417860   5.657   1.116   6.938  0.2758 -0.1556  0.4309
   99MOL    H2517861   5.861   1.146   7.165 -1.1919  1.0804  0.1715
   99MOL    H2617862   5.941   1.034   6.893 -0.0703 -1.3832  0.7015
   99MOL    H2717863   5.999   0.998   7.052 -1.1856 -0.3059  0.3369
   99MOL    H2817864   5.844   0.943   6.997 -0.1792 -0.3328  2.7407
   99MOL    C2917865   5.521   1.141   6.915  0.4591  0.3896 -0.0673
   99MOL    C3017866   5.445   1.006   6.926 -0.3497 -0.1067  0.1886
   99MOL    C3117867   5.504   1.208   6.778 -0.4490 -1.0183 -0.7322
   99MOL    O3217868   5.444   1.156   6.683 -0.2982  0.8977 -0.3136
   99MOL    O3317869   5.552   1.333   6.775  0.4249 -0.5694 -0.1421
   99MOL    H3417870   5.476   1.206   6.990 -0.6058 -1.6796  1.1385
   99MOL    H3517871   5.438   0.965   7.026  0.6003 -1.9058 -0.4605
   99MOL    H3617872   5.341   1.021   6.896 -0.0486  0.3736 -0.6365
   99MOL    H3717873   5.492   0.937   6.855  1.9543  1.8921 -0.2646
   99MOL    C3817874   5.542   1.421   6.661 -0.6520  0.7417 -0.6802
   99MOL    C3917875   5.645   1.538   6.679 -0.4096 -0.0866 -0.2411
   99MOL    C4017876   5.402   1.479   6.652 -0.5713 -0.1410 -0.2344
   99MOL    O4117877   5.380   1.601   6.667 -0.2038 -0.4909  0.0511
   99MOL    O4217878   5.308   1.392   6.610 -0.2246 -0.5476 -0.1006
   99MOL    H4317879   5.555   1.360   6.571 -1.9513 -0.7096  0.0999
   99MOL    H4417880   5.649   1.576   6.782 -1.7542 -0.4527 -0.0501
   99MOL    H4517881   5.746   1.504   6.655 -0.4949 -1.8870  1.7790
   99MOL    H4617882   5.612   1.613   6.607 -1.5593 -1.0130 -0.6859
   99MOL    C4717883   5.166   1.434   6.597  0.3845  0.5557 -0.1387
   99MOL    C4817884   5.077   1.314   6.565 -0.5406 -0.1244  0.1660
   99MOL    C4917885   5.157   1.549   6.496 -0.5129  0.4149 -0.0686
   99MOL    O5017886   5.234   1.550   6.400 -0.1429  0.7852 -0.1656
   99MOL    O5117887   5.073   1.649   6.530 -0.1249 -0.3834 -0.1519
   99MOL    H5217888   5.135   1.479   6.691 -0.6785  1.9571 -1.1444
   99MOL    H5317889   4.976   1.338   6.599 -0.2800  1.7030 -0.3020
   99MOL    H5417890   5.088   1.282   6.462  0.0316  0.6691 -0.0151
   99MOL    H5517891   5.107   1.224   6.620  1.1992 -0.6570 -1.5958
   99MOL    C5617892   5.071   1.774   6.446  0.1771 -0.0041  0.0118
   99MOL    C5717893   5.040   1.883   6.542  0.1607  0.0369  0.3335
   99MOL    C5817894   4.960   1.769   6.340  0.6366  0.2513  0.0747
   99MOL    O5917895   4.889   1.662   6.328 -0.4263 -0.6170 -0.5077
   99MOL    O6017896   4.968   1.870   6.241 -0.5836 -0.0885  0.0422
   99MOL    H6117897   5.159   1.773   6.382  2.8220 -0.9376  3.4925
   99MOL    H6217898   4.943   1.885   6.593 -0.4998 -0.2078 -0.8913
   99MOL    H6317899   5.116   1.888   6.620 -0.3797  1.8112  0.7729
   99MOL    H6417900   5.041   1.975   6.483 -0.1724  0.5468  1.1159
   99MOL    C6517901   4.871   1.870   6.140 -0.2494 -0.2258 -0.3066
   99MOL    C6617902   4.938   1.868   5.997  0.0519 -0.1734 -0.2820
   99MOL    C6717903   4.783   1.993   6.157  0.5790 -0.8179 -0.2260
   99MOL    O6817904   4.818   2.094   6.098  0.2458 -0.3327 -0.8421
   99MOL    O6917905   4.689   1.997   6.252  0.3978  0.3524 -0.1555
   99MOL    H7017906   4.812   1.778   6.137 -0.2648 -0.2822  1.3851
   99MOL    H7117907   5.038   1.912   5.997  0.4367 -0.9747  2.2287
   99MOL    H7217908   4.938   1.762   5.974 -0.3842 -0.0916 -0.6683
   99MOL    H7317909   4.874   1.916   5.922  0.9758 -0.1002 -1.0246
   99MOL    C7417910   4.625   2.119   6.280  0.7394  0.0389  0.7291
   99MOL    C7517911   4.566   2.096   6.421  0.7957 -0.2397 -0.5956
   99MOL    C7617912   4.508   2.149   6.186  0.7470  0.2503 -0.0872
   99MOL    O7717913   4.480   2.262   6.144  0.1850  0.4086  0.1992
   99MOL    O7817914   4.439   2.036   6.173 -0.0806  0.1406  0.0732
   99MOL    H7917915   4.689   2.207   6.291  1.6613 -0.3490 -1.3972
   99MOL    H8017916   4.497   2.013   6.429 -0.2683  0.6561 -0.3701
   99MOL    H8117917   4.638   2.087   6.502 -0.4528 -0.5189  0.4877
   99MOL    H8217918   4.515   2.187   6.452 -2.3945 -2.1572 -0.0356
   99MOL    C8317919   4.340   2.016   6.073  0.3980  0.6185  0.3436
   99MOL    C8417920   4.303   1.868   6.097 -0.0941 -0.0776  0.2130
   99MOL    C8517921   4.399   2.035   5.932  0.2790  0.1761  0.3445
   99MOL    O8617922   4.522   2.024   5.914 -0.1000 -0.2204  0.2057
   99MOL    O8717923   4.307   2.044   5.834  0.1412  0.3690  0.3435
   99MOL    H8817924   4.253   2.080   6.089 -1.0768 -1.4710  0.8831
   99MOL    H8917925   4.198   1.873   6.068 -0.3995 -0.4431  1.2271
   99MOL    H9017926   4.368   1.794   6.051  0.8729 -0.2915  1.8747
   99MOL    H9117927   4.319   1.862   6.205 -3.2871  0.4151  0.7657
   99MOL    C9217928   4.352   2.096   5.712  0.4026 -0.6203 -0.2046
   99MOL    C9317929   4.243   2.187   5.655 -0.3497  0.0726  0.3752
   99MOL    C9417930   4.398   1.984   5.624 -0.0930 -1.2269 -0.4050
   99MOL    O9517931   4.521   1.968   5.608 -0.2755  0.4547 -0.1840
   99MOL    O9617932   4.299   1.920   5.562  0.6055  0.0216  0.3849
   99MOL    H9717933   4.439   2.162   5.715 -0.3216  0.3707 -0.7203
   99MOL    H9817934   4.150   2.144   5.616 -0.9997  0.5928  1.3300
   99MOL    H9917935   4.225   2.268   5.725  0.4953  0.0239  0.6524
   99MOL   H10017936   4.284   2.223   5.561 -1.1937  1.9913  0.7222
   99MOL   C10117937   4.320   1.818   5.464 -0.2384  0.3729 -0.3562
   99MOL   C10217938   4.189   1.787   5.390  0.2407 -0.2412 -0.2141
   99MOL   C10317939   4.368   1.692   5.535  0.4451  0.2567  0.4071
   99MOL   O10417940   4.461   1.636   5.478  0.3177 -0.3869 -0.3842
   99MOL   O10517941   4.305   1.663   5.659 -0.1438  0.2600  0.0361
   99MOL   H10617942   4.390   1.857   5.389  0.7008  1.1316  0.8931
   99MOL   H10717943   4.200   1.706   5.318 -0.4705 -0.7082  0.1879
   99MOL   H10817944   4.118   1.762   5.469 -0.4239 -3.3292 -1.6842
   99MOL   H10917945   4.147   1.875   5.343 -1.5320  1.6163  4.5294
   99MOL   C11017946   4.331   1.539   5.722  0.3630  0.4021 -0.4273
   99MOL   C11117947   4.275   1.421   5.633  0.4323  0.6322  0.7750
   99MOL   C11217948   4.256   1.544   5.856  0.1965  0.8149  0.4482
   99MOL   O11317949   4.188   1.635   5.900  0.3928  0.2258  0.2533
   99MOL   O11417950   4.293   1.434   5.926 -0.7632 -0.0795  0.0074
   99MOL   H11517951   4.438   1.539   5.740  0.3784  1.4614 -0.4568
   99MOL   H11617952   4.207   1.468   5.561  2.4667  0.8694 -1.0537
   99MOL   H11717953   4.349   1.382   5.564 -0.3307 -1.3439  1.0539
   99MOL   H11817954   4.233   1.335   5.684  1.7929  1.0403  2.6490
   99MOL   C11917955   4.255   1.408   6.060  0.1305 -0.1546 -0.2940
   99MOL   C12017956   4.371   1.318   6.119  0.3598  0.1289 -0.2939
   99MOL   C12117957   4.123   1.328   6.056  0.4351  0.4114 -0.7108
   99MOL   O12217958   4.016   1.350   6.111  0.0413 -1.1694 -0.1278
   99MOL   O12317959   4.143   1.215   5.988  0.1118 -0.3454 -0.0715
   99MOL   H12417960   4.256   1.494   6.127 -2.7379  1.6259 -2.4356
   99MOL   H12517961   4.400   1.248   6.041 -1.1459 -0.8716  0.0215
   99MOL   H12617962   4.459   1.382   6.125  0.7571 -0.4429  0.0187
   99MOL   H12717963   4.345   1.272   6.215 -0.1478  0.7388 -0.1388
   99MOL   C12817964   4.030   1.138   5.966  0.1947  0.2327  0.6971
   99MOL   C12917965   4.088   0.995   5.954  0.6405  0.0929  0.2322
   99MOL   C13017966   3.955   1.165   5.837  0.4773 -0.1181 -0.0014
   99MOL   O13117967   4.010   1.180   5.726 -0.3819 -0.4502 -0.4566
   99MOL   O13217968   3.824   1.165   5.860  0.0312 -0.4194  0.0888
   99MOL   H13317969   3.958   1.139   6.048  0.0720 -1.1771  0.6201
   99MOL   H13417970   4.004   0.931   5.927  0.1975  0.7952 -0.0812
   99MOL   H13517971   4.156   0.977   5.871  0.0686  1.0587 -0.4654
   99MOL   H13617972   4.131   0.966   6.049  1.0880 -1.9914 -0.5917
   99MOL   C13717973   3.736   1.157   5.749  0.5683 -0.5325 -0.4505
   99MOL   C13817974   3.595   1.193   5.802 -0.5399 -0.6445 -0.0177
   99MOL   C13917975   3.735   1.013   5.694  0.3141  0.6479  0.1163
   99MOL   O14017976   3.677   0.983   5.586  0.0584  0.5105 -0.5480
   99MOL   O14117977   3.792   0.919   5.775 -0.3280  0.1621 -0.2241
   99MOL   H14217978   3.761   1.229   5.672 -2.4696  1.3985  0.2911
   99MOL   H14317979   3.601   1.272   5.877  0.6576 -0.5359 -0.2134
   99MOL   H14417980   3.529   1.208   5.717 -1.2920 -1.0878  0.4826
   99MOL   H14517981   3.575   1.104   5.862 -0.0348 -0.7404  0.0093
   99MOL   C14617982   3.770   0.778   5.758 -0.0812 -0.4490 -0.0446
   99MOL   C14717983   3.783   0.702   5.893 -0.5653 -0.4824  0.2316
   99MOL   C14817984   3.865   0.732   5.651 -0.4703 -0.2667  0.2972
   99MOL   O14917985   3.978   0.783   5.643  0.1578  0.4945  0.7715
   99MOL   O15017986   3.814   0.642   5.570  0.1173 -0.2434 -0.4942
   99MOL   H15117987   3.669   0.761   5.720 -0.0946  0.8983 -0.6573
   99MOL   H15217988   3.799   0.595   5.889  0.7251 -0.4173  2.6834
   99MOL   H15317989   3.869   0.732   5.953 -0.1638 -1.5304  0.1754
   99MOL   H15417990   3.703   0.728   5.962  0.0088  3.0404 -0.3017
   99MOL   C15517991   3.885   0.589   5.454 -0.4931 -0.7026 -0.5252
   99MOL   C15617992   3.794   0.507   5.359  0.0797 -0.7210 -0.3118
   99MOL   C15717993   3.994   0.490   5.508 -0.5020 -0.1718 -0.3160
   99MOL   O15817994   4.107   0.490   5.461 -0.6576  0.3604  0.5037
   99MOL   O15917995   3.954   0.415   5.612  0.4107 -0.2158 -0.0197
   99MOL   H16017996   3.928   0.665   5.389 -1.0768  0.9669  0.9778
   99MOL   H16117997   3.727   0.437   5.409 -1.2839  0.8000  0.0567
   99MOL   H16217998   3.731   0.580   5.308  1.1359 -0.3927 -1.1596
   99MOL   H16317999   3.853   0.449   5.289 -0.7143 -3.0633  0.9137
   99MOL   C16418000   4.042   0.320   5.673  0.4363  0.3098  0.1253
   99MOL   C16518001   3.972   0.186   5.710  0.5374 -0.0365 -0.3458
   99MOL   C16618002   4.110   0.389   5.789 -0.0035  0.3536  0.8095
   99MOL   O16718003   4.235   0.388   5.800  0.1069  0.1127 -0.5502
   99MOL   O16818004   4.030   0.447   5.878 -0.0842 -0.1518  0.3460
   99MOL   H16918005   4.130   0.291   5.615  1.0096  1.3185  0.4906
   99MOL   H17018006   4.038   0.101   5.696  2.4108  1.1056  1.2746
   99MOL   H17118007   3.937   0.189   5.813  1.4248  0.4887 -0.0545
   99MOL   H17218008   3.892   0.170   5.637  0.9676 -0.8365 -0.6380
   99MOL   C17318009   4.082   0.488   6.005 -0.4171 -0.3198 -0.9644
   99MOL   C17418010   3.963   0.480   6.106  0.3787 -0.3881 -0.2093
   99MOL   C17518011   4.145   0.627   6.006  0.2283  0.0064  0.3466
   99MOL   O17618012   4.100   0.720   6.076  0.1393  0.3659 -0.6064
   99MOL   O17718013   4.255   0.632   5.928  0.0532  0.4428 -0.5351
   99MOL   H17818014   4.153   0.414   6.042 -0.9756  0.3463  1.5481
   99MOL   H17918015   3.907   0.573   6.106  1.3268  0.1908 -0.8304
   99MOL   H18018016   3.892   0.398   6.088 -1.3821  1.0682 -0.0821
   99MOL   H18118017   4.011   0.481   6.203  1.8052 -0.8233 -0.8904
   99MOL   H18218018   4.285   0.551   5.889 -4.4401 -0.1168 -3.1916
  100MOL     C118019   4.107   5.598   0.102  1.0202 -0.3913 -0.0605
  100MOL     C218020   4.242   5.534   0.063  0.4365 -0.3790  0.5071
  100MOL     C318021   4.038   5.637   8.126 -0.1569  0.2717 -0.2155
  100MOL     O418022   3.962   5.560   8.073 -0.1334 -0.1337 -0.3279
  100MOL     O518023   4.064   5.762   8.097 -0.3890 -0.1543  0.4697
  100MOL     H618024   4.035   5.530   0.149  1.3984 -0.5562  0.2877
  100MOL     H718025   4.281   5.488   0.154 -1.1157 -1.3592  0.6890
  100MOL     H818026   4.231   5.470   8.123 -3.1324  1.7185 -0.7253
  100MOL     H918027   4.300   5.621   0.032  1.1804 -0.9088  0.4133
  100MOL    H1018028   4.114   5.690   0.159 -0.7942 -0.7964  0.8591
  100MOL    C1118029   4.008   5.833   7.984  0.4311  1.2137  0.2824
  100MOL    C1218030   3.864   5.880   8.021 -0.3283 -0.2769  0.3310
  100MOL    C1318031   4.017   5.745   7.857 -0.8375 -0.3757  0.7630
  100MOL    O1418032   3.922   5.703   7.791 -0.1267 -0.2026  0.4203
  100MOL    O1518033   4.148   5.730   7.822  0.4095  0.4075  0.4628
  100MOL    H1618034   4.062   5.926   7.967 -0.1111  1.8445  1.8975
  100MOL    H1718035   3.812   5.935   7.943  3.2984  2.8855 -0.0241
  100MOL    H1818036   3.806   5.796   8.060 -0.6080 -0.6179 -0.7915
  100MOL    H1918037   3.888   5.955   8.096  4.1836 -0.5545 -0.7076
  100MOL    C2018038   4.198   5.640   7.728  0.4099  0.0683  0.1513
  100MOL    C2118039   4.355   5.664   7.727 -0.1364  0.0200  0.2531
  100MOL    C2218040   4.136   5.663   7.594 -0.3608 -1.0067  0.2182
  100MOL    O2318041   4.071   5.583   7.539 -0.1093  0.3398  0.1720
  100MOL    O2418042   4.153   5.794   7.553 -0.0033  0.0306 -0.0638
  100MOL    H2518043   4.180   5.537   7.759  0.5924  0.3671  1.2907
  100MOL    H2618044   4.415   5.600   7.791  1.7207  0.3685 -1.0828
  100MOL    H2718045   4.394   5.642   7.627 -2.1693  0.1752 -0.5938
  100MOL    H2818046   4.374   5.769   7.751  0.7471  0.1350 -0.8849
  100MOL    C2918047   4.085   5.858   7.444  0.0753 -0.1621  0.0906
  100MOL    C3018048   4.184   5.880   7.331  0.0525 -0.6736  1.0771
  100MOL    C3118049   4.032   5.997   7.490  0.0702 -0.5509  1.2041
  100MOL    O3218050   3.912   6.024   7.485 -0.3965  0.1838 -0.0014
  100MOL    O3318051   4.137   6.081   7.538 -0.1441  0.1150 -0.2137
  100MOL    H3418052   3.996   5.810   7.404  1.4502 -1.0654 -1.9587
  100MOL    H3518053   4.282   5.897   7.377  0.7160 -2.1762  0.2587
  100MOL    H3618054   4.203   5.784   7.283 -2.2839  0.5210 -2.4451
  100MOL    H3718055   4.151   5.961   7.266 -3.5979 -2.8744  0.0339
  100MOL    C3818056   4.114   6.204   7.597 -0.7439  0.8284  0.3535
  100MOL    C3918057   4.254   6.278   7.599  0.2988  0.0897  0.3476
  100MOL    C4018058   4.059   6.182   7.744 -0.5900  0.3658 -0.7249
  100MOL    O4118059   4.021   6.073   7.782  0.1314 -0.3147  0.5229
  100MOL    O4218060   4.052   6.295   7.814 -0.6300  0.6626  0.5108
  100MOL    H4318061   4.032   6.251   7.541 -0.5064  0.7794 -0.0378
  100MOL    H4418062   4.346   6.220   7.610  0.1468 -0.0955  0.6488
  100MOL    H4518063   4.272   6.313   7.497 -0.1262 -1.5209 -0.2954
  100MOL    H4618064   4.264   6.363   7.667 -0.7257 -0.3294  1.0353
  100MOL    C4718065   4.010   6.302   7.948 -0.0791 -0.2555  0.4483
  100MOL    C4818066   3.955   6.442   7.972 -0.2276  0.6633 -0.9399
  100MOL    C4918067   4.124   6.274   8.042 -0.0546 -0.1183  0.1162
  100MOL    O5018068   4.171   6.358   8.117  0.1574 -0.3181 -0.0549
  100MOL    O5118069   4.179   6.149   8.025  0.1149  0.2882  0.3996
  100MOL    H5218070   3.927   6.233   7.966 -0.7626  0.3018 -0.4560
  100MOL    H5318071   4.031   6.507   7.928  1.2290 -1.0994 -1.0704
  100MOL    H5418072   3.856   6.453   7.928 -0.6991  1.8422  0.3528
  100MOL    H5518073   3.942   6.469   8.077  0.0844  1.0789 -1.0056
  100MOL    C5618074   4.310   6.116   8.082 -0.1541  0.2714 -0.0335
  100MOL    C5718075   4.371   6.003   8.000 -0.1892 -0.3469  0.3803
  100MOL    C5818076   4.286   6.070   0.078 -1.1383 -0.7260 -0.6538
  100MOL    O5918077   4.178   6.068   0.146 -0.2516 -0.3048  0.2668
  100MOL    O6018078   4.399   6.046   0.137 -0.3301  0.0911 -0.0854
  100MOL    H6118079   4.377   6.201   8.092 -0.6357  0.4811  1.4536
  100MOL    H6218080   4.476   5.999   8.027 -0.5793  0.0588  2.0112
  100MOL    H6318081   4.325   5.905   8.009  0.7129 -0.7618  0.4670
  100MOL    H6418082   4.375   6.032   7.895 -2.3441 -1.9650 -0.1842
  100MOL    C6518083   4.415   6.014   0.275  0.6324  0.4981  0.1993
  100MOL    C6618084   4.561   6.009   0.306  0.5302  0.2227 -0.2229
  100MOL    C6718085   4.361   5.870   0.293 -0.0594 -0.4093  0.0551
  100MOL    O6818086   4.366   5.790   0.200  0.4352 -0.2572  0.3949
  100MOL    O6918087   4.320   5.841   0.424 -0.3407  0.5898  0.0768
  100MOL    H7018088   4.360   6.076   0.347  1.8385  0.5204  1.1060
  100MOL    H7118089   4.620   5.948   0.236  0.6559  0.0453  0.0359
  100MOL    H7218090   4.599   6.110   0.316 -0.3984  0.7449 -1.7455
  100MOL    H7318091   4.574   5.968   0.406 -2.9776  0.8878  0.5444
  100MOL    C7418092   4.246   5.722   0.458  0.4598 -0.3381 -0.1826
  100MOL    C7518093   4.119   5.747   0.540 -0.1554 -0.0541 -0.2891
  100MOL    C7618094   4.331   5.628   0.545 -0.3366  0.2601 -0.3085
  100MOL    O7718095   4.336   5.505   0.529  0.7970 -0.1758  0.1102
  100MOL    O7818096   4.395   5.693   0.645 -0.6246 -0.0685 -0.2027
  100MOL    H7918097   4.222   5.664   0.370  2.4302 -0.2482 -0.7834
  100MOL    H8018098   4.145   5.777   0.642  1.7695 -1.1449 -0.4352
  100MOL    H8118099   4.054   5.829   0.511 -1.7648 -0.7941  1.1144
  100MOL    H8218100   4.060   5.654   0.541  0.7045 -0.5983  1.4485
  100MOL    C8318101   4.470   5.616   0.741  0.3461 -0.1197 -0.4818
  100MOL    C8418102   4.475   5.704   0.867  0.2720  0.4942  0.1932
  100MOL    C8518103   4.615   5.581   0.691  0.0073 -0.1171  0.0518
  100MOL    O8618104   4.703   5.670   0.695  0.5817  0.1365 -0.3339
  100MOL    O8718105   4.631   5.457   0.657 -0.6257  0.0838 -0.4189
  100MOL    H8818106   4.417   5.522   0.761 -2.0174  0.4112 -3.7433
  100MOL    H8918107   4.505   5.806   0.842 -0.5913 -0.2092 -4.0236
  100MOL    H9018108   4.381   5.714   0.921 -0.4034  1.1036 -1.0656
  100MOL    H9118109   4.558   5.669   0.928 -0.7320 -1.0084  0.7262
  100MOL    C9218110   4.766   5.403   0.642 -0.1481  0.3704 -0.0485
  100MOL    C9318111   4.775   5.305   0.526 -0.2693  0.1933  0.0734
  100MOL    C9418112   4.801   5.342   0.778  0.1235 -0.3167  0.7509
  100MOL    O9518113   4.797   5.222   0.799 -0.4037 -0.0050 -0.1570
  100MOL    O9618114   4.827   5.445   0.866 -0.2412  0.1720 -0.7413
  100MOL    H9718115   4.839   5.481   0.621  0.6164 -0.5061 -0.7076
  100MOL    H9818116   4.682   5.250   0.518  0.6405 -1.1222 -1.9201
  100MOL    H9918117   4.776   5.353   0.428 -0.2692  0.1064  0.0310
  100MOL   H10018118   4.865   5.244   0.540 -0.2884 -0.2991 -1.8449
  100MOL   C10118119   4.844   5.423   1.011 -0.1722 -0.3899 -0.8097
  100MOL   C10218120   4.734   5.508   1.072 -0.6089 -0.7219  0.0396
  100MOL   C10318121   4.984   5.465   1.050  0.2909  0.4937 -0.0555
  100MOL   O10418122   5.007   5.585   1.083 -0.6015 -0.2699 -0.0496
  100MOL   O10518123   5.074   5.379   1.032 -0.2269  0.1136  0.1931
  100MOL   H10618124   4.839   5.317   1.037  2.5241 -0.9783 -2.4541
  100MOL   H10718125   4.645   5.487   1.013  1.7441 -2.9046 -2.8625
  100MOL   H10818126   4.725   5.468   1.173 -1.7838 -0.4672  0.0434
  100MOL   H10918127   4.753   5.616   1.066  0.4917 -0.9122 -0.0001
  100MOL   C11018128   5.204   5.401   1.084 -0.1668 -0.0476 -0.0064
  100MOL   C11118129   5.303   5.447   0.976  0.5359 -0.2430 -0.3071
  100MOL   C11218130   5.255   5.275   1.146  0.0235  0.8154 -0.5795
  100MOL   O11318131   5.301   5.191   1.077  0.2780  0.2135  0.3710
  100MOL   O11418132   5.222   5.261   1.274 -0.6042 -0.1231  0.0512
  100MOL   H11518133   5.210   5.465   1.172 -3.1575 -0.2059  0.3687
  100MOL   H11618134   5.271   5.530   0.913  1.0699 -0.0585 -0.3297
  100MOL   H11718135   5.406   5.453   1.008  0.3838 -0.6320  0.2618
  100MOL   H11818136   5.310   5.363   0.907 -0.8793  0.2178 -1.0452
  100MOL   C11918137   5.254   5.143   1.352  0.0766  0.0942  0.4638
  100MOL   C12018138   5.121   5.075   1.409 -1.4272  0.9926  0.0755
  100MOL   C12118139   5.330   5.198   1.479 -0.3823  0.3270 -0.2567
  100MOL   O12218140   5.383   5.306   1.486  0.4219 -0.5642 -0.7308
  100MOL   O12318141   5.346   5.103   1.576  0.0990 -0.5129  0.2553
  100MOL   H12418142   5.308   5.072   1.290 -1.1643 -1.5400  1.2108
  100MOL   H12518143   5.044   5.055   1.334 -0.9583  1.4376 -0.5244
  100MOL   H12618144   5.137   4.984   1.466  0.9310  1.0271 -0.5020
  100MOL   H12718145   5.085   5.143   1.487 -1.5390  0.9813  0.0339
  100MOL   C12818146   5.436   5.132   1.688 -0.2088  0.6718  0.3614
  100MOL   C12918147   5.518   4.999   1.719  0.7516 -0.2239  0.1759
  100MOL   C13018148   5.365   5.188   1.815 -0.3188  0.2629  0.2100
  100MOL   O13118149   5.244   5.205   1.812 -0.4043 -0.2627 -0.4545
  100MOL   O13218150   5.449   5.212   1.913  0.2498  0.0325  0.1504
  100MOL   H13318151   5.511   5.207   1.665  1.0849 -0.9658 -0.7764
  100MOL   H13418152   5.452   4.913   1.732  1.3164 -0.6146  0.4875
  100MOL   H13518153   5.582   4.983   1.632  1.7090 -1.0952  1.0326
  100MOL   H13618154   5.579   5.013   1.808  0.3465 -1.1937  0.6115
  100MOL   C13718155   5.403   5.258   2.041 -0.3064  1.1234  0.4763
  100MOL   C13818156   5.369   5.404   2.043 -0.0548  0.6418 -0.0314
  100MOL   C13918157   5.515   5.206   2.132 -0.7492 -0.3604 -0.0726
  100MOL   O14018158   5.555   5.278   2.222 -0.0363 -0.0047  0.2169
  100MOL   O14118159   5.567   5.085   2.087 -0.3988  0.0989  0.1088
  100MOL   H14218160   5.314   5.199   2.067 -0.4146  0.8780 -0.4466
  100MOL   H14318161   5.265   5.412   2.012 -0.4863 -1.4189  0.8260
  100MOL   H14418162   5.367   5.453   2.141  1.0339 -0.4288  0.5388
  100MOL   H14518163   5.436   5.464   1.981  1.9199  0.2685  1.6784
  100MOL   C14618164   5.684   5.024   2.143 -0.3168 -0.3762  0.0039
  100MOL   C14718165   5.727   4.903   2.051 -0.0838 -0.5626 -0.5188
  100MOL   C14818166   5.645   4.975   2.285 -0.3929  0.3949 -1.2809
  100MOL   O14918167   5.686   5.030   2.386 -0.6511 -0.2193 -0.0136
  100MOL   O15018168   5.588   4.854   2.290 -0.1688 -0.2809  0.0184
  100MOL   H15118169   5.757   5.103   2.159 -0.9309  0.2363 -0.1769
  100MOL   H15218170   5.819   4.857   2.086  0.0542  1.1286  1.4283
  100MOL   H15318171   5.651   4.825   2.048 -0.3549 -0.2345 -3.2995
  100MOL   H15418172   5.750   4.928   1.948 -1.6611 -0.7585 -0.9314
  100MOL   C15518173   5.514   4.800   2.405  0.1292  0.1472  0.2267
  100MOL   C15618174   5.598   4.700   2.489  0.0194 -0.7203 -0.1436
  100MOL   C15718175   5.389   4.735   2.348 -0.0112  0.4544  0.4437
  100MOL   O15818176   5.336   4.638   2.397 -0.1752  0.7343  1.0728
  100MOL   O15918177   5.335   4.815   2.253 -0.3884 -0.1176 -0.1050
  100MOL   H16018178   5.473   4.878   2.469  1.5805  1.1779 -0.0695
  100MOL   H16118179   5.625   4.618   2.423 -0.0788 -1.1124  0.3064
  100MOL   H16218180   5.694   4.740   2.522  1.2407 -2.0608 -1.9980
  100MOL   H16318181   5.540   4.657   2.571  1.0643 -2.9834 -0.5847
  100MOL   C16418182   5.209   4.786   2.193  0.1954 -0.9743 -0.5332
  100MOL   C16518183   5.179   4.903   2.096 -0.6995 -0.6259 -0.0892
  100MOL   C16618184   5.104   4.782   2.306 -0.0506  0.6961  0.5649
  100MOL   O16718185   5.101   4.867   2.389  0.4052 -0.1848  0.1455
  100MOL   O16818186   5.036   4.672   2.316  0.4351  0.3486 -0.4825
  100MOL   H16918187   5.221   4.694   2.136  2.1255 -1.3961  0.5474
  100MOL   H17018188   5.156   4.995   2.149  0.5395 -0.9546  1.0497
  100MOL   H17118189   5.269   4.934   2.043 -1.4989  1.0264 -0.5182
  100MOL   H17218190   5.097   4.881   2.027 -0.0383  0.8686 -1.3696
  100MOL   C17318191   4.947   4.642   2.423  0.5845  0.8287  0.9106
  100MOL   C17418192   5.032   4.619   2.553 -0.1530  0.2896 -0.1221
  100MOL   C17518193   4.865   4.518   2.389 -0.9147  0.1538 -0.7122
  100MOL   O17618194   4.868   4.417   2.460  0.9317  0.1308 -0.6023
  100MOL   O17718195   4.805   4.527   2.271  0.1441 -0.2013  0.3937
  100MOL   H17818196   4.874   4.721   2.435 -2.5559 -2.2623  3.2424
  100MOL   H17918197   5.104   4.537   2.548 -0.5381  0.0514 -2.2079
  100MOL   H18018198   5.081   4.710   2.586  0.5938 -0.5851  1.2310
  100MOL   H18118199   4.971   4.600   2.641  0.0783 -1.2299 -0.2769
  100MOL   H18218200   4.753   4.453   2.243 -0.9830  0.5060  0.5792
  101MOL     C118201   6.621   6.284   5.314  0.4135 -0.0379 -0.5020
  101MOL     C218202   6.595   6.154   5.235  0.5666 -0.0355 -0.0096
  101MOL     C318203   6.646   6.263   5.465 -0.3155 -0.0687 -0.0650
  101MOL     O418204   6.637   6.151   5.512  0.2496 -0.2748  0.1159
  101MOL     O518205   6.672   6.375   5.533 -0.6858 -0.1957 -0.2355
  101MOL     H618206   6.703   6.339   5.267  0.1012  0.4837 -0.4476
  101MOL     H718207   6.506   6.106   5.275 -0.9034  0.9253 -2.0307
  101MOL     H818208   6.572   6.174   5.130 -2.7615  0.4403  0.7668
  101MOL     H918209   6.681   6.087   5.235  1.6954  1.3931 -0.6137
  101MOL    H1018210   6.536   6.353   5.309 -0.7828 -1.4325  0.3249
  101MOL    C1118211   6.707   6.380   5.678 -0.4088  0.3498 -0.2044
  101MOL    C1218212   6.602   6.463   5.758 -0.7655  0.9823 -0.2895
  101MOL    C1318213   6.848   6.450   5.687 -0.7306  0.1704 -0.3499
  101MOL    O1418214   6.933   6.440   5.594  0.1221  0.8848  0.1523
  101MOL    O1518215   6.871   6.519   5.798  0.2134  0.2588  0.8956
  101MOL    H1618216   6.724   6.282   5.721 -1.3766  0.2889  0.0608
  101MOL    H1718217   6.620   6.569   5.738  1.1724  0.7122 -0.0768
  101MOL    H1818218   6.499   6.440   5.731 -0.8664  0.7849  0.2588
  101MOL    H1918219   6.621   6.457   5.865  1.8795 -0.5044 -0.7962
  101MOL    C2018220   6.996   6.595   5.816 -0.1723 -0.3510 -0.3091
  101MOL    C2118221   7.006   6.629   5.961 -0.3378  0.2112 -0.6806
  101MOL    C2218222   7.003   6.725   5.731 -0.0400  0.6087  0.4563
  101MOL    O2318223   7.103   6.753   5.663  0.4600  0.1033 -0.1167
  101MOL    O2418224   6.887   6.786   5.725 -0.8021 -0.2416  0.3418
  101MOL    H2518225   7.078   6.527   5.794  0.7106  0.6858 -0.2937
  101MOL    H2618226   7.020   6.535   6.014 -0.3955  1.2696  1.2305
  101MOL    H2718227   7.104   6.676   5.973 -0.2331 -0.7164  2.3090
  101MOL    H2818228   6.918   6.679   6.001 -0.7437 -2.1566  1.4552
  101MOL    C2918229   6.874   6.898   5.629  0.0383  0.2326  0.1888
  101MOL    C3018230   6.869   7.019   5.717  0.3246 -0.9944 -1.0160
  101MOL    C3118231   6.755   6.873   5.552 -0.3670 -0.6373  0.3835
  101MOL    O3218232   6.714   6.754   5.529  0.1958  0.4820 -0.3294
  101MOL    O3318233   6.702   6.988   5.498  0.4627  0.0622  0.1859
  101MOL    H3418234   6.958   6.901   5.560  0.7283 -2.0167  0.8662
  101MOL    H3518235   6.874   6.990   5.822  3.4586 -0.6061 -1.0119
  101MOL    H3618236   6.956   7.079   5.691  0.2860  0.2580  1.5982
  101MOL    H3718237   6.789   7.090   5.695 -1.2012 -2.5544 -0.6128
  101MOL    C3818238   6.594   6.994   5.395 -0.6069 -0.7734 -0.5911
  101MOL    C3918239   6.590   7.130   5.338  0.0692 -0.2008  0.9497
  101MOL    C4018240   6.461   6.948   5.443  0.1907  0.5765 -0.2317
  101MOL    O4118241   6.373   7.020   5.493  0.4567  0.5619  0.0057
  101MOL    O4218242   6.442   6.824   5.414  0.3319 -0.2301  0.3082
  101MOL    H4318243   6.625   6.933   5.310 -0.1501  0.0698 -1.0379
  101MOL    H4418244   6.566   7.215   5.401 -0.2873  0.7084 -0.4227
  101MOL    H4518245   6.688   7.151   5.294 -0.3159 -0.1565  0.1082
  101MOL    H4618246   6.522   7.137   5.254  0.8399  0.1375  0.3459
  101MOL    C4718247   6.314   6.762   5.422 -0.5841 -0.0755 -0.3858
  101MOL    C4818248   6.317   6.626   5.490 -0.0934  0.7724 -0.2852
  101MOL    C4918249   6.272   6.744   5.281 -0.0395  0.2555 -0.6116
  101MOL    O5018250   6.167   6.783   5.239 -0.3723 -0.5956  0.1312
  101MOL    O5118251   6.357   6.672   5.210  1.1764  0.1494  0.2891
  101MOL    H5218252   6.244   6.814   5.486 -0.0989 -0.1398  0.2056
  101MOL    H5318253   6.331   6.629   5.598  3.6426  1.4714 -0.7230
  101MOL    H5418254   6.225   6.569   5.472  1.5057 -1.7595 -0.6411
  101MOL    H5518255   6.398   6.562   5.455  0.3780  0.4912  1.3062
  101MOL    C5618256   6.328   6.629   5.077  0.2592 -0.3555 -0.2216
  101MOL    C5718257   6.445   6.531   5.052  1.2829  0.2424  0.0291
  101MOL    C5818258   6.330   6.741   4.976 -0.1701  0.6784  0.5217
  101MOL    O5918259   6.246   6.738   4.882 -0.4382  0.3174  0.3045
  101MOL    O6018260   6.444   6.807   4.980 -0.1808  0.3976  0.0084
  101MOL    H6118261   6.229   6.584   5.070  0.9985 -2.4112  1.9797
  101MOL    H6218262   6.544   6.575   5.069  1.3821  0.2829 -0.6542
  101MOL    H6318263   6.440   6.439   5.111 -1.7983  0.6277  0.4074
  101MOL    H6418264   6.445   6.492   4.951 -0.0415 -0.0926  0.1578
  101MOL    C6518265   6.488   6.889   4.870 -0.1098 -0.1661 -0.0968
  101MOL    C6618266   6.597   6.818   4.787 -0.5999  0.2272 -1.2486
  101MOL    C6718267   6.525   7.035   4.910 -0.3319 -0.1157  0.3350
  101MOL    O6818268   6.520   7.075   5.025 -0.0454 -0.0709  0.1094
  101MOL    O6918269   6.555   7.122   4.802  0.1969 -1.2196  0.2393
  101MOL    H7018270   6.400   6.911   4.811 -0.0722  0.2102 -0.0110
  101MOL    H7118271   6.647   6.743   4.848 -0.4805 -0.1188 -1.7684
  101MOL    H7218272   6.563   6.757   4.704 -0.0944 -0.4438 -0.9620
  101MOL    H7318273   6.664   6.897   4.752  0.6745  0.3152  1.2703
  101MOL    C7418274   6.569   7.264   4.820 -0.2779  0.1208 -0.2733
  101MOL    C7518275   6.598   7.331   4.684  0.5068 -0.1964  0.4941
  101MOL    C7618276   6.672   7.298   4.922  0.3573  0.0470  1.0437
  101MOL    O7718277   6.632   7.344   5.028  0.0434  0.1435 -0.2761
  101MOL    O7818278   6.792   7.269   4.871 -0.3489  0.2234 -0.3851
  101MOL    H7918279   6.471   7.291   4.858  0.0030  0.7072  0.0270
  101MOL    H8018280   6.506   7.346   4.628 -0.3132  0.0068  1.8774
  101MOL    H8118281   6.651   7.426   4.699 -1.1729  0.8363 -0.0217
  101MOL    H8218282   6.670   7.280   4.621  1.1659 -0.6486  1.5893
  101MOL    C8318283   6.911   7.271   4.955  0.0998 -0.3590  0.2112
  101MOL    C8418284   7.039   7.253   4.860 -0.6786 -0.2820  1.0308
  101MOL    C8518285   6.894   7.169   5.065  0.4363  0.0662  0.6760
  101MOL    O8618286   6.865   7.049   5.046  0.5450 -0.2704  0.4484
  101MOL    O8718287   6.942   7.227   5.178  0.2449 -0.5202  0.5649
  101MOL    H8818288   6.908   7.367   5.004 -0.7829 -0.5195  0.4792
  101MOL    H8918289   7.129   7.217   4.910  0.4876  2.6092  1.0773
  101MOL    H9018290   7.023   7.182   4.779  1.5824  0.7151 -0.3360
  101MOL    H9118291   7.065   7.345   4.809  2.1657 -1.6192 -0.0596
  101MOL    C9218292   6.993   7.149   5.288 -0.4353 -0.0373 -0.5638
  101MOL    C9318293   6.977   7.240   5.413  0.3721  0.6043  0.2554
  101MOL    C9418294   7.141   7.105   5.260  0.4774  1.2563 -0.4662
  101MOL    O9518295   7.202   7.137   5.156  0.0479  0.2299  0.3115
  101MOL    O9618296   7.176   7.016   5.357 -0.1956  0.7103  0.4860
  101MOL    H9718297   6.918   7.070   5.298  0.6580 -1.1028 -0.6090
  101MOL    H9818298   7.042   7.207   5.495 -1.3635  0.1926  1.4885
  101MOL    H9918299   7.015   7.339   5.389 -0.0058  0.3181 -1.6524
  101MOL   H10018300   6.877   7.255   5.453 -0.0299 -1.2475 -0.0149
  101MOL   C10118301   7.318   6.984   5.372  0.2627 -0.6885 -0.4298
  101MOL   C10218302   7.324   6.863   5.469 -0.0215 -0.4306  0.2998
  101MOL   C10318303   7.405   7.102   5.424 -0.0629 -0.2424  0.4867
  101MOL   O10418304   7.355   7.185   5.502 -0.1595 -0.6134  0.1258
  101MOL   O10518305   7.536   7.105   5.371 -0.2411  0.3284  0.4982
  101MOL   H10618306   7.362   6.938   5.284  0.0398 -0.6979 -0.5363
  101MOL   H10718307   7.313   6.902   5.570 -1.2895 -0.1492  0.0538
  101MOL   H10818308   7.241   6.795   5.449 -0.5434  0.9328 -2.3565
  101MOL   H10918309   7.419   6.813   5.450 -1.0610 -1.9273 -1.1140
  101MOL   C11018310   7.626   7.210   5.404 -0.3052  0.6447  0.8676
  101MOL   C11118311   7.681   7.257   5.270  0.2965 -0.5911  0.0247
  101MOL   C11218312   7.733   7.145   5.497  0.8254 -0.2698 -0.0447
  101MOL   O11318313   7.705   7.056   5.571  0.1361  0.4838 -0.4711
  101MOL   O11418314   7.852   7.215   5.493 -0.2968 -0.1507 -0.2998
  101MOL   H11518315   7.586   7.286   5.471 -2.0657 -0.6895  1.3849
  101MOL   H11618316   7.710   7.361   5.285  0.0696 -0.5068 -0.1249
  101MOL   H11718317   7.762   7.188   5.246  1.2863  0.7283 -0.5422
  101MOL   H11818318   7.606   7.244   5.192  1.0260  1.4424 -1.0690
  101MOL   C11918319   7.966   7.151   5.544  0.0785  0.2289 -0.3340
  101MOL   C12018320   8.056   7.259   5.612  0.5669 -0.4851 -0.1147
  101MOL   C12118321   8.039   7.090   5.424 -0.2685  1.0174  0.0902
  101MOL   O12218322   8.016   6.979   5.387  0.4143  0.3143 -0.2227
  101MOL   O12318323   8.116   7.181   5.343  0.1083  0.1466 -0.2162
  101MOL   H12418324   7.944   7.073   5.617 -0.1360  0.2999 -0.3226
  101MOL   H12518325   8.082   7.329   5.533 -1.7760  1.1069  0.4754
  101MOL   H12618326   7.987   7.308   5.681  0.4944 -0.7904  0.0317
  101MOL   H12718327   0.000   7.223   5.657  1.8659  1.5043 -1.0841
  101MOL   C12818328   0.033   7.129   5.226 -0.1469 -0.6448 -0.5922
  101MOL   C12918329   0.151   7.227   5.189  0.2290 -0.0601 -0.4994
  101MOL   C13018330   8.077   7.113   5.110 -0.4161 -0.0824  0.2265
  101MOL   O13118331   7.992   7.204   5.089  0.1383  0.4422  0.7551
  101MOL   O13218332   8.098   7.003   5.027 -0.1056 -0.7361 -0.8943
  101MOL   H13318333   0.078   7.034   5.255 -0.1824 -0.5514 -0.2227
  101MOL   H13418334   0.101   7.322   5.174 -0.7794 -0.4723  0.1476
  101MOL   H13518335   0.223   7.237   5.270 -1.9341  1.3435  1.3145
  101MOL   H13618336   0.213   7.195   5.105 -0.0385  1.8129 -1.4273
  101MOL   C13718337   8.019   6.982   4.908 -0.4297  0.3218  0.1093
  101MOL   C13818338   8.011   6.833   4.883  0.0648 -0.6186  0.0154
  101MOL   C13918339   8.085   7.045   4.790  0.6008 -0.2392 -0.1683
  101MOL   O14018340   8.073   7.168   4.767 -0.2261  0.1767 -0.6267
  101MOL   O14118341   0.017   6.963   4.709 -0.0864  0.3925  0.4776
  101MOL   H14218342   7.917   7.016   4.928 -0.5790 -0.6618  1.0612
  101MOL   H14318343   7.983   6.808   4.781  0.6405 -1.6487  0.0957
  101MOL   H14418344   8.112   6.795   4.899  0.2042  0.4247  1.7471
  101MOL   H14518345   7.937   6.786   4.948 -0.9175  1.5254  0.4640
  101MOL   C14618346   0.104   7.015   4.605  0.0582  0.3221  0.2836
  101MOL   C14718347   0.098   6.927   4.476 -0.4443 -0.4429  0.2836
  101MOL   C14818348   0.245   7.029   4.663 -0.3638  0.5596 -0.6112
  101MOL   O14918349   0.279   7.063   4.776 -0.3048  0.0018 -0.0698
  101MOL   O15018350   0.333   6.990   4.568 -0.2062  0.1915  0.3427
  101MOL   H15118351   0.086   7.117   4.571 -0.1364  1.2919  3.1579
  101MOL   H15218352   0.149   6.976   4.393 -1.4625  1.0459  0.5095
  101MOL   H15318353   0.148   6.833   4.499  2.4541  1.1592  0.8413
  101MOL   H15418354   0.001   6.894   4.440  0.7737 -2.9190 -0.8122
  101MOL   C15518355   0.467   6.955   4.608  0.1683  0.1096  0.6195
  101MOL   C15618356   0.565   7.062   4.587 -0.3075 -0.2438 -0.6524
  101MOL   C15718357   0.486   6.834   4.521 -0.3146  0.3161 -0.6022
  101MOL   O15818358   0.524   6.841   4.406  0.0981  0.0592 -0.8247
  101MOL   O15918359   0.447   6.724   4.586 -0.2451  0.0031  0.0868
  101MOL   H16018360   0.474   6.929   4.713  0.6128 -1.1399  0.2865
  101MOL   H16118361   0.591   7.082   4.484 -0.8030  3.3283 -0.1484
  101MOL   H16218362   0.538   7.155   4.637 -2.4773 -1.6713  0.9578
  101MOL   H16318363   0.667   7.039   4.616 -0.6191 -0.9439 -0.0721
  101MOL   C16418364   0.469   6.594   4.549  0.3833 -0.4841  0.2316
  101MOL   C16518365   0.375   6.553   4.436  0.0100  0.2005  0.0959
  101MOL   C16618366   0.472   6.516   4.681 -0.4643 -0.3263  0.2491
  101MOL   O16718367   0.376   6.524   4.760  0.3976 -0.1912 -0.4539
  101MOL   O16818368   0.578   6.437   4.693  0.0854  0.7752  0.2261
  101MOL   H16918369   0.570   6.585   4.508  0.1380 -0.0302 -0.5015
  101MOL   H17018370   0.369   6.444   4.429 -2.0584  0.3857 -1.5545
  101MOL   H17118371   0.273   6.587   4.455  0.1819 -0.0215  1.5006
  101MOL   H17218372   0.421   6.583   4.342  0.1027 -0.8948 -0.2186
  101MOL   C17318373   0.605   6.358   4.811  0.1671  0.3296  0.4759
  101MOL   C17418374   0.507   6.241   4.822  0.2640  0.6645 -0.2229
  101MOL   C17518375   0.607   6.446   4.939 -0.1283 -0.0237  0.5287
  101MOL   O17618376   0.541   6.432   5.037 -0.5525  0.8845  0.4025
  101MOL   O17718377   0.702   6.549   4.930 -0.0258  0.1840 -0.4319
  101MOL   H17818378   0.708   6.323   4.814 -1.1646 -3.5952  3.2794
  101MOL   H17918379   0.529   6.174   4.740 -2.5620  1.0787 -1.3942
  101MOL   H18018380   0.502   6.192   4.919 -0.0543  1.9598  0.4344
  101MOL   H18118381   0.405   6.276   4.802  1.0426  3.2401  0.1230
  101MOL   H18218382   0.760   6.546   4.855  1.8428 -0.3135  0.9843
  102MOL     C118383   8.019   5.826   4.356  0.0394  0.1469 -0.0732
  102MOL     C218384   8.135   5.871   4.262  0.7218 -0.1057 -0.5920
  102MOL     C318385   7.888   5.863   4.304  0.2434  1.1037 -0.6192
  102MOL     O418386   7.805   5.923   4.371 -0.2602  0.6784 -0.1379
  102MOL     O518387   7.865   5.817   4.183  0.5612  0.4482  0.6199
  102MOL     H618388   8.024   5.717   4.363 -1.8982 -0.0127 -0.8704
  102MOL     H718389   8.138   5.820   4.166 -0.2674 -0.8170 -0.2422
  102MOL     H818390   8.134   5.979   4.249  0.5514  0.2084  1.8484
  102MOL     H918391   0.075   5.853   4.325  1.1948  1.4021 -0.7997
  102MOL    H1018392   8.027   5.877   4.452 -1.4000  0.3179 -0.0409
  102MOL    C1118393   7.755   5.877   4.111  0.3811  0.5560 -0.0859
  102MOL    C1218394   7.731   5.795   3.988  0.4101 -0.3601  0.5056
  102MOL    C1318395   7.783   6.027   4.077  0.6204  0.2788  0.5217
  102MOL    O1418396   7.694   6.109   4.098 -0.2553  0.5734  0.0829
  102MOL    O1518397   7.900   6.049   4.009 -0.1080  0.1295  0.1475
  102MOL    H1618398   7.663   5.869   4.167  0.3430  0.3148 -0.1834
  102MOL    H1718399   7.806   5.808   3.910 -0.4384  0.8394 -0.1394
  102MOL    H1818400   7.719   5.691   4.016 -1.5885 -0.1636  0.5130
  102MOL    H1918401   7.647   5.811   3.920  0.2693 -2.4397  0.1534
  102MOL    C2018402   7.931   6.180   3.966 -0.1404  0.3423 -0.3146
  102MOL    C2118403   8.060   6.161   3.882  0.9836  0.3615  0.1097
  102MOL    C2218404   7.959   6.276   4.083 -0.9295  0.3079 -1.0445
  102MOL    O2318405   8.028   6.237   4.177  0.3743  0.1464  0.1295
  102MOL    O2418406   7.905   6.397   4.061  0.0771  0.1499  0.4693
  102MOL    H2518407   7.845   6.213   3.907 -0.0802  0.8937 -0.0978
  102MOL    H2618408   8.034   6.161   3.776 -1.4436  0.3158  0.6669
  102MOL    H2718409   8.128   6.246   3.891  1.5532 -0.1007  0.1713
  102MOL    H2818410   8.113   6.074   3.922 -0.7619 -0.0658  1.6019
  102MOL    C2918411   7.900   6.506   4.164 -0.3377 -0.3532 -0.1255
  102MOL    C3018412   7.847   6.633   4.100  0.6339 -0.6964  0.2502
  102MOL    C3118413   8.042   6.525   4.229 -0.0538 -0.9347 -0.2507
  102MOL    O3218414   8.062   6.519   4.352  0.0643 -0.3266 -0.3063
  102MOL    O3318415   8.124   6.574   4.139 -0.4384 -0.2628 -0.0456
  102MOL    H3418416   7.819   6.490   4.235  0.3457 -1.8664  0.3409
  102MOL    H3518417   7.910   6.683   4.025 -1.6816  1.8207 -0.1049
  102MOL    H3618418   7.758   6.621   4.038 -0.2925  0.3816  1.3491
  102MOL    H3718419   7.821   6.706   4.176  2.6822 -0.3836  0.6912
  102MOL    C3818420   0.105   6.621   4.173 -0.6993 -0.9556 -0.6108
  102MOL    C3918421   0.129   6.770   4.139  0.2783 -0.4023  0.0023
  102MOL    C4018422   0.202   6.525   4.102 -0.2412 -0.0855 -0.6526
  102MOL    O4118423   0.281   6.577   4.024  0.4846 -0.0971  0.7067
  102MOL    O4218424   0.214   6.401   4.151  0.3700 -0.5329  0.4452
  102MOL    H4318425   0.123   6.614   4.280 -2.7845 -0.1974 -0.1956
  102MOL    H4418426   0.121   6.790   4.032  2.5381 -1.3142 -0.3593
  102MOL    H4518427   0.066   6.837   4.198  1.0361 -1.3651  1.9726
  102MOL    H4618428   0.230   6.800   4.165  0.2773  0.4667 -1.0054
  102MOL    C4718429   0.314   6.306   4.104 -0.7628 -0.0525  0.5333
  102MOL    C4818430   0.254   6.227   3.985 -0.1955 -0.6949  0.0648
  102MOL    C4918431   0.351   6.219   4.222  0.3737  0.0064 -0.1521
  102MOL    O5018432   0.467   6.209   4.267 -0.3362 -0.5405 -0.1371
  102MOL    O5118433   0.247   6.151   4.273  0.0344 -0.1926 -0.0025
  102MOL    H5218434   0.401   6.364   4.073 -1.3772  1.4573  1.5377
  102MOL    H5318435   0.331   6.168   3.937  0.7550  0.4403  0.1801
  102MOL    H5418436   0.169   6.169   4.022 -1.6651 -0.4053 -2.7048
  102MOL    H5518437   0.210   6.290   3.908  2.6806  2.9012  1.2273
  102MOL    C5618438   0.244   6.107   4.411 -0.6667  0.2971  0.0958
  102MOL    C5718439   0.257   6.225   4.515 -0.7100 -0.1695  0.2994
  102MOL    C5818440   0.347   5.994   4.435 -0.9454  1.7364  0.1288
  102MOL    O5918441   0.402   5.935   4.337  0.2049  0.0963  0.2359
  102MOL    O6018442   0.382   5.970   4.563  0.3358 -0.3277  0.1833
  102MOL    H6118443   0.150   6.054   4.427 -1.1328  1.0287 -0.2223
  102MOL    H6218444   0.197   6.205   4.604 -1.9995  1.7146 -0.1189
  102MOL    H6318445   0.363   6.229   4.537 -0.6276  0.0520 -0.1247
  102MOL    H6418446   0.214   6.316   4.472  1.0270  0.2023 -0.6869
  102MOL    C6518447   0.484   5.883   4.608 -1.1512  0.4302 -1.1565
  102MOL    C6618448   0.624   5.925   4.558  0.1776 -0.2679 -0.4108
  102MOL    C6718449   0.454   5.734   4.583 -0.1645  0.3916 -0.6927
  102MOL    O6818450   0.337   5.700   4.556 -0.3323  0.2134  0.1581
  102MOL    O6918451   0.558   5.653   4.592 -0.1522  0.3784 -0.3927
  102MOL    H7018452   0.493   5.898   4.715  0.4234 -1.3903 -1.0175
  102MOL    H7118453   0.664   6.012   4.611 -0.0456  0.2073 -1.0098
  102MOL    H7218454   0.698   5.847   4.576 -0.1307 -0.5513 -0.3673
  102MOL    H7318455   0.613   5.956   4.454 -1.4291 -1.2318 -0.5456
  102MOL    C7418456   0.554   5.511   4.564 -0.0455 -0.6266  0.1675
  102MOL    C7518457   0.686   5.452   4.619  0.3840 -0.1723 -0.2536
  102MOL    C7618458   0.556   5.484   4.414  0.4558 -0.4425 -0.3382
  102MOL    O7718459   0.661   5.449   4.350 -0.2370  0.1234 -0.6241
  102MOL    O7818460   0.437   5.513   4.359 -0.0657 -0.0907 -0.0975
  102MOL    H7918461   0.465   5.465   4.609 -1.0381 -0.0659 -1.1915
  102MOL    H8018462   0.680   5.476   4.725  0.2294 -1.1318 -0.0405
  102MOL    H8118463   0.700   5.344   4.621 -1.8689 -0.4971 -0.7216
  102MOL    H8218464   0.775   5.501   4.580  1.0357 -0.2240  1.1408
  102MOL    C8318465   0.409   5.507   4.225 -0.5484 -0.3905  0.2268
  102MOL    C8418466   0.276   5.577   4.192 -0.0723  0.3692  0.3807
  102MOL    C8518467   0.414   5.364   4.164 -0.0994  0.1383  0.2927
  102MOL    O8618468   0.489   5.339   4.072  0.3464  0.1651  0.1149
  102MOL    O8718469   0.322   5.282   4.217 -0.2754 -0.3541 -0.7686
  102MOL    H8818470   0.492   5.564   4.182  0.7521 -2.2635  0.1778
  102MOL    H8918471   0.232   5.545   4.098  1.0887  0.8357 -0.3330
  102MOL    H9018472   0.206   5.557   4.274  0.3085  3.1630  1.4699
  102MOL    H9118473   0.284   5.686   4.195  0.3933  0.4280 -2.1635
  102MOL    C9218474   0.314   5.149   4.172  0.2020 -0.3171 -0.0467
  102MOL    C9318475   0.160   5.120   4.147 -0.2096 -0.1794 -0.8252
  102MOL    C9418476   0.371   5.055   4.282 -0.3613  0.4845  0.0416
  102MOL    O9518477   0.472   4.986   4.267 -0.7621 -1.0610 -0.1366
  102MOL    O9618478   0.291   5.043   4.394  0.5017  0.6647  0.9653
  102MOL    H9718479   0.360   5.123   4.076  0.8935 -1.2596  0.5374
  102MOL    H9818480   0.098   5.123   4.236  0.5463 -2.3882 -0.2198
  102MOL    H9918481   0.114   5.182   4.069 -0.4937 -0.5338 -0.9395
  102MOL   H10018482   0.142   5.019   4.111  0.2867 -1.1543  1.5953
  102MOL   C10118483   0.336   4.980   4.513 -0.3616 -0.1703  0.2948
  102MOL   C10218484   0.214   4.964   4.599  0.4158 -0.1249 -0.5024
  102MOL   C10318485   0.449   5.050   4.591 -0.8655 -0.5367 -0.5206
  102MOL   O10418486   0.482   5.169   4.569 -0.1420 -0.0024  0.7355
  102MOL   O10518487   0.517   4.974   4.672 -0.3594  0.3770 -0.1553
  102MOL   H10618488   0.364   4.877   4.491  0.8718  0.3683 -0.6926
  102MOL   H10718489   0.191   5.048   4.664  0.4475 -2.5097  2.7271
  102MOL   H10818490   0.130   4.925   4.542 -0.8341 -0.5206  1.5555
  102MOL   H10918491   0.239   4.895   4.679  1.3487  0.5571 -0.2016
  102MOL   C11018492   0.627   5.020   4.748 -0.4231  0.3455 -0.3850
  102MOL   C11118493   0.722   4.901   4.793  0.0615 -0.5106  0.6597
  102MOL   C11218494   0.586   5.105   4.867 -0.3117  0.4881 -0.5769
  102MOL   O11318495   0.601   5.229   4.869  0.0258  0.0227  0.2408
  102MOL   O11418496   0.544   5.046   4.977  0.0556  0.1377 -0.2062
  102MOL   H11518497   0.681   5.087   4.682 -0.9436 -0.7892 -2.0015
  102MOL   H11618498   0.688   4.856   4.886 -2.7149 -1.3954 -0.7134
  102MOL   H11718499   0.715   4.822   4.718 -0.9402 -0.1180  0.3195
  102MOL   H11818500   0.825   4.937   4.794  0.5049 -1.7767  0.6634
  102MOL   C11918501   0.496   5.115   5.094  0.0358  0.5313 -0.1640
  102MOL   C12018502   0.522   5.021   5.216  0.2613  0.3720 -0.2119
  102MOL   C12118503   0.347   5.140   5.086  1.0323  0.1660  0.1159
  102MOL   O12218504   0.266   5.091   5.006 -0.5726 -0.0868  0.0817
  102MOL   O12318505   0.313   5.223   5.191  0.2579 -0.3217 -0.3229
  102MOL   H12418506   0.553   5.208   5.103 -0.6733  1.0636 -1.0959
  102MOL   H12518507   0.480   5.053   5.311  0.9177  1.1798 -0.1857
  102MOL   H12618508   0.487   4.922   5.187 -0.0692  1.2851 -3.0677
  102MOL   H12718509   0.626   4.998   5.237  0.0422 -0.3887  0.0618
  102MOL   C12818510   0.172   5.249   5.224  0.3990 -0.4325  0.4319
  102MOL   C12918511   0.159   5.371   5.320 -0.4306  0.2188 -0.1547
  102MOL   C13018512   0.112   5.121   5.285 -0.7049  0.0519 -0.9758
  102MOL   O13118513   0.004   5.071   5.257  0.5329  1.1758 -0.7568
  102MOL   O13218514   0.190   5.080   5.388  0.3225 -0.1853  1.0926
  102MOL   H13318515   0.117   5.284   5.137  0.5722  1.2947  0.9934
  102MOL   H13418516   0.217   5.375   5.412 -0.0364  2.0198 -0.4699
  102MOL   H13518517   0.196   5.464   5.277  1.3404 -0.1181  0.6231
  102MOL   H13618518   0.054   5.372   5.349 -0.9602  0.9050 -2.0641
  102MOL   C13718519   0.155   4.971   5.475 -0.9540 -0.5301 -0.0061
  102MOL   C13818520   0.264   4.949   5.574 -0.2819  0.5924 -0.2992
  102MOL   C13918521   0.130   4.839   5.404 -0.6744 -1.1667 -0.1601
  102MOL   O14018522   0.191   4.796   5.309 -0.1390 -0.2396  0.2941
  102MOL   O14118523   0.024   4.777   5.452 -0.0667  0.0768  0.6060
  102MOL   H14218524   0.069   4.995   5.538 -0.4394  0.3789  0.3460
  102MOL   H14318525   0.303   5.041   5.618  1.5719  0.6919 -2.0882
  102MOL   H14418526   0.220   4.896   5.658 -2.3323  1.1498 -0.9987
  102MOL   H14518527   0.342   4.891   5.526  1.2279  2.9215 -0.7683
  102MOL   C14618528   8.129   4.645   5.414  0.5120 -0.0923  0.2555
  102MOL   C14718529   7.981   4.665   5.438 -0.1617 -0.1001 -0.4654
  102MOL   C14818530   0.043   4.537   5.506  0.4221 -0.1995  0.1714
  102MOL   O14918531   8.139   4.431   5.543  0.3773  0.6060  0.3708
  102MOL   O15018532   0.169   4.567   5.535  0.5541 -0.6191  0.4004
  102MOL   H15118533   0.010   4.627   5.311  1.5064  0.4017  0.4379
  102MOL   H15218534   7.977   4.679   5.546 -1.8785 -1.7661 -0.2784
  102MOL   H15318535   7.948   4.752   5.381 -1.1422 -0.0656  0.1375
  102MOL   H15418536   7.926   4.576   5.406 -1.0820 -0.8425  2.9158
  102MOL   C15518537   0.253   4.480   5.602  0.7220 -0.0166  0.2466
  102MOL   C15618538   0.270   4.535   5.746 -0.1848  0.0540 -0.3130
  102MOL   C15718539   0.387   4.479   5.529  0.0358  1.1228  0.2156
  102MOL   O15818540   0.434   4.373   5.492 -0.9092  0.0593  0.4104
  102MOL   O15918541   0.445   4.600   5.515  0.0166  0.0579  0.2804
  102MOL   H16018542   0.209   4.380   5.608 -0.0122  0.3489  0.9717
  102MOL   H16118543   0.351   4.482   5.797  0.5434  0.8534 -0.6244
  102MOL   H16218544   0.286   4.642   5.758 -0.4788  0.0732 -0.0830
  102MOL   H16318545   0.180   4.513   5.803 -0.7710  2.9128 -0.0414
  102MOL   C16418546   0.567   4.615   5.442  0.6856  0.7359  0.0200
  102MOL   C16518547   0.616   4.759   5.474  0.0033 -0.2239 -0.6024
  102MOL   C16618548   0.556   4.586   5.290  0.3665  0.7134 -0.1834
  102MOL   O16718549   0.647   4.532   5.227  0.8906  0.2653 -0.3671
  102MOL   O16818550   0.434   4.619   5.244  0.7077 -0.3724  0.4771
  102MOL   H16918551   0.640   4.546   5.484 -0.6995 -2.5663 -2.7433
  102MOL   H17018552   0.549   4.837   5.438  1.4117  2.0260  1.4669
  102MOL   H17118553   0.619   4.770   5.583 -1.2123  3.5747 -0.8931
  102MOL   H17218554   0.719   4.772   5.440 -0.9910  3.9516 -2.2192
  102MOL   C17318555   0.417   4.595   5.107  0.4302 -0.4878 -0.0415
  102MOL   C17418556   0.399   4.729   5.032  0.2939 -0.0319  0.6985
  102MOL   C17518557   0.294   4.502   5.095  0.4446  0.2421  0.4475
  102MOL   O17618558   0.292   4.402   5.030 -0.1926  0.1063 -0.2574
  102MOL   O17718559   0.182   4.546   5.164 -0.4802  0.3288  0.1942
  102MOL   H17818560   0.493   4.533   5.059  1.4950  0.8423 -0.1049
  102MOL   H17918561   0.328   4.720   4.951  0.7893 -0.6318  0.3251
  102MOL   H18018562   0.348   4.800   5.097  0.7580  1.4559 -0.5292
  102MOL   H18118563   0.487   4.772   4.984 -1.7452  1.7437 -1.5860
  102MOL   H18218564   0.206   4.619   5.219  0.7224  1.1599 -1.4150
  103MOL     C118565   3.555   1.098   8.138 -1.0738 -0.0625  0.5555
  103MOL     C218566   3.554   1.198   8.022 -0.0028 -0.0268 -0.5877
  103MOL     C318567   3.486   1.142   0.118 -0.0285 -0.4879  0.2897
  103MOL     O418568   3.535   1.128   0.230  0.0369  0.3519  0.6460
  103MOL     O518569   3.367   1.196   0.092 -0.1723 -0.0078  0.1091
  103MOL     H618570   3.501   1.008   8.107 -0.0455 -0.3038 -0.6166
  103MOL     H718571   3.459   1.180   7.971 -0.7239  0.8807  0.4244
  103MOL     H818572   3.564   1.302   8.054 -1.1687 -0.3567  0.9015
  103MOL     H918573   3.632   1.182   7.947  1.6719 -3.6941  1.7945
  103MOL    H1018574   3.658   1.072   0.014 -0.4402 -0.7995 -2.6722
  103MOL    C1118575   3.269   1.191   0.193  0.4138 -0.9190  0.4227
  103MOL    C1218576   3.138   1.176   0.119  0.6540 -0.2782 -0.6035
  103MOL    C1318577   3.262   1.321   0.276 -0.1946 -0.2702  0.1069
  103MOL    O1418578   3.343   1.415   0.263  0.6661  0.3996  0.2305
  103MOL    O1518579   3.170   1.317   0.368 -0.4545 -0.7682 -0.8556
  103MOL    H1618580   3.279   1.108   0.262  0.4052 -0.1093  1.4142
  103MOL    H1718581   3.118   1.264   0.057  0.3325  0.1149  0.0462
  103MOL    H1818582   3.141   1.090   0.053 -1.9536  2.3914 -4.3972
  103MOL    H1918583   3.058   1.176   0.193 -0.0949 -3.0779 -1.3721
  103MOL    C2018584   3.131   1.438   0.441  0.4299  0.2097  0.6886
  103MOL    C2118585   3.212   1.479   0.564  0.2535  0.0492  0.6950
  103MOL    C2218586   2.990   1.415   0.490  0.4493 -0.1819  0.0748
  103MOL    O2318587   2.942   1.298   0.489 -0.2521 -1.0984  0.0246
  103MOL    O2418588   2.934   1.515   0.547 -0.2357 -0.4192  0.4077
  103MOL    H2518589   3.116   1.519   0.370 -0.7010  1.3863  2.2125
  103MOL    H2618590   3.161   1.553   0.625 -1.1317  0.6611 -1.1499
  103MOL    H2718591   3.227   1.398   0.635  1.8018  0.6965  1.1312
  103MOL    H2818592   3.307   1.523   0.533  1.0212 -0.8547  1.7649
  103MOL    C2918593   2.816   1.505   0.624 -0.2342  0.2930  0.2375
  103MOL    C3018594   2.700   1.531   0.530 -0.4807 -0.9179 -0.3140
  103MOL    C3118595   2.824   1.608   0.736  0.3258 -0.3192  0.1800
  103MOL    O3218596   2.746   1.704   0.742 -0.0184 -0.3025  0.7113
  103MOL    O3318597   2.916   1.576   0.826 -0.5233 -0.5636  0.0311
  103MOL    H3418598   2.803   1.402   0.658 -1.4671 -0.2327 -1.7223
  103MOL    H3518599   2.725   1.604   0.453  1.7412 -1.6706 -0.3532
  103MOL    H3618600   2.670   1.440   0.478  0.0862 -0.5954 -1.2238
  103MOL    H3718601   2.612   1.573   0.579 -2.2101 -2.4935 -1.9755
  103MOL    C3818602   2.948   1.663   0.937 -0.0971 -0.6284 -0.3558
  103MOL    C3918603   3.097   1.655   0.969  0.2968  0.1998  0.0697
  103MOL    C4018604   2.855   1.633   1.056  0.0480  0.7218  0.7541
  103MOL    O4118605   2.753   1.560   1.046  0.5924 -0.3337  0.6533
  103MOL    O4218606   2.893   1.696   1.166 -0.3138  0.1885  0.4746
  103MOL    H4318607   2.928   1.766   0.906  2.0041 -0.1166 -0.1330
  103MOL    H4418608   3.133   1.557   1.000 -0.6679 -0.6161 -1.3386
  103MOL    H4518609   3.154   1.671   0.877 -0.8583 -0.5501 -0.7870
  103MOL    H4618610   3.118   1.733   1.042 -0.2041 -1.7386  2.3361
  103MOL    C4718611   2.829   1.661   1.287 -0.4265  0.3156  0.1624
  103MOL    C4818612   2.851   1.767   1.391 -0.3028  0.4857  0.2543
  103MOL    C4918613   2.885   1.528   1.337  0.2450 -0.1653 -0.1612
  103MOL    O5018614   2.815   1.451   1.400  0.9670  0.0607 -0.0682
  103MOL    O5118615   3.020   1.516   1.312  0.2260  0.1987  0.5498
  103MOL    H5218616   2.722   1.644   1.277 -0.1850 -1.0955 -0.1636
  103MOL    H5318617   2.823   1.869   1.363 -2.3598 -0.2427 -0.4302
  103MOL    H5418618   2.815   1.739   1.489  0.5130 -0.8757  0.1786
  103MOL    H5518619   2.960   1.762   1.403 -0.5233 -0.7361  1.7578
  103MOL    C5618620   3.086   1.393   1.339  0.6734  0.2340  0.0363
  103MOL    C5718621   3.236   1.424   1.336  0.3751 -0.2372  0.4949
  103MOL    C5818622   3.035   1.278   1.245 -0.4930 -0.1042  0.5793
  103MOL    O5918623   3.005   1.169   1.296  0.2732 -0.0674  0.2846
  103MOL    O6018624   3.039   1.313   1.111 -0.2052 -0.3759 -0.6249
  103MOL    H6118625   3.055   1.370   1.441  2.3666  1.7686  0.9140
  103MOL    H6218626   3.263   1.473   1.243 -1.2296  0.2240  0.2657
  103MOL    H6318627   3.264   1.480   1.426 -1.4528  0.9559  0.3367
  103MOL    H6418628   3.286   1.327   1.339 -0.0527 -0.5217 -1.2210
  103MOL    C6518629   2.998   1.219   1.002  0.5170  0.3949 -0.7179
  103MOL    C6618630   3.068   1.262   0.873  0.0448  0.9829  0.0841
  103MOL    C6718631   2.844   1.219   0.983  0.1151  0.4183 -0.2135
  103MOL    O6818632   2.788   1.263   0.881 -0.4961  0.8138  0.1196
  103MOL    O6918633   2.779   1.162   1.087 -0.5560 -0.2332 -0.1416
  103MOL    H7018634   3.024   1.118   1.037 -1.7609  0.2697  0.7165
  103MOL    H7118635   3.062   1.369   0.851 -0.9327  0.6457 -1.3527
  103MOL    H7218636   3.175   1.246   0.887  0.1060  1.1741 -0.1668
  103MOL    H7318637   3.030   1.213   0.783  1.3280  0.0991  0.0099
  103MOL    C7418638   2.641   1.145   1.092  0.2146 -0.1182 -0.3004
  103MOL    C7518639   2.593   1.177   1.232  0.1441  0.2746  0.4556
  103MOL    C7618640   2.617   1.002   1.043 -0.0827 -0.1536 -0.3670
  103MOL    O7718641   2.553   0.986   0.940  0.1986 -0.2928  0.4656
  103MOL    O7818642   2.673   0.906   1.122 -0.7783 -0.1942  0.0836
  103MOL    H7918643   2.600   1.229   1.037 -0.6154 -0.5522 -0.3392
  103MOL    H8018644   2.652   1.251   1.287  0.9995  1.2372 -1.6760
  103MOL    H8118645   2.486   1.201   1.230  0.1082  0.0779  0.0443
  103MOL    H8218646   2.611   1.095   1.302  0.2713 -2.0679 -2.2519
  103MOL    C8318647   2.680   0.773   1.079  0.3896 -0.3027  0.5121
  103MOL    C8418648   2.726   0.690   1.200  0.4224  0.1211 -0.0889
  103MOL    C8518649   2.770   0.759   0.957  0.3225  0.4957 -0.6748
  103MOL    O8618650   2.872   0.837   0.943  0.1914 -0.0409  0.4260
  103MOL    O8718651   2.748   0.657   0.865  0.0791 -0.3107 -0.3773
  103MOL    H8818652   2.584   0.729   1.053 -0.0096  1.1914 -0.6330
  103MOL    H8918653   2.831   0.712   1.216  0.1194  1.4235  0.2037
  103MOL    H9018654   2.674   0.723   1.290 -0.4542 -0.9982 -0.1674
  103MOL    H9118655   2.710   0.582   1.192 -0.0501  0.2195 -0.5404
  103MOL    C9218656   2.834   0.640   0.754  0.6310 -0.7436 -1.1610
  103MOL    C9318657   2.750   0.622   0.623 -0.6380  0.6885 -0.4586
  103MOL    C9418658   2.921   0.524   0.775  0.1135  0.1841  0.5271
  103MOL    O9518659   3.028   0.515   0.715  0.4634 -0.5568 -0.4283
  103MOL    O9618660   2.868   0.439   0.865 -0.3936  0.6226 -0.3418
  103MOL    H9718661   2.902   0.723   0.737  0.8220 -0.2606  1.8224
  103MOL    H9818662   2.712   0.521   0.635  0.2884  0.6195  2.4171
  103MOL    H9918663   2.666   0.692   0.621 -1.4058 -0.1477  1.3528
  103MOL   H10018664   2.809   0.625   0.532  1.9670  1.3847  1.1782
  103MOL   C10118665   2.942   0.321   0.909 -0.1285  0.4244  0.1183
  103MOL   C10218666   2.934   0.199   0.808  0.4925  0.0144  0.1548
  103MOL   C10318667   2.882   0.292   1.049 -0.3468 -0.0663  0.3309
  103MOL   O10418668   2.833   0.378   1.114 -0.1236 -0.5591  0.2147
  103MOL   O10518669   2.907   0.167   1.086  0.0977  0.8717  0.1824
  103MOL   H10618670   3.044   0.356   0.923 -0.0431 -0.6382  2.3472
  103MOL   H10718671   2.833   0.159   0.806  1.2817 -1.9459 -1.6830
  103MOL   H10818672   2.964   0.230   0.708 -0.4356 -0.7955 -0.3843
  103MOL   H10918673   2.998   0.121   0.849  1.2562 -0.1111 -1.2463
  103MOL   C11018674   2.890   0.109   1.220 -0.2583 -0.5726  0.0507
  103MOL   C11118675   2.927   8.108   1.211 -0.5773  0.1070 -0.3648
  103MOL   C11218676   2.750   0.135   1.270  0.6957 -0.1727 -0.2911
  103MOL   O11318677   2.646   0.117   1.205 -0.2164  0.5003  0.3012
  103MOL   O11418678   2.750   0.185   1.393 -0.2788 -0.2961  0.6743
  103MOL   H11518679   2.961   0.167   1.278 -0.3918 -0.7195  0.3628
  103MOL   H11618680   2.946   8.067   1.310  0.7156 -0.8001 -0.9798
  103MOL   H11718681   2.849   8.046   1.166  0.5845 -1.8831  0.2877
  103MOL   H11818682   3.019   8.094   1.155 -0.3623 -0.5225  0.1418
  103MOL   C11918683   2.635   0.231   1.466 -0.2499 -0.1890  0.3903
  103MOL   C12018684   2.628   0.385   1.496  0.4664 -0.3928  0.2796
  103MOL   C12118685   2.621   0.157   1.599 -0.1465  0.5540  0.4948
  103MOL   O12218686   2.704   0.072   1.616  0.4244  0.4289  0.6718
  103MOL   O12318687   2.520   0.200   1.682  0.3124  0.5327 -0.0720
  103MOL   H12418688   2.546   0.202   1.409  0.7322 -2.1152 -0.1883
  103MOL   H12518689   2.541   0.408   1.558  0.4986  2.1099 -0.5575
  103MOL   H12618690   2.713   0.419   1.554 -0.7502  0.3132  1.6891
  103MOL   H12718691   2.628   0.449   1.408 -0.6397  0.3457  0.8024
  103MOL   C12818692   2.500   0.145   1.813 -0.1437 -0.8555  0.3220
  103MOL   C12918693   2.362   0.203   1.865  0.0916 -0.2280 -0.0097
  103MOL   C13018694   2.621   0.170   1.905 -0.0340  0.1367  0.1364
  103MOL   O13118695   2.723   0.236   1.884  0.2075  0.1678  0.1982
  103MOL   O13218696   2.600   0.116   2.024  0.2904 -0.1695 -0.0955
  103MOL   H13318697   2.487   0.036   1.814 -1.4097 -0.7173 -0.1853
  103MOL   H13418698   2.293   0.176   1.785 -0.8362  1.4273  0.2024
  103MOL   H13518699   2.339   0.157   1.960 -0.9443  2.8322  1.2914
  103MOL   H13618700   2.370   0.312   1.867  5.4042 -0.4562  0.0457
  103MOL   C13718701   2.677   0.139   2.143 -0.2587 -0.3121 -0.3244
  103MOL   C13818702   2.654   0.036   2.253 -0.1829  0.5560 -0.2953
  103MOL   C13918703   2.674   0.285   2.201  0.3137  0.3412  0.3584
  103MOL   O14018704   2.770   0.363   2.207  0.0053  0.2019 -0.3322
  103MOL   O14118705   2.541   0.322   2.233 -0.0675  0.0553 -0.1414
  103MOL   H14218706   2.781   0.114   2.125 -0.5044 -2.8217  1.5523
  103MOL   H14318707   2.546   0.022   2.256 -0.3337  1.3679 -1.8753
  103MOL   H14418708   2.709   8.089   2.247 -0.8500  0.0272  1.5211
  103MOL   H14518709   2.684   0.075   2.350 -0.6000 -1.8138  0.8358
  103MOL   C14618710   2.500   0.459   2.253  0.0317 -0.1149  0.0592
  103MOL   C14718711   2.411   0.465   2.377  0.6250 -1.1237 -0.7973
  103MOL   C14818712   2.434   0.512   2.133  0.3997  0.3301 -0.1727
  103MOL   O14918713   2.316   0.506   2.111  0.1158  0.2108  0.1919
  103MOL   O15018714   2.525   0.553   2.044 -0.2597  0.3579 -0.1337
  103MOL   H15118715   2.583   0.527   2.274 -0.1798  0.2080 -0.1310
  103MOL   H15218716   2.355   0.374   2.400 -1.2124  0.2052  0.1659
  103MOL   H15318717   2.476   0.483   2.463 -0.2004 -0.1371 -0.3641
  103MOL   H15418718   2.346   0.552   2.372  0.1717 -1.3372  0.8562
  103MOL   C15518719   2.506   0.600   1.914  0.6414  0.1655 -0.4294
  103MOL   C15618720   2.626   0.554   1.827  0.2610 -0.0926  0.0773
  103MOL   C15718721   2.484   0.750   1.907 -0.0353 -0.0645 -0.1790
  103MOL   O15818722   2.466   0.819   2.007  0.1027  0.3090 -0.2366
  103MOL   O15918723   2.491   0.801   1.784  0.3446 -0.2213 -0.0769
  103MOL   H16018724   2.412   0.565   1.871  0.7879 -2.2341  1.0921
  103MOL   H16118725   2.605   0.578   1.723  0.6007 -0.1918 -0.0156
  103MOL   H16218726   2.718   0.606   1.855  0.4384 -0.1065 -0.4569
  103MOL   H16318727   2.656   0.450   1.836  0.9741 -0.0647 -1.6685
  103MOL   C16418728   2.477   0.943   1.752  0.5903 -0.2870  0.3138
  103MOL   C16518729   2.485   0.943   1.605  0.7361  0.4218  0.2290
  103MOL   C16618730   2.595   1.023   1.816  0.1166  0.7371 -0.3571
  103MOL   O16718731   2.699   0.971   1.841  0.3296 -0.0081 -0.2238
  103MOL   O16818732   2.566   1.156   1.821  0.1105 -0.0488  0.5963
  103MOL   H16918733   2.375   0.973   1.774  0.0209 -0.6363 -1.7977
  103MOL   H17018734   2.438   1.035   1.570 -1.8957 -0.1905  2.0143
  103MOL   H17118735   2.590   0.945   1.577  0.8584 -1.9111  0.4085
  103MOL   H17218736   2.437   0.855   1.562  1.2052 -0.3989  1.3803
  103MOL   C17318737   2.664   1.253   1.834 -0.2933  0.3628 -0.2627
  103MOL   C17418738   2.623   1.355   1.944 -0.1695  0.3151  0.0716
  103MOL   C17518739   2.689   1.315   1.692 -0.1546 -0.0192  0.1723
  103MOL   O17618740   2.673   1.432   1.662  0.0761 -0.2655 -0.1387
  103MOL   O17718741   2.734   1.216   1.607 -0.2582 -0.2325 -0.5773
  103MOL   H17818742   2.751   1.199   1.871 -2.1627 -1.6586  1.3009
  103MOL   H17918743   2.679   1.448   1.936 -1.3101  0.8312 -2.2398
  103MOL   H18018744   2.515   1.372   1.941 -0.1253  1.0453  2.2413
  103MOL   H18118745   2.630   1.302   2.039  1.0819 -0.1904 -0.2870
  103MOL   H18218746   2.756   1.257   1.525  0.2265 -0.0512 -0.3623
  104MOL     C118747   5.907   2.558   1.929 -0.1501  0.2114 -0.1541
  104MOL     C218748   5.890   2.405   1.892  0.7778 -0.4960 -0.4052
  104MOL     C318749   5.901   2.565   2.082  0.0876  1.2965  0.8734
  104MOL     O418750   5.999   2.576   2.147 -0.4050  0.2117  0.2929
  104MOL     O518751   5.771   2.549   2.126 -0.3555  0.1308 -0.2298
  104MOL     H618752   6.004   2.601   1.906  0.0430 -0.3008 -0.3109
  104MOL     H718753   5.927   2.397   1.790  0.3365 -0.3278 -0.5770
  104MOL     H818754   5.961   2.349   1.954  1.7909  0.3720 -0.7751
  104MOL     H918755   5.790   2.363   1.904  0.2592  0.9173  0.3020
  104MOL    H1018756   5.829   2.620   1.885  2.1976  2.6299 -0.9707
  104MOL    C1118757   5.726   2.534   2.265 -0.1926  0.0785  0.1414
  104MOL    C1218758   5.755   2.657   2.343 -0.2215 -0.3689 -0.2758
  104MOL    C1318759   5.791   2.415   2.336 -0.3043  0.2241  0.4813
  104MOL    O1418760   5.870   2.424   2.425 -0.0978  0.6622 -0.2877
  104MOL    O1518761   5.755   2.305   2.276 -0.0420 -0.6161 -0.1445
  104MOL    H1618762   5.621   2.509   2.250 -0.3934  0.8149  0.3325
  104MOL    H1718763   5.726   2.745   2.285  0.2857  0.6949  1.0731
  104MOL    H1818764   5.712   2.664   2.443 -0.6617  3.5318 -0.6526
  104MOL    H1918765   5.863   2.672   2.344  0.0072 -2.0633  1.8222
  104MOL    C2018766   5.807   2.179   2.310  0.9690  0.7583  0.6149
  104MOL    C2118767   5.770   2.089   2.195 -0.4281 -0.5432 -0.0453
  104MOL    C2218768   5.755   2.130   2.448 -0.3795 -0.1713 -0.5019
  104MOL    O2318769   5.831   2.113   2.543 -0.3420 -0.3594  0.0185
  104MOL    O2418770   5.617   2.105   2.446 -0.3597 -0.6028 -0.3749
  104MOL    H2518771   5.914   2.181   2.329  0.8609  2.6578  1.1798
  104MOL    H2618772   5.821   1.994   2.213  0.9371  0.1850  0.0625
  104MOL    H2718773   5.669   2.053   2.213  0.2756 -2.3402  0.4239
  104MOL    H2818774   5.798   2.130   2.098  0.6894  1.3700  1.0686
  104MOL    C2918775   5.556   2.055   2.568 -0.9629  0.2696 -0.2289
  104MOL    C3018776   5.547   1.897   2.553  0.1340 -0.0750 -0.2497
  104MOL    C3118777   5.426   2.128   2.597  0.0851  0.8770 -0.9082
  104MOL    O3218778   5.328   2.079   2.653  0.4661 -0.2033 -0.0426
  104MOL    O3318779   5.431   2.253   2.548 -0.1250  0.0513  0.3070
  104MOL    H3418780   5.616   2.059   2.659 -0.0342 -0.1395 -0.8208
  104MOL    H3518781   5.513   1.860   2.649  1.5273  1.3846  0.8495
  104MOL    H3618782   5.461   1.882   2.488  0.6376  0.5994 -1.0907
  104MOL    H3718783   5.636   1.842   2.522  0.2151  0.4977 -1.0620
  104MOL    C3818784   5.357   2.357   2.602  0.2038  0.0202 -0.2883
  104MOL    C3918785   5.341   2.461   2.496  0.0717 -0.3893 -0.1949
  104MOL    C4018786   5.428   2.403   2.728  0.2446  0.0606  0.6371
  104MOL    O4118787   5.371   2.406   2.839 -0.6996  0.2777  0.0038
  104MOL    O4218788   5.559   2.430   2.712  0.3864 -0.5575  0.1487
  104MOL    H4318789   5.258   2.323   2.633 -0.4320  1.3392 -0.8477
  104MOL    H4418790   5.292   2.549   2.539  0.3027 -0.9269  1.1844
  104MOL    H4518791   5.435   2.503   2.460  0.4019 -0.7364  0.2558
  104MOL    H4618792   5.275   2.423   2.418  2.0914  0.6494 -2.4878
  104MOL    C4718793   5.635   2.474   2.825 -0.6145 -0.1737 -0.2112
  104MOL    C4818794   5.764   2.528   2.769  0.0596 -0.1964 -0.3607
  104MOL    C4918795   5.672   2.361   2.919 -0.0200 -0.1123 -0.8462
  104MOL    O5018796   5.665   2.383   3.041 -0.0372 -0.1624 -0.3747
  104MOL    O5118797   5.725   2.252   2.857  0.2946  0.5364 -0.6778
  104MOL    H5218798   5.581   2.553   2.879 -0.6038 -1.0721  1.1382
  104MOL    H5318799   5.795   2.594   2.850  0.1004  1.2074 -1.5093
  104MOL    H5418800   5.846   2.461   2.742 -0.0267  0.3619 -2.0790
  104MOL    H5518801   5.753   2.589   2.679  0.1416  0.2731 -0.0568
  104MOL    C5618802   5.781   2.142   2.936  0.1333  0.1036 -0.3445
  104MOL    C5718803   5.844   2.039   2.843 -0.5229  0.0077  1.0961
  104MOL    C5818804   5.671   2.075   3.021  0.2317  0.7296  0.6780
  104MOL    O5918805   5.677   2.075   3.146  0.8974 -0.0415 -0.4911
  104MOL    O6018806   5.584   2.007   2.953 -0.5550 -0.0354 -0.6138
  104MOL    H6118807   5.858   2.171   3.007 -0.1694  0.7427 -0.2753
  104MOL    H6218808   5.912   2.099   2.781 -0.9818  0.9797  1.5241
  104MOL    H6318809   5.906   1.967   2.897  1.7062  1.1991  0.2090
  104MOL    H6418810   5.771   1.977   2.790 -2.1294  1.8738  1.0621
  104MOL    C6518811   5.473   1.936   3.017 -0.1058  0.3651 -0.5061
  104MOL    C6618812   5.422   1.820   2.925 -0.2609  0.3727 -0.4062
  104MOL    C6718813   5.360   2.037   3.054  0.1076 -0.6193  0.7346
  104MOL    O6818814   5.318   2.034   3.170 -0.2983  0.3033  0.0895
  104MOL    O6918815   5.304   2.101   2.946 -0.2296  0.2384 -0.4991
  104MOL    H7018816   5.515   1.885   3.104 -1.1493  2.8919  1.5358
  104MOL    H7118817   5.345   1.767   2.980 -0.3264 -0.5218 -1.3405
  104MOL    H7218818   5.393   1.857   2.827  1.1147  0.4282 -0.8040
  104MOL    H7318819   5.508   1.755   2.908  0.3448  1.2631 -0.8169
  104MOL    C7418820   5.165   2.136   2.949  0.3894 -0.9624  0.0950
  104MOL    C7518821   5.126   2.244   3.050 -0.5054 -0.2979 -1.0720
  104MOL    C7618822   5.068   2.013   2.955  0.8817  1.1125 -1.0157
  104MOL    O7718823   5.109   1.895   2.940  0.0431 -0.3277 -0.2503
  104MOL    O7818824   4.935   2.046   2.978 -0.0467  0.2594  0.5121
  104MOL    H7918825   5.155   2.174   2.847  1.3019 -0.3082  0.2474
  104MOL    H8018826   5.024   2.280   3.058  0.0145  0.6177  2.2351
  104MOL    H8118827   5.147   2.218   3.154  0.0259  0.5827 -0.9606
  104MOL    H8218828   5.175   2.340   3.038 -2.1072  0.6250 -0.3248
  104MOL    C8318829   4.831   1.952   2.954 -0.1857 -0.0677  0.5263
  104MOL    C8418830   4.694   2.017   2.947  0.4500  0.3311  0.9723
  104MOL    C8518831   4.828   1.854   3.074 -0.2228  0.1644  0.1869
  104MOL    O8618832   4.843   1.888   3.191 -0.1068 -0.0265  0.3188
  104MOL    O8718833   4.791   1.732   3.031 -0.1856  0.3514  0.3972
  104MOL    H8818834   4.851   1.893   2.864 -0.1992 -0.6779  0.9177
  104MOL    H8918835   4.676   2.058   3.047  0.0326  1.9277  0.2545
  104MOL    H9018836   4.689   2.101   2.878 -1.7862  0.2784  1.0542
  104MOL    H9118837   4.613   1.949   2.922 -1.6388  2.8920  0.5359
  104MOL    C9218838   4.806   1.621   3.117  0.2260  0.2444  0.9573
  104MOL    C9318839   4.957   1.592   3.142  0.2966  0.0587 -0.0207
  104MOL    C9418840   4.736   1.497   3.063 -1.0941  0.1116  0.5389
  104MOL    O9518841   4.723   1.468   2.942  0.1599 -0.1119  0.1700
  104MOL    O9618842   4.715   1.412   3.161  0.3870 -0.1443 -0.0169
  104MOL    H9718843   4.770   1.639   3.218 -0.0695  1.5112  0.6370
  104MOL    H9818844   5.013   1.670   3.194 -1.4607  1.4716 -0.1922
  104MOL    H9918845   4.960   1.503   3.205 -1.1237 -0.3833 -0.5447
  104MOL   H10018846   5.022   1.567   3.059  1.4524 -1.3167  1.2730
  104MOL   C10118847   4.672   1.277   3.134  0.0204  0.5234  0.0204
  104MOL   C10218848   4.578   1.236   3.254 -0.0840  0.3914  0.3495
  104MOL   C10318849   4.791   1.183   3.114 -0.6522  0.2309  0.5055
  104MOL   O10418850   4.790   1.071   3.166 -0.0999  0.3560 -0.6294
  104MOL   O10518851   4.877   1.233   3.035  0.2298 -0.0919  0.1866
  104MOL   H10618852   4.616   1.267   3.041  0.0356  3.2447 -0.3089
  104MOL   H10718853   4.528   1.143   3.227  0.4741 -0.0731  0.8952
  104MOL   H10818854   4.620   1.235   3.355 -1.2904 -0.9854  0.8646
  104MOL   H10918855   4.494   1.306   3.257  0.0307  0.5854 -0.8386
  104MOL   C11018856   5.003   1.171   3.017  0.1938  0.3103 -0.1660
  104MOL   C11118857   5.106   1.261   2.942  0.5261  0.5312  0.3350
  104MOL   C11218858   4.999   1.040   2.943  0.0216 -0.2192  0.1662
  104MOL   O11318859   4.905   1.013   2.865 -0.1136 -0.4952  0.1250
  104MOL   O11418860   5.113   0.964   2.967 -0.0890 -0.3049  0.3055
  104MOL   H11518861   5.043   1.154   3.117  0.6268  0.8563 -0.2461
  104MOL   H11618862   5.116   1.345   3.010 -2.4446  0.5594  0.8152
  104MOL   H11718863   5.197   1.213   2.906 -1.6274 -1.0139 -3.2645
  104MOL   H11818864   5.052   1.311   2.862  0.6749  3.1921  1.8495
  104MOL   C11918865   5.100   0.821   2.939 -0.3543  0.2628 -0.1461
  104MOL   C12018866   5.078   0.756   3.082  0.5346 -0.1356  0.5244
  104MOL   C12118867   5.222   0.764   2.861  0.0398  0.4367  0.0819
  104MOL   O12218868   5.281   0.848   2.793 -0.5373 -0.3236 -0.4187
  104MOL   O12318869   5.239   0.631   2.859  0.2236  0.5735 -0.1993
  104MOL   H12418870   5.010   0.801   2.881 -0.8750  3.6717 -0.6210
  104MOL   H12518871   5.034   0.657   3.072 -1.2678  0.8951 -2.4153
  104MOL   H12618872   5.169   0.737   3.138  0.9092  1.1408  0.3838
  104MOL   H12718873   4.995   0.795   3.141  0.9701  2.0686 -0.2421
  104MOL   C12818874   5.316   0.566   2.761 -0.0613  0.1469  0.7050
  104MOL   C12918875   5.231   0.447   2.697 -0.6079 -0.4334  0.0526
  104MOL   C13018876   5.441   0.518   2.826  0.3913  0.0194 -0.7539
  104MOL   O13118877   5.474   0.399   2.821 -0.2140 -0.1767 -0.1474
  104MOL   O13218878   5.511   0.610   2.891  0.1822  0.3136 -0.0317
  104MOL   H13318879   5.340   0.630   2.676 -0.3843  0.9855  1.2440
  104MOL   H13418880   5.285   0.392   2.620 -0.5962 -3.2300  2.0030
  104MOL   H13518881   5.179   0.381   2.766 -0.6499 -0.3607  0.0905
  104MOL   H13618882   5.153   0.497   2.639 -1.0021 -1.9761 -0.7524
  104MOL   C13718883   5.611   0.557   2.983 -0.4779 -0.2957  0.5037
  104MOL   C13818884   5.641   0.664   3.089 -0.4625  0.0703  0.2334
  104MOL   C13918885   5.735   0.509   2.901  0.3172  0.4351 -0.4133
  104MOL   O14018886   5.792   0.405   2.932  0.3456 -0.1396 -0.4415
  104MOL   O14118887   5.767   0.594   2.805 -0.4432  0.5882  0.3373
  104MOL   H14218888   5.565   0.482   3.047 -2.4842  1.3221  1.0418
  104MOL   H14318889   5.712   0.622   3.161  0.2726 -0.1283 -0.6010
  104MOL   H14418890   5.686   0.751   3.043 -0.0847  0.4304  1.2621
  104MOL   H14518891   5.546   0.689   3.136 -0.0508 -0.0432  1.1357
  104MOL   C14618892   5.874   0.572   2.717  0.0634 -0.6967  0.5017
  104MOL   C14718893   5.943   0.703   2.686 -0.3875  0.5406 -0.1871
  104MOL   C14818894   5.827   0.490   2.599 -0.6913  0.2357 -0.4019
  104MOL   O14918895   5.863   0.375   2.580  0.3283  0.0468  0.5723
  104MOL   O15018896   5.751   0.562   2.519  0.2080 -0.3854 -0.0595
  104MOL   H15118897   5.955   0.510   2.755  0.5772 -1.5265 -1.8827
  104MOL   H15218898   6.041   0.675   2.649 -0.7270  0.1686 -0.7999
  104MOL   H15318899   5.897   0.763   2.608 -0.4712 -1.4590 -1.7104
  104MOL   H15418900   5.972   0.757   2.776  0.3285  0.1403 -0.1754
  104MOL   C15518901   5.703   0.506   2.400  0.3592  0.3877  0.3866
  104MOL   C15618902   5.697   0.613   2.292 -0.0696 -0.1510 -0.4933
  104MOL   C15718903   5.555   0.454   2.421 -0.2183  0.5931 -0.3797
  104MOL   O15818904   5.474   0.514   2.492 -0.2498 -0.9372 -0.2338
  104MOL   O15918905   5.535   0.350   2.346 -0.0988  0.4749  0.7209
  104MOL   H16018906   5.773   0.436   2.355  0.2775  0.4409  0.1764
  104MOL   H16118907   5.673   0.576   2.192  1.3994 -1.3942 -0.4117
  104MOL   H16218908   5.629   0.688   2.331 -1.1353 -1.6653  0.5843
  104MOL   H16318909   5.798   0.656   2.288 -0.8047  1.5425 -1.6932
  104MOL   C16418910   5.411   0.280   2.347 -0.6167 -0.0412 -0.3261
  104MOL   C16518911   5.426   0.171   2.458 -0.5371  0.3542  0.5368
  104MOL   C16618912   5.400   0.216   2.212  0.4751  0.1781 -0.9192
  104MOL   O16718913   5.364   0.098   2.196  0.1313  0.3859 -0.3518
  104MOL   O16818914   5.423   0.302   2.112  0.5790  0.3872  0.2511
  104MOL   H16918915   5.332   0.351   2.372  1.4791  1.5836  1.9384
  104MOL   H17018916   5.336   0.111   2.471 -0.7530  0.2132 -1.4532
  104MOL   H17118917   5.509   0.103   2.435 -0.6817  0.5052 -0.4530
  104MOL   H17218918   5.443   0.209   2.558 -1.8055 -0.5271  1.1000
  104MOL   C17318919   5.423   0.273   1.973 -0.2084  0.5657 -0.6332
  104MOL   C17418920   5.484   0.388   1.902  0.4055 -0.3097  0.0808
  104MOL   C17518921   5.281   0.244   1.922  0.5743 -0.9011 -0.2922
  104MOL   O17618922   5.264   0.141   1.855 -0.2275  0.4097  0.1873
  104MOL   O17718923   5.198   0.343   1.961 -0.1472  0.0199 -0.2970
  104MOL   H17818924   5.477   0.178   1.970 -1.3041 -0.1824  1.8813
  104MOL   H17918925   5.481   0.387   1.793 -2.7417  1.0056  0.1057
  104MOL   H18018926   5.451   0.487   1.934 -1.7608 -0.3631 -1.8448
  104MOL   H18118927   5.592   0.391   1.918  0.7612  0.7834 -2.2893
  104MOL   H18218928   5.123   0.325   1.907 -0.5928  1.1297 -0.0601
  105MOL     C118929   2.882   0.690   5.956 -0.5179  0.1278  0.5938
  105MOL     C218930   2.952   0.826   5.939  0.4110 -1.0934 -0.2652
  105MOL     C318931   2.772   0.660   5.852 -0.7749 -0.2011  0.4995
  105MOL     O418932   2.659   0.625   5.881 -0.1018  0.2876  0.1941
  105MOL     O518933   2.825   0.687   5.730  0.7075  0.1047  0.0228
  105MOL     H618934   2.960   0.618   5.931  1.1562  2.6244 -1.6677
  105MOL     H718935   2.965   0.842   5.832 -0.8839 -2.9912 -0.7346
  105MOL     H818936   2.888   0.903   5.982 -1.7700 -1.6645 -2.3889
  105MOL     H918937   3.055   0.843   5.970  0.3265  0.9744 -1.0443
  105MOL    H1018938   2.864   0.673   6.062 -0.0224 -4.7091 -0.0006
  105MOL    C1118939   2.744   0.675   5.611  0.1388 -0.5116  0.4125
  105MOL    C1218940   2.825   0.668   5.482  0.4955  0.0713 -0.3909
  105MOL    C1318941   2.653   0.805   5.608  0.1087 -1.1392 -0.0147
  105MOL    O1418942   2.703   0.915   5.640 -0.0909  0.3901 -0.5777
  105MOL    O1518943   2.530   0.783   5.562 -0.2281 -0.1794 -0.5017
  105MOL    H1618944   2.678   0.589   5.624 -0.5401  0.1849  1.7057
  105MOL    H1718945   2.893   0.753   5.474  0.6321 -0.0189 -0.2038
  105MOL    H1818946   2.872   0.571   5.466  1.5521  0.8143 -1.9127
  105MOL    H1918947   2.760   0.680   5.396 -0.0708  0.2992  0.0658
  105MOL    C2018948   2.444   0.894   5.558  0.7501 -0.3619 -0.4489
  105MOL    C2118949   2.292   0.850   5.566  0.7487 -0.4282  0.3576
  105MOL    C2218950   2.462   0.957   5.413  0.5240  0.9420  0.9201
  105MOL    O2318951   2.502   1.074   5.386 -0.2809  0.3213  0.1111
  105MOL    O2418952   2.431   0.866   5.315  0.0781 -0.0438 -0.1957
  105MOL    H2518953   2.463   0.979   5.624 -1.2659  0.7754 -1.2625
  105MOL    H2618954   2.262   0.850   5.671  1.1746  2.1413  0.5133
  105MOL    H2718955   2.222   0.914   5.514 -1.0856 -1.7807  1.1036
  105MOL    H2818956   2.275   0.755   5.515 -0.6927 -0.0570  0.1544
  105MOL    C2918957   2.458   0.892   5.173 -0.9315  0.4542  0.6987
  105MOL    C3018958   2.382   0.795   5.082 -0.4165 -0.1134 -0.4740
  105MOL    C3118959   2.614   0.884   5.151  0.4265  0.1737 -0.6296
  105MOL    O3218960   2.691   0.860   5.247  0.0131 -0.5927 -0.4833
  105MOL    O3318961   2.651   0.896   5.022 -0.4435  0.4336 -0.8093
  105MOL    H3418962   2.424   0.993   5.149  1.1960  0.9495 -0.2729
  105MOL    H3518963   2.427   0.698   5.102 -0.8117  0.3408  2.8942
  105MOL    H3618964   2.278   0.788   5.113 -0.1645 -1.8697  0.0160
  105MOL    H3718965   2.406   0.822   4.979 -0.4668  1.7246 -0.0265
  105MOL    C3818966   2.792   0.908   4.992  0.2445 -0.4805 -0.3506
  105MOL    C3918967   2.796   0.949   4.848  0.6261 -0.0289  0.2443
  105MOL    C4018968   2.865   0.768   5.007 -0.3397 -0.2957  0.1323
  105MOL    O4118969   2.805   0.662   4.995  0.8594 -0.3155 -0.2904
  105MOL    O4218970   2.995   0.774   5.036  0.6507 -0.2824  0.4265
  105MOL    H4318971   2.847   0.988   5.042 -0.7793  1.8390 -2.8012
  105MOL    H4418972   2.735   0.877   4.792  2.6632 -0.6741 -1.2109
  105MOL    H4518973   2.775   1.056   4.841  0.3072 -0.1484 -0.8379
  105MOL    H4618974   2.893   0.925   4.805  0.5908  0.8685 -0.3565
  105MOL    C4718975   3.076   0.650   5.037 -0.8654  0.1389 -0.1290
  105MOL    C4818976   3.118   0.658   5.188  0.1678 -1.0481 -0.7202
  105MOL    C4918977   3.194   0.669   4.939 -0.5453  0.0641  0.2163
  105MOL    O5018978   3.227   0.573   4.866  0.3327 -0.1550 -0.1984
  105MOL    O5118979   3.233   0.798   4.931  0.2594  0.0750  0.8419
  105MOL    H5218980   3.038   0.555   5.000  1.5767 -0.9252  0.0021
  105MOL    H5318981   3.031   0.640   5.251  0.2858 -0.6518 -0.4420
  105MOL    H5418982   3.191   0.577   5.196  0.0700 -1.0233  0.4725
  105MOL    H5518983   3.165   0.751   5.219 -1.0089 -0.7135  0.0674
  105MOL    C5618984   3.328   0.837   4.823 -0.7655  0.1592 -0.1336
  105MOL    C5718985   3.389   0.980   4.848 -0.1391 -0.0169 -0.5273
  105MOL    C5818986   3.243   0.835   4.694 -0.3617 -0.3588  0.3230
  105MOL    O5918987   3.124   0.862   4.693 -0.0732  0.2565 -0.2126
  105MOL    O6018988   3.320   0.796   4.595 -0.3274  0.1092  0.1401
  105MOL    H6118989   3.408   0.762   4.826 -1.5308 -0.6471  0.2695
  105MOL    H6218990   3.422   0.997   4.950  1.4203  0.2092 -1.0602
  105MOL    H6318991   3.476   0.985   4.783 -1.2097  0.8641 -1.9298
  105MOL    H6418992   3.322   1.059   4.814  2.1598  1.5717 -1.4212
  105MOL    C6518993   3.268   0.801   4.460 -0.1533  0.5000  0.3138
  105MOL    C6618994   3.322   0.682   4.378 -0.0071 -0.2062  0.0937
  105MOL    C6718995   3.313   0.934   4.398 -1.0195  0.8368 -0.0269
  105MOL    O6818996   3.381   1.016   4.464 -0.3518 -0.5006  1.0787
  105MOL    O6918997   3.273   0.945   4.270 -0.3120  0.4286 -0.1547
  105MOL    H7018998   3.160   0.793   4.467 -0.3929  0.6513 -2.7754
  105MOL    H7118999   3.297   0.688   4.272 -1.1046 -0.6005  0.3153
  105MOL    H7219000   3.422   0.659   4.416  0.4305 -1.9263 -2.0047
  105MOL    H7319001   3.270   0.591   4.408  2.3119 -1.9792 -1.0927
  105MOL    C7419002   3.293   1.077   4.210 -0.7746 -0.2100  0.3718
  105MOL    C7519003   3.169   1.098   4.125 -0.4717 -0.3535  0.2730
  105MOL    C7619004   3.424   1.077   4.127  0.1756  0.7990  0.3317
  105MOL    O7719005   3.517   1.158   4.135 -0.6126  0.1132 -0.0012
  105MOL    O7819006   3.414   0.981   4.034  0.1189  0.2048  0.6152
  105MOL    H7919007   3.320   1.162   4.273 -0.5258  0.0844 -0.1383
  105MOL    H8019008   3.141   0.998   4.094 -1.8703 -0.1974  0.9848
  105MOL    H8119009   3.082   1.139   4.178 -1.5877 -1.0825 -0.9576
  105MOL    H8219010   3.194   1.151   4.033  0.8247  0.6990  1.2127
  105MOL    C8319011   3.495   0.971   3.926 -0.2696  0.0379 -0.1644
  105MOL    C8419012   3.407   0.925   3.804  0.5827 -0.0218 -0.1499
  105MOL    C8519013   3.610   0.878   3.956 -0.2345 -0.4679  0.1611
  105MOL    O8619014   3.724   0.923   3.969 -0.1887  0.0324 -0.0762
  105MOL    O8719015   3.581   0.750   3.950 -0.1513 -0.3844 -0.2519
  105MOL    H8819016   3.533   1.071   3.905  1.9340 -1.3820 -3.3672
  105MOL    H8919017   3.336   0.851   3.840  0.8497 -0.2464 -0.0821
  105MOL    H9019018   3.341   0.999   3.759 -1.0244 -0.4942  1.3688
  105MOL    H9119019   3.464   0.869   3.729  2.5731  2.5285 -0.6222
  105MOL    C9219020   3.675   0.661   4.015 -0.0476 -0.5214 -0.2229
  105MOL    C9319021   3.754   0.593   3.900  0.6128 -0.1099  0.7881
  105MOL    C9419022   3.585   0.562   4.095 -0.1951 -0.3941 -0.2253
  105MOL    O9519023   3.465   0.585   4.107  0.6125  0.3882 -0.3561
  105MOL    O9619024   3.663   0.463   4.157 -0.1582 -0.0931 -0.7601
  105MOL    H9719025   3.739   0.707   4.090  1.0758 -0.2937 -1.3080
  105MOL    H9819026   3.829   0.666   3.869  0.6340 -0.0816  0.9087
  105MOL    H9919027   3.807   0.508   3.940 -1.3660 -1.4670  0.5963
  105MOL   H10019028   3.698   0.563   3.811 -0.4706 -0.2404  1.4993
  105MOL   C10119029   3.603   0.379   4.251  0.2037  0.1179 -0.0394
  105MOL   C10219030   3.719   0.320   4.329  0.5302  0.0620  0.1449
  105MOL   C10319031   3.535   0.255   4.178 -1.6240  0.0047 -0.3877
  105MOL   O10419032   3.561   0.235   4.055  0.0737 -0.5460 -0.4805
  105MOL   O10519033   3.461   0.183   4.266 -0.2567 -0.2497  0.2639
  105MOL   H10619034   3.530   0.427   4.316 -0.0869 -1.1916  0.6288
  105MOL   H10719035   3.771   0.238   4.279 -0.9345  0.0166 -1.3127
  105MOL   H10819036   3.790   0.400   4.348 -0.7975  0.9722  1.3917
  105MOL   H10919037   3.689   0.287   4.429 -1.2093 -0.6645 -0.6118
  105MOL   C11019038   3.398   0.065   4.204  0.3512 -0.2841  0.6478
  105MOL   C11119039   3.266   0.048   4.280  0.3388 -0.1047  0.1127
  105MOL   C11219040   3.480   8.087   4.213 -0.0693 -1.0231  0.1054
  105MOL   O11319041   3.504   8.013   4.120  0.3014  0.2181 -0.3362
  105MOL   O11419042   3.516   8.057   4.345 -0.2966 -0.2755 -0.3338
  105MOL   H11519043   3.365   0.083   4.102  0.0843 -2.0170  0.4186
  105MOL   H11619044   3.274   0.010   4.382  1.4884 -4.4726 -1.4897
  105MOL   H11719045   3.219   0.145   4.289 -0.1132 -0.4938  2.1813
  105MOL   H11819046   3.189   8.142   4.225  1.7346 -0.4827 -1.5473
  105MOL   C11919047   3.613   7.948   4.370  0.6225 -0.4821 -0.4295
  105MOL   C12019048   3.564   7.858   4.479 -0.5149 -0.0754 -0.1672
  105MOL   C12119049   3.747   8.015   4.415  0.2296  0.0238 -0.6380
  105MOL   O12219050   3.746   8.133   4.451  0.8335 -0.0246 -0.0617
  105MOL   O12319051   3.854   7.927   4.425  0.3818  0.2632  0.7264
  105MOL   H12419052   3.634   7.897   4.276  3.7614 -0.3843  0.1797
  105MOL   H12519053   3.643   7.800   4.526 -0.5035 -0.7280 -0.9914
  105MOL   H12619054   3.526   7.922   4.560 -0.7237  1.0824 -1.1725
  105MOL   H12719055   3.478   7.800   4.446 -0.8255 -0.4110  1.1914
  105MOL   C12819056   3.972   7.948   4.491  0.2725  0.5831 -0.1057
  105MOL   C12919057   4.080   7.843   4.452  0.2436 -0.3784 -0.8114
  105MOL   C13019058   3.949   7.945   4.641  0.7334  0.2818  0.7358
  105MOL   O13119059   3.845   7.894   4.685 -0.5122  0.1877 -0.1469
  105MOL   O13219060   4.062   7.989   4.706 -0.1249 -0.5053  0.2706
  105MOL   H13319061   4.010   8.042   4.450 -0.6808  2.1036  2.3550
  105MOL   H13419062   4.179   7.885   4.436 -0.4270  0.7875 -1.9617
  105MOL   H13519063   4.079   7.760   4.523 -1.1399  1.2829  1.1603
  105MOL   H13619064   4.055   7.795   4.358  0.9491  0.3188 -1.3602
  105MOL   C13719065   4.076   7.972   4.849 -0.2619  0.6196  0.5959
  105MOL   C13819066   4.198   8.058   4.891 -0.3768  0.1479 -0.2973
  105MOL   C13919067   4.100   7.826   4.890  0.4560  1.0348  0.4944
  105MOL   O14019068   4.114   7.738   4.807 -0.8462 -0.2743  0.2062
  105MOL   O14119069   4.119   7.808   5.021  0.2134 -0.2935  0.0941
  105MOL   H14219070   3.995   8.016   4.908 -2.7751 -1.9895 -0.7337
  105MOL   H14319071   4.179   0.017   4.897 -1.1873  0.1548 -2.4762
  105MOL   H14419072   4.242   8.027   4.986 -0.9033  1.3239  0.3300
  105MOL   H14519073   4.279   8.045   4.819  1.6943  0.2470  1.9540
  105MOL   C14619074   4.191   7.706   5.081 -0.0128 -0.7070  0.3078
  105MOL   C14719075   4.168   7.735   5.234  0.4365  0.2323 -0.2393
  105MOL   C14819076   4.343   7.729   5.048 -0.1671 -0.0370  0.0560
  105MOL   O14919077   4.391   7.846   5.044  0.2360 -0.6695  0.2022
  105MOL   O15019078   4.414   7.617   5.018  0.2467  0.3132 -0.2325
  105MOL   H15119079   4.158   7.607   5.050  1.0874 -1.8071  2.5188
  105MOL   H15219080   4.210   7.655   5.295  0.9128  0.7120  0.0675
  105MOL   H15319081   4.223   7.822   5.270  0.5526 -1.3625  3.6958
  105MOL   H15419082   4.065   7.746   5.266  0.2024 -3.6344  0.6075
  105MOL   C15519083   4.559   7.606   5.005  0.2060 -0.1886 -0.0791
  105MOL   C15619084   4.593   7.469   4.947 -0.5787  0.2609  0.5445
  105MOL   C15719085   4.629   7.625   5.143  0.0682  0.2025 -0.2020
  105MOL   O15819086   4.724   7.696   5.161 -0.4863 -0.3444 -0.5101
  105MOL   O15919087   4.570   7.553   5.236  0.1874 -0.5255 -0.2966
  105MOL   H16019088   4.605   7.689   4.952  1.4871 -1.2045 -0.5683
  105MOL   H16119089   4.701   7.467   4.935 -0.7397  1.6518 -1.3246
  105MOL   H16219090   4.574   7.393   5.023  1.6447 -1.3117 -0.4046
  105MOL   H16319091   4.543   7.438   4.856 -0.6383  0.3162  0.5592
  105MOL   C16419092   4.615   7.550   5.369 -0.5531  0.5562 -0.3304
  105MOL   C16519093   4.645   7.394   5.399 -0.1020  0.2191  0.0567
  105MOL   C16619094   4.515   7.603   5.475  0.0381 -0.2087  0.1652
  105MOL   O16719095   4.404   7.650   5.448  0.2955  0.2857  0.2445
  105MOL   O16819096   4.561   7.583   5.600  0.3301  0.4763 -0.3650
  105MOL   H16919097   4.707   7.604   5.391  0.1451  0.8493 -3.6813
  105MOL   H17019098   4.733   7.360   5.344  0.1297  0.8853  0.0128
  105MOL   H17119099   4.668   7.390   5.506 -0.7558  0.6201  0.2102
  105MOL   H17219100   4.565   7.323   5.378  0.2960  0.0794 -0.9879
  105MOL   C17319101   4.488   7.588   5.716  1.0337 -0.0636 -0.7794
  105MOL   C17419102   4.584   7.566   5.834 -0.5156 -0.2970  0.0388
  105MOL   C17519103   4.375   7.483   5.714 -0.2053  0.2813  0.2385
  105MOL   O17619104   4.258   7.514   5.687 -0.1320 -0.1899 -0.1695
  105MOL   O17719105   4.423   7.356   5.731  0.2459  0.2258  0.6980
  105MOL   H17819106   4.449   7.690   5.722 -0.9982 -0.7654 -1.5226
  105MOL   H17919107   4.532   7.588   5.927  0.2143  2.1176 -0.0889
  105MOL   H18019108   4.622   7.464   5.842  0.0291  0.1443  3.7374
  105MOL   H18119109   4.665   7.639   5.832 -1.8083  1.1755  0.1149
  105MOL   H18219110   4.348   7.302   5.715  1.4405 -0.4916 -2.9888
  106MOL     C119111   0.749   7.488   7.967  0.1112 -0.0531  0.0851
  106MOL     C219112   0.628   7.505   8.062 -0.5411  0.3296  0.8190
  106MOL     C319113   0.720   7.427   7.832 -0.2068  0.5132  0.0819
  106MOL     O419114   0.604   7.434   7.782  0.0462 -0.3759  0.1915
  106MOL     O519115   0.826   7.362   7.775  0.0093 -0.3065  0.3157
  106MOL     H619116   0.798   7.584   7.950 -0.5451 -0.2258 -3.0860
  106MOL     H719117   0.667   7.559   0.001  3.0834  1.6721 -1.5520
  106MOL     H819118   0.567   7.579   8.009  0.1819  0.4557  0.1496
  106MOL     H919119   0.567   7.422   8.096 -0.0262 -1.8548 -3.3071
  106MOL    H1019120   0.822   7.428   8.021  0.2911  0.5191  0.4874
  106MOL    C1119121   0.810   7.302   7.649 -0.1048 -0.9194 -0.1152
  106MOL    C1219122   0.884   7.168   7.664 -0.6400 -0.8941 -0.2926
  106MOL    C1319123   0.876   7.384   7.538  0.2584  0.2868  0.2699
  106MOL    O1419124   0.988   7.436   7.552  0.0761 -0.0772  0.1021
  106MOL    O1519125   0.792   7.398   7.420 -0.4379 -0.5942  0.2996
  106MOL    H1619126   0.707   7.275   7.629 -0.1129 -0.5425 -0.6081
  106MOL    H1719127   0.988   7.189   7.687  0.0124  0.6592 -4.2275
  106MOL    H1819128   0.852   7.111   7.751  0.1465 -2.5101 -1.0326
  106MOL    H1919129   0.882   7.095   7.584 -1.7261 -0.4165 -0.7074
  106MOL    C2019130   0.842   7.463   7.309  0.0861  0.3587  0.4318
  106MOL    C2119131   0.742   7.470   7.202  0.5876  0.1902 -0.2164
  106MOL    C2219132   0.971   7.402   7.245  0.2246 -0.0517  0.2318
  106MOL    O2319133   1.068   7.467   7.212  0.6541 -0.2199 -0.0404
  106MOL    O2419134   0.951   7.269   7.225  0.0604 -0.1943 -0.3430
  106MOL    H2519135   0.871   7.561   7.348  1.6302  0.4460 -0.8829
  106MOL    H2619136   0.655   7.499   7.260  0.8109 -1.9365  1.2514
  106MOL    H2719137   0.765   7.555   7.137  1.3602 -0.9902 -1.5270
  106MOL    H2819138   0.719   7.382   7.141  1.5930 -1.1186  1.2461
  106MOL    C2919139   1.049   7.176   7.193 -0.3571 -0.6431 -0.1052
  106MOL    C3019140   0.975   7.048   7.167  0.5029 -0.5278 -0.3855
  106MOL    C3119141   1.152   7.157   7.307 -0.3302 -0.2222 -0.5740
  106MOL    O3219142   1.137   7.206   7.424 -0.0777  0.3558 -0.2307
  106MOL    O3319143   1.260   7.085   7.268  0.3031 -0.0964  0.3733
  106MOL    H3419144   1.101   7.211   7.104  1.4847 -2.1450  0.3484
  106MOL    H3519145   0.882   7.085   7.124  0.0318  1.9852  2.6357
  106MOL    H3619146   1.021   6.984   7.091  1.4462  0.0027 -0.2708
  106MOL    H3719147   0.952   7.001   7.263 -0.1174  0.0896 -0.2320
  106MOL    C3819148   1.364   7.071   7.362 -0.2431 -0.2343 -0.2024
  106MOL    C3919149   1.494   7.027   7.286 -0.6723 -0.5371  0.2151
  106MOL    C4019150   1.323   6.984   7.487 -0.9036  0.3922 -0.1843
  106MOL    O4119151   1.228   6.910   7.482  0.1791 -0.0937  0.5113
  106MOL    O4219152   1.407   6.997   7.590  0.0897  0.9386  0.7507
  106MOL    H4319153   1.386   7.172   7.395 -0.2140  0.0999 -1.2303
  106MOL    H4419154   1.503   6.920   7.265  1.4408 -0.4022  0.2569
  106MOL    H4519155   1.512   7.074   7.190  1.3513  0.9264  1.2753
  106MOL    H4619156   1.583   7.050   7.345 -1.3981  0.2921  0.9974
  106MOL    C4719157   1.399   6.910   7.696 -0.3806 -0.2914 -0.0834
  106MOL    C4819158   1.493   6.981   7.799 -0.0813 -1.1535 -0.9696
  106MOL    C4919159   1.458   6.769   7.667  0.2215  0.3470 -0.0596
  106MOL    O5019160   1.421   6.668   7.727 -0.2991 -0.3830  0.2736
  106MOL    O5119161   1.562   6.766   7.579  0.2782  0.2589  0.3005
  106MOL    H5219162   1.304   6.909   7.751 -0.2748  1.4535  0.1392
  106MOL    H5319163   1.595   6.979   7.761  0.2772 -0.7265 -0.0684
  106MOL    H5419164   1.462   7.081   7.831  0.3404 -1.5897  0.8742
  106MOL    H5519165   1.504   6.926   7.893  0.8656  1.3623  0.4491
  106MOL    C5619166   1.615   6.633   7.549  0.3091 -0.3583  0.2082
  106MOL    C5719167   1.766   6.647   7.533  0.2927  0.7823  0.3543
  106MOL    C5819168   1.548   6.568   7.425 -0.0469 -0.4142 -0.3298
  106MOL    O5919169   1.457   6.623   7.363  0.5119  0.5200 -0.1195
  106MOL    O6019170   1.604   6.446   7.402  0.2707  0.2513  0.1810
  106MOL    H6119171   1.616   6.569   7.637 -1.2320  0.0571  0.5460
  106MOL    H6219172   1.787   6.745   7.490 -0.4417  1.1043  0.7214
  106MOL    H6319173   1.812   6.636   7.631  1.6510  3.6724  0.1048
  106MOL    H6419174   1.811   6.564   7.479  0.5698  1.4022 -0.3703
  106MOL    C6519175   1.526   6.349   7.343 -0.4646  0.1802 -0.3034
  106MOL    C6619176   1.585   6.215   7.398  0.6492 -0.0430  0.3925
  106MOL    C6719177   1.534   6.369   7.188 -0.7566  0.4517 -0.0366
  106MOL    O6819178   1.602   6.452   7.137 -0.5828  0.0502 -0.1188
  106MOL    O6919179   1.450   6.278   7.126  0.6774 -1.0517  0.5525
  106MOL    H7019180   1.422   6.349   7.376 -1.0001 -1.0787 -1.9049
  106MOL    H7119181   1.549   6.129   7.341 -0.8717 -0.7852  2.4171
  106MOL    H7219182   1.694   6.215   7.387  0.6581  1.0421  0.4302
  106MOL    H7319183   1.563   6.195   7.502 -2.3057 -0.1238 -0.1946
  106MOL    C7419184   1.446   6.269   6.986  0.3168 -0.3009  0.0980
  106MOL    C7519185   1.297   6.280   6.944 -0.1640 -0.6375 -0.0453
  106MOL    C7619186   1.513   6.132   6.957  0.2349  0.7074  0.4452
  106MOL    O7719187   1.454   6.034   6.912  0.7907 -0.2370  0.0617
  106MOL    O7819188   1.642   6.145   6.988  0.3672  0.2489 -0.1311
  106MOL    H7919189   1.495   6.351   6.934 -1.7254  1.0693  0.2657
  106MOL    H8019190   1.249   6.378   6.946  2.5217  0.6998  2.6540
  106MOL    H8119191   1.291   6.236   6.844 -0.7114  0.7977 -0.6492
  106MOL    H8219192   1.237   6.225   7.017  0.3544 -2.5290 -1.0192
  106MOL    C8319193   1.739   6.045   6.984  0.4481 -0.3592 -0.4217
  106MOL    C8419194   1.767   6.015   6.841  0.1307  0.5905  1.2132
  106MOL    C8519195   1.707   5.918   7.071 -0.4661 -0.5461  0.5162
  106MOL    O8619196   1.764   5.812   7.032 -0.1047 -0.1273 -0.0697
  106MOL    O8719197   1.640   5.935   7.183 -0.1618  0.5809  0.0763
  106MOL    H8819198   1.825   6.100   7.021 -0.3626  0.3802  0.3713
  106MOL    H8919199   1.693   5.947   6.798  2.4049 -0.4238 -1.2623
  106MOL    H9019200   1.755   6.105   6.780  0.6953  0.5687  1.0649
  106MOL    H9119201   1.867   5.973   6.836 -0.6714 -1.4291  1.8136
  106MOL    C9219202   1.611   5.823   7.270 -0.3170 -0.5627  0.0418
  106MOL    C9319203   1.459   5.822   7.288  0.2874 -0.0614  0.4634
  106MOL    C9419204   1.695   5.821   7.396 -0.5242 -0.0632 -0.1511
  106MOL    O9519205   1.808   5.768   7.393  0.4864  0.1508 -0.5177
  106MOL    O9619206   1.634   5.886   7.499 -0.4741  0.3680  0.3387
  106MOL    H9719207   1.624   5.722   7.231 -1.1119 -1.3142  1.6829
  106MOL    H9819208   1.437   5.738   7.353 -0.7086  1.6079  2.3592
  106MOL    H9919209   1.421   5.914   7.334  1.3158  0.4640  0.2750
  106MOL   H10019210   1.410   5.790   7.196 -1.8983 -1.3728  2.0333
  106MOL   C10119211   1.696   5.902   7.628  0.5754 -0.0969  0.0109
  106MOL   C10219212   1.587   5.955   7.721 -0.0866  0.4729  0.4185
  106MOL   C10319213   1.820   5.991   7.635 -0.5940 -0.4671 -0.5360
  106MOL   O10419214   1.853   6.066   7.547 -0.3807  0.3221  0.5858
  106MOL   O10519215   1.887   5.976   7.753 -0.4502  0.1099  0.2464
  106MOL   H10619216   1.728   5.802   7.658  0.1806 -0.5709 -1.1061
  106MOL   H10719217   1.499   5.890   7.725 -0.2887  0.8067  1.4832
  106MOL   H10819218   1.626   5.951   7.822  1.1925  1.6345 -0.0172
  106MOL   H10919219   1.550   6.052   7.688  2.5156  1.6346  0.7997
  106MOL   C11019220   1.999   6.056   7.790 -0.3484  0.3981  0.3892
  106MOL   C11119221   2.079   5.975   7.882 -0.3787 -0.2616 -1.0644
  106MOL   C11219222   1.953   6.196   7.844 -0.2579 -0.0088  0.2268
  106MOL   O11319223   1.981   6.303   7.783 -0.0313 -0.5824 -0.3777
  106MOL   O11419224   1.887   6.183   7.960  0.2658 -0.1837  0.1661
  106MOL   H11519225   2.064   6.071   7.704  1.3763  0.3141  1.6256
  106MOL   H11619226   2.037   5.959   7.981  2.7982 -1.6965  0.0943
  106MOL   H11719227   2.099   5.881   7.831  0.7302  0.1504 -1.3975
  106MOL   H11819228   2.176   6.021   7.898  0.4515 -2.4967  0.5749
  106MOL   C11919229   1.844   6.298   8.038 -0.3640 -0.4181  0.2888
  106MOL   C12019230   1.798   6.233   0.026  0.8347  1.0065  0.6510
  106MOL   C12119231   1.734   6.375   7.965 -0.3048  0.9085 -0.5597
  106MOL   O12219232   1.658   6.330   7.876 -0.2771 -0.6323 -0.3912
  106MOL   O12319233   1.723   6.499   8.019  0.0152  0.1501  0.3560
  106MOL   H12419234   1.929   6.364   8.055 -0.0494 -1.0074  1.0047
  106MOL   H12519235   1.885   6.229   0.092  2.2848 -0.3834 -1.2920
  106MOL   H12619236   1.736   6.311   0.070 -1.3220  0.0037 -0.5982
  106MOL   H12719237   1.738   6.145   0.043 -3.4088  3.7899  0.8026
  106MOL   C12819238   1.605   6.581   7.997 -0.3852  0.0231  0.0547
  106MOL   C12919239   1.646   6.723   8.028 -0.3077  0.5208  0.1805
  106MOL   C13019240   1.491   6.543   8.089  0.4456  0.8645  0.6628
  106MOL   O13119241   1.494   6.452   0.030  0.5352 -0.3876 -0.4659
  106MOL   O13219242   1.388   6.603   8.065  0.1261 -0.7081 -0.3352
  106MOL   H13319243   1.578   6.566   7.892  2.0156  0.9346 -0.7279
  106MOL   H13419244   1.727   6.758   7.964  0.0917 -1.4692 -0.4155
  106MOL   H13519245   1.563   6.794   8.024 -1.9973 -1.3638  1.3516
  106MOL   H13619246   1.685   6.724   8.130  0.0060  0.1184  0.0643
  106MOL   C13719247   1.259   6.572   8.123  0.2574  0.0217  0.7429
  106MOL   C13819248   1.160   6.647   8.044  0.3941 -0.4553  0.2637
  106MOL   C13919249   1.253   6.607   0.120  0.0192 -1.0736  0.2551
  106MOL   O14019250   1.324   6.692   0.171  0.0666 -0.1617 -0.0428
  106MOL   O14119251   1.151   6.546   0.185 -0.0495  0.0907  0.0127
  106MOL   H14219252   1.238   6.467   8.103 -0.1918  0.4253 -0.9964
  106MOL   H14319253   1.059   6.630   8.080 -0.5298  2.5630 -0.7499
  106MOL   H14419254   1.183   6.753   8.051 -1.6579 -0.0421  1.1197
  106MOL   H14519255   1.175   6.620   7.939 -0.8781 -1.6950  0.3844
  106MOL   C14619256   1.117   6.566   0.320  0.1909 -0.2207 -0.6430
  106MOL   C14719257   1.005   6.462   0.361 -0.0538 -1.1759 -0.3335
  106MOL   C14819258   1.077   6.712   0.344 -0.1627  0.2532  0.1517
  106MOL   O14919259   1.107   6.764   0.455 -0.3326 -0.8359  0.4927
  106MOL   O15019260   0.986   6.756   0.260  0.2861  0.0016 -0.0635
  106MOL   H15119261   1.195   6.533   0.388 -1.4942  0.1597  1.5088
  106MOL   H15219262   0.904   6.503   0.350 -0.1682 -1.3255  0.1462
  106MOL   H15319263   1.007   6.379   0.291  1.8946  0.0425 -1.7640
  106MOL   H15419264   1.031   6.427   0.461 -0.3906  0.5377  0.3693
  106MOL   C15519265   0.932   6.887   0.289 -0.2028  0.0377  0.0265
  106MOL   C15619266   0.784   6.899   0.236 -0.8649 -0.3302  0.2923
  106MOL   C15719267   1.024   6.988   0.229  0.2902  0.2278 -0.0364
  106MOL   O15819268   1.085   7.064   0.296 -0.2718 -0.0982 -0.4175
  106MOL   O15919269   1.029   6.988   0.095 -0.0879  0.0356 -0.0430
  106MOL   H16019270   0.922   6.915   0.394 -1.8829 -1.7122  0.3583
  106MOL   H16119271   0.753   6.890   0.132 -3.2521 -1.7785  1.0814
  106MOL   H16219272   0.725   6.820   0.283  0.2664 -0.7726  0.9859
  106MOL   H16319273   0.750   6.998   0.266 -2.2866  0.3671 -3.3544
  106MOL   C16419274   1.058   7.097   0.013 -0.1437 -0.6803  0.2656
  106MOL   C16519275   0.976   7.097   8.030 -0.5056  0.5674  0.4699
  106MOL   C16619276   1.207   7.112   8.140 -0.2922 -0.1540  0.3590
  106MOL   O16719277   1.268   7.046   8.060 -0.0997  0.1131  0.0051
  106MOL   O16819278   1.272   7.192   0.086  0.0514  0.5431 -0.1422
  106MOL   H16919279   1.027   7.185   0.071 -1.7018 -0.8456 -0.2905
  106MOL   H17019280   1.017   7.169   7.960  1.9134 -1.8737 -0.7167
  106MOL   H17119281   0.985   6.998   7.987  2.2391  0.1919  1.7984
  106MOL   H17219282   0.870   7.118   8.046 -0.5135  1.2869 -0.5034
  106MOL   C17319283   1.416   7.218   0.075  0.4698  0.7308  0.0994
  106MOL   C17419284   1.488   7.187   0.208 -1.3386  0.0114  0.7029
  106MOL   C17519285   1.450   7.351   0.013  0.1151 -0.2974  0.8925
  106MOL   O17619286   1.504   7.355   8.049  0.0608 -0.0112 -0.3309
  106MOL   O17719287   1.409   7.457   0.093 -0.0264 -0.2864  0.5641
  106MOL   H17819288   1.449   7.149   8.144 -1.7338 -1.4045  0.9977
  106MOL   H17919289   1.462   7.089   0.248  0.9763 -1.4046 -1.1790
  106MOL   H18019290   1.596   7.202   0.202 -1.6847  2.0735 -1.1135
  106MOL   H18119291   1.466   7.262   0.285 -1.7619  0.8557 -0.2269
  106MOL   H18219292   1.381   7.430   0.179 -0.5154 -0.4382  0.3553
  107MOL     C119293   1.406   1.878   0.767 -0.2352 -0.4355 -0.7488
  107MOL     C219294   1.549   1.822   0.794 -0.7080  0.7040 -0.3726
  107MOL     C319295   1.336   1.810   0.652  0.5091  0.3554  0.0912
  107MOL     O419296   1.325   1.691   0.645 -0.5311  0.5232 -0.2101
  107MOL     O519297   1.320   1.899   0.556  0.9923  0.1838  0.6957
  107MOL     H619298   1.357   1.865   0.863 -1.2411  1.1662 -1.0260
  107MOL     H719299   1.591   1.766   0.709  1.5558 -2.1765  2.5229
  107MOL     H819300   1.617   1.905   0.809 -1.4670  1.3834 -0.6382
  107MOL     H919301   1.540   1.753   0.878  0.1918  0.0868 -0.7620
  107MOL    H1019302   1.412   1.986   0.753 -1.5993  0.0116  1.8717
  107MOL    C1119303   1.255   1.856   0.434  0.0450  0.1213  0.0343
  107MOL    C1219304   1.303   1.949   0.325 -0.0877  0.5143  0.1585
  107MOL    C1319305   1.106   1.880   0.451 -0.3024  0.1807 -0.5292
  107MOL    O1419306   1.068   1.958   0.541 -0.8692  0.0273  0.3996
  107MOL    O1519307   1.024   1.803   0.362  0.1066 -0.5345 -0.0263
  107MOL    H1619308   1.263   1.752   0.401 -0.5558  0.1452 -0.2058
  107MOL    H1719309   1.411   1.933   0.318  0.1430  0.6270  3.0004
  107MOL    H1819310   1.272   1.917   0.225 -0.2855 -0.6470  0.5896
  107MOL    H1919311   1.271   2.051   0.343 -1.6993  0.1018 -0.3192
  107MOL    C2019312   0.882   1.821   0.372  0.0759 -0.5519  0.0139
  107MOL    C2119313   0.829   1.970   0.333  0.3479  0.7067  0.3949
  107MOL    C2219314   0.819   1.774   0.510 -0.4435 -0.0050  0.4050
  107MOL    O2319315   0.721   1.829   0.557  0.1145 -0.1066 -0.0122
  107MOL    O2419316   0.877   1.661   0.553 -0.6496  0.1062 -0.7709
  107MOL    H2519317   0.833   1.761   0.296 -0.5880  1.2882 -1.0380
  107MOL    H2619318   0.875   1.998   0.239  1.6913 -0.9768  0.5115
  107MOL    H2719319   0.721   1.970   0.315  0.4198  0.0760 -0.0595
  107MOL    H2819320   0.846   2.051   0.403 -0.8728  1.0193  0.3425
  107MOL    C2919321   0.860   1.614   0.684  0.7415 -0.6993 -0.4577
  107MOL    C3019322   0.995   1.540   0.711  0.3227 -0.3851 -0.0203
  107MOL    C3119323   0.733   1.525   0.695  0.0349  0.6802 -0.1296
  107MOL    O3219324   0.646   1.545   0.774  0.3427  0.0452  0.0712
  107MOL    O3319325   0.731   1.413   0.615 -0.1341 -0.3605  0.2182
  107MOL    H3419326   0.852   1.699   0.752 -1.6233 -0.3199 -1.1706
  107MOL    H3519327   1.030   1.497   0.617 -0.1310 -1.8016  0.4538
  107MOL    H3619328   1.063   1.620   0.740  1.6496 -0.5488 -2.5342
  107MOL    H3719329   0.987   1.463   0.787 -2.9056 -1.9949 -1.8782
  107MOL    C3819330   0.605   1.336   0.596 -0.0785  0.3110 -0.1885
  107MOL    C3919331   0.632   1.202   0.535  0.1881  0.2335  0.8324
  107MOL    C4019332   0.508   1.418   0.510 -0.6446 -0.2514  0.2307
  107MOL    O4119333   0.387   1.423   0.527  0.1411 -0.4622  0.1509
  107MOL    O4219334   0.570   1.475   0.403  0.2980 -0.3587 -0.3494
  107MOL    H4319335   0.558   1.310   0.691 -0.1191  1.8266  0.2238
  107MOL    H4419336   0.531   1.174   0.506 -0.0363  0.5703  1.2737
  107MOL    H4519337   0.704   1.202   0.453  1.0290  0.7022  1.5577
  107MOL    H4619338   0.675   1.133   0.607  0.0356 -0.2681  0.4457
  107MOL    C4719339   0.496   1.550   0.304  0.0028 -0.1039  0.0343
  107MOL    C4819340   0.549   1.519   0.165 -0.0541  0.0990  0.0063
  107MOL    C4919341   0.476   1.692   0.335  0.2966 -0.5216  1.0848
  107MOL    O5019342   0.518   1.779   0.257  0.9265 -0.4180  0.3466
  107MOL    O5119343   0.405   1.713   0.453 -0.1141  0.0098  0.1252
  107MOL    H5219344   0.399   1.502   0.296  0.5336 -1.6428  2.2543
  107MOL    H5319345   0.554   1.411   0.150  1.1895  0.0045  1.0387
  107MOL    H5419346   0.486   1.573   0.094  3.1181  1.5727 -1.7885
  107MOL    H5519347   0.651   1.552   0.149 -0.1020 -0.4324 -1.4203
  107MOL    C5619348   0.400   1.842   0.503  0.5555 -0.4670 -0.7859
  107MOL    C5719349   0.372   1.830   0.656  0.3664  0.4929  0.3940
  107MOL    C5819350   0.283   1.920   0.442  0.0326  0.0393 -0.0584
  107MOL    O5919351   0.314   2.019   0.375  0.2146  0.7204 -0.2941
  107MOL    O6019352   0.154   1.882   0.480 -0.7505 -0.0250 -0.7395
  107MOL    H6119353   0.489   1.905   0.497  0.6743 -0.4425  0.9827
  107MOL    H6219354   0.454   1.788   0.714  0.6361  0.4110 -0.0388
  107MOL    H6319355   0.362   1.928   0.703 -0.6258  0.1092  0.9847
  107MOL    H6419356   0.283   1.771   0.674 -0.4097  1.7742  0.7898
  107MOL    C6519357   0.044   1.957   0.428  0.2427 -0.5957 -0.3030
  107MOL    C6619358   8.068   1.914   0.493 -0.3090 -0.0115  0.4059
  107MOL    C6719359   0.030   1.957   0.275 -0.3730  0.1006  0.5568
  107MOL    O6819360   0.083   1.868   0.202  0.1708 -0.5914  0.0944
  107MOL    O6919361   8.108   2.056   0.234  0.5660 -0.2630  0.3598
  107MOL    H7019362   0.053   2.062   0.455  0.5915 -1.0018  1.1833
  107MOL    H7119363   8.077   1.953   0.595  0.0499  1.7339 -0.2869
  107MOL    H7219364   7.975   1.951   0.451 -0.7889  1.4841  2.6716
  107MOL    H7319365   8.075   1.805   0.491 -0.2546 -0.0052 -3.0130
  107MOL    C7419366   8.086   2.074   0.102 -0.0786 -0.4447  0.5948
  107MOL    C7519367   8.068   2.231   0.092  0.1383  0.6847 -0.9873
  107MOL    C7619368   7.960   2.003   0.045 -0.2157  0.2630 -0.3314
  107MOL    O7719369   7.933   2.014   8.074  0.5609  0.8499  0.6048
  107MOL    O7819370   7.903   1.920   0.136 -0.5365 -0.5722 -0.3002
  107MOL    H7919371   0.024   2.048   0.040 -0.1838 -0.4267  0.4426
  107MOL    H8019372   8.065   2.283   8.144  2.2381  3.1618  0.2350
  107MOL    H8119373   7.983   2.260   0.153  1.0116  1.8771 -0.2993
  107MOL    H8219374   0.002   2.276   0.150 -1.7693  0.7060  1.7603
  107MOL    C8319375   7.813   1.817   0.091 -0.0935 -1.0770  0.5953
  107MOL    C8419376   7.716   1.765   0.205  0.1659 -1.0288  0.3926
  107MOL    C8519377   7.885   1.700   0.023  0.7627  0.2870  0.2947
  107MOL    O8619378   8.003   1.687   0.034  0.2463  0.0643  0.5170
  107MOL    O8719379   7.802   1.613   8.113 -0.0530 -0.2030  0.3449
  107MOL    H8819380   7.753   1.869   0.016  1.1059 -2.0390 -1.0389
  107MOL    H8919381   7.663   1.845   0.256  3.1614  0.1331  1.8289
  107MOL    H9019382   7.630   1.718   0.158  0.8366 -0.0246 -1.8934
  107MOL    H9119383   7.766   1.697   0.274  0.8182  0.5080  1.4495
  107MOL    C9219384   7.844   1.486   8.066 -0.2211  0.6952  0.0798
  107MOL    C9319385   7.746   1.446   7.958  0.1541  0.2080 -0.0921
  107MOL    C9419386   7.847   1.377   0.018  0.0836  0.4621 -0.8317
  107MOL    O9519387   7.863   1.258   8.133  0.5634  0.2623 -0.0536
  107MOL    O9619388   7.838   1.425   0.144  0.1281  0.2745 -0.0922
  107MOL    H9719389   7.945   1.494   8.026  0.8254 -0.8374  2.2819
  107MOL    H9819390   7.777   1.350   7.915 -3.5030  0.1965 -2.9455
  107MOL    H9919391   7.649   1.426   8.002  0.8995  0.2008  1.5957
  107MOL   H10019392   7.737   1.526   7.885 -0.0640 -1.1567 -1.5907
  107MOL   C10119393   7.835   1.338   0.247 -1.0338 -0.4676 -0.5862
  107MOL   C10219394   7.688   1.329   0.287 -0.3174 -0.6134  0.0992
  107MOL   C10319395   7.924   1.377   0.375 -0.2249 -0.0670  0.4918
  107MOL   O10419396   7.877   1.376   0.490  0.2474 -0.0358  0.3534
  107MOL   O10519397   8.050   1.406   0.349 -0.4822 -0.0514  0.3252
  107MOL   H10619398   7.875   1.239   0.224  0.0687 -0.2239  0.2145
  107MOL   H10719399   7.655   1.428   0.319  0.5128 -0.7802  1.5085
  107MOL   H10819400   7.628   1.300   0.201 -0.4358 -0.3317  0.0870
  107MOL   H10919401   7.668   1.256   0.365  1.6455 -1.6153 -0.3029
  107MOL   C11019402   8.130   1.455   0.450 -0.6982  0.0957 -0.7873
  107MOL   C11119403   0.089   1.538   0.385 -0.1842  0.3282  0.1324
  107MOL   C11219404   0.034   1.324   0.525  0.3519 -0.9611 -0.4179
  107MOL   O11319405   0.035   1.318   0.647 -0.0458 -0.2070  0.2728
  107MOL   O11419406   0.087   1.234   0.439  0.2047  0.2460  0.2469
  107MOL   H11519407   8.067   1.523   0.507 -0.5813 -0.2292 -0.2773
  107MOL   H11619408   0.062   1.616   0.314  0.2070 -1.6549 -2.2527
  107MOL   H11719409   0.144   1.602   0.454  0.1102 -0.4316  0.6061
  107MOL   H11819410   0.159   1.471   0.335 -1.1364  0.7959 -1.8857
  107MOL   C11919411   0.160   1.122   0.482  0.0845 -0.0378  0.0782
  107MOL   C12019412   0.250   1.079   0.363  0.4946 -0.0467 -0.3648
  107MOL   C12119413   0.056   1.014   0.510 -0.6918 -1.0434  0.0053
  107MOL   O12219414   0.054   0.964   0.621 -0.6803  0.0639 -0.0800
  107MOL   O12319415   8.129   0.989   0.401  0.5390 -0.0619 -0.1332
  107MOL   H12419416   0.230   1.138   0.564  1.4858 -1.6951 -0.7617
  107MOL   H12519417   0.282   1.170   0.312  0.7004  0.4160  0.5741
  107MOL   H12619418   0.339   1.040   0.413 -1.6412 -0.8715  2.9211
  107MOL   H12719419   0.208   1.008   0.292 -2.0606  0.4288  0.6024
  107MOL   C12819420   8.028   0.887   0.396  0.0395  0.2063  0.8751
  107MOL   C12919421   8.012   0.848   0.245  0.1008 -0.4304 -0.5070
  107MOL   C13019422   7.888   0.945   0.445 -0.2567  0.2170 -0.7015
  107MOL   O13119423   7.855   1.064   0.456 -0.5964 -0.3335 -0.4631
  107MOL   O13219424   7.808   0.842   0.474  0.6519  0.1831 -0.8447
  107MOL   H13319425   8.047   0.805   0.465  3.5014  2.1120  2.3360
  107MOL   H13419426   7.963   0.929   0.191  2.0344 -0.6362 -2.6867
  107MOL   H13519427   8.114   0.834   0.209  0.6015  0.5184  0.5038
  107MOL   H13619428   7.962   0.752   0.236 -3.0213  0.7889  2.6915
  107MOL   C13719429   7.667   0.850   0.501  0.5963  0.1366 -0.5297
  107MOL   C13819430   7.633   0.730   0.580  0.4754  0.2794 -0.4704
  107MOL   C13919431   7.591   0.857   0.366 -0.3930 -0.0756 -0.4484
  107MOL   O14019432   7.537   0.962   0.331 -0.3994 -0.1738 -0.0993
  107MOL   O14119433   7.609   0.742   0.294  0.4023  0.0580  0.4224
  107MOL   H14219434   7.643   0.947   0.544  1.1463  1.3344 -2.8499
  107MOL   H14319435   7.526   0.712   0.581  0.8052 -1.7583  1.3683
  107MOL   H14419436   7.683   0.640   0.545  1.3980  0.1319  1.1555
  107MOL   H14519437   7.651   0.733   0.688 -0.5321 -1.1389 -0.2520
  107MOL   C14619438   7.559   0.729   0.167  1.1553 -0.1245  0.1402
  107MOL   C14719439   7.549   0.580   0.139 -0.3332 -0.0826  0.0358
  107MOL   C14819440   7.641   0.805   0.061 -0.5581  0.1328 -0.2446
  107MOL   O14919441   7.764   0.815   0.077 -0.2058  0.2402  0.6214
  107MOL   O15019442   7.569   0.848   8.098  0.2178 -0.0399  0.2060
  107MOL   H15119443   7.456   0.766   0.172  0.7338 -1.1948 -0.4814
  107MOL   H15219444   7.523   0.518   0.224  0.6060 -1.8269 -0.9314
  107MOL   H15319445   7.467   0.564   0.069 -2.2914  3.6230  1.3603
  107MOL   H15419446   7.637   0.534   0.092 -0.5086 -1.9539  1.4898
  107MOL   C15519447   7.618   0.890   7.976 -0.5992  0.2334  0.5841
  107MOL   C15619448   7.658   1.036   7.976 -0.0346 -0.1615 -0.4957
  107MOL   C15719449   7.515   0.856   7.869 -0.5151  0.0937  0.0332
  107MOL   O15819450   7.485   0.737   7.842  0.4547 -0.4447  0.1028
  107MOL   O15919451   7.461   0.966   7.808  0.2090  0.2431 -0.2875
  107MOL   H16019452   7.707   0.831   7.956 -0.4749 -0.5741  3.2612
  107MOL   H16119453   7.732   1.050   8.055 -0.8996 -0.7138  0.4256
  107MOL   H16219454   7.696   1.073   7.880 -2.7780  0.6545 -1.3248
  107MOL   H16319455   7.571   1.094   8.006 -1.2984 -1.6243 -1.2737
  107MOL   C16419456   7.340   0.959   7.734 -0.5903  0.1418 -0.3849
  107MOL   C16519457   7.368   0.904   7.598  0.5578 -0.2411  0.2400
  107MOL   C16619458   7.278   1.099   7.734  0.2534  0.1842 -0.4719
  107MOL   O16719459   7.200   1.137   7.821  0.2348 -0.0191 -0.0314
  107MOL   O16819460   7.347   1.184   7.659  0.6100  0.5496 -0.1900
  107MOL   H16919461   7.267   0.887   7.772  0.5905 -1.2199 -0.6523
  107MOL   H17019462   7.433   0.817   7.599 -1.0935 -1.5059  0.1067
  107MOL   H17119463   7.284   0.861   7.542  1.7137  0.8827 -2.4540
  107MOL   H17219464   7.416   0.981   7.537 -0.2776 -0.6504 -0.9643
  107MOL   C17319465   7.313   1.321   7.668 -0.3747 -0.8109  0.6353
  107MOL   C17419466   7.295   1.354   7.516 -0.7324 -0.0263 -0.5469
  107MOL   C17519467   7.432   1.399   7.723 -0.2118  0.5508  0.5433
  107MOL   O17619468   7.538   1.343   7.759  0.2341  0.1386  0.3290
  107MOL   O17719469   7.397   1.529   7.737  0.4788  0.2622 -0.0627
  107MOL   H17819470   7.227   1.350   7.727  0.3112 -3.1353  2.8427
  107MOL   H17919471   7.199   1.317   7.480 -1.0981  2.6648 -2.5086
  107MOL   H18019472   7.288   1.461   7.498  1.1838  0.1521 -0.3410
  107MOL   H18119473   7.378   1.316   7.456 -1.7266  0.9308 -2.5909
  107MOL   H18219474   7.474   1.578   7.762  0.0557  2.2161 -2.4590
  108MOL     C119475   2.862   7.196   3.242  0.1130 -0.0653 -0.7797
  108MOL     C219476   2.790   7.323   3.192 -0.2861  0.5888 -0.2477
  108MOL     C319477   2.946   7.122   3.136 -0.4461  0.4106 -0.2286
  108MOL     O419478   3.044   7.181   3.083 -0.2554 -0.1808 -0.1487
  108MOL     O519479   2.913   6.997   3.129 -0.0777 -0.3508  0.2741
  108MOL     H619480   2.927   7.229   3.322 -1.5235 -1.8652  1.3577
  108MOL     H719481   2.771   7.406   3.259 -1.6762 -0.7077  1.0062
  108MOL     H819482   2.819   7.356   3.092  0.9793  1.3997  0.3672
  108MOL     H919483   2.692   7.283   3.169 -0.2839 -0.6069  1.7020
  108MOL    H1019484   2.787   7.134   3.291  0.6586 -0.6329 -0.6546
  108MOL    C1119485   2.992   6.906   3.064 -0.2237 -0.5649 -0.2963
  108MOL    C1219486   2.937   6.884   2.921 -0.4009  0.1240  0.0140
  108MOL    C1319487   2.991   6.773   3.144 -0.8450 -0.6021  0.2426
  108MOL    O1419488   2.898   6.697   3.147 -0.0206  0.2702  0.1024
  108MOL    O1519489   3.101   6.764   3.227  0.1825 -0.4212  0.4067
  108MOL    H1619490   3.096   6.939   3.056 -0.3433  1.4495  4.7788
  108MOL    H1719491   3.002   6.817   2.864 -1.2912 -0.1964 -0.6339
  108MOL    H1819492   2.841   6.833   2.930  0.7958 -2.2699 -0.2097
  108MOL    H1919493   2.932   6.977   2.865  2.1249 -1.0660 -2.2734
  108MOL    C2019494   3.125   6.677   3.340  0.4700  0.2308  0.5170
  108MOL    C2119495   3.127   6.530   3.300 -0.6088  0.8259  0.1352
  108MOL    C2219496   3.030   6.707   3.453 -0.5502 -0.0055 -0.6382
  108MOL    O2319497   3.018   6.622   3.539  0.2415  0.2506 -0.7416
  108MOL    O2419498   2.950   6.815   3.434 -0.8806 -0.1458 -0.1410
  108MOL    H2519499   3.226   6.704   3.372  0.9620  0.5542 -1.2202
  108MOL    H2619500   3.202   6.489   3.367 -0.9554 -0.3718 -0.2125
  108MOL    H2719501   3.031   6.482   3.315 -0.4985  0.7410  0.5527
  108MOL    H2819502   3.163   6.524   3.197 -0.3442 -1.1995  0.3307
  108MOL    C2919503   2.864   6.847   3.540  0.0846  0.4215 -0.2116
  108MOL    C3019504   2.727   6.883   3.487 -0.1498 -0.3665  0.0697
  108MOL    C3119505   2.928   6.956   3.624 -0.2837  0.5747  0.1994
  108MOL    O3219506   2.980   6.933   3.734  0.1932 -0.0433 -0.4749
  108MOL    O3319507   2.915   7.089   3.573  0.0068  0.1071  0.1358
  108MOL    H3419508   2.846   6.765   3.609 -0.1954  0.8194  0.1939
  108MOL    H3519509   2.695   6.797   3.428 -1.5187 -0.1758  0.5361
  108MOL    H3619510   2.656   6.899   3.567  2.1634 -0.4677  2.1989
  108MOL    H3719511   2.741   6.968   3.419 -1.1849  0.8949  1.4046
  108MOL    C3819512   2.975   7.202   3.649 -0.3987  0.5973 -0.7640
  108MOL    C3919513   2.888   7.321   3.621 -0.0019  0.3903  0.6513
  108MOL    C4019514   3.126   7.207   3.618  0.2260  0.1569  0.4004
  108MOL    O4119515   3.210   7.215   3.710 -0.3648 -0.1029  0.0657
  108MOL    O4219516   3.150   7.219   3.491  0.3394  0.0928  0.3277
  108MOL    H4319517   2.964   7.190   3.757  2.5802 -1.3373 -0.5967
  108MOL    H4419518   2.868   7.334   3.515  1.2615  2.5701  0.6315
  108MOL    H4519519   2.791   7.319   3.670 -0.2659 -2.2112  0.0799
  108MOL    H4619520   2.951   7.406   3.650  1.2861 -0.4044  0.2278
  108MOL    C4719521   3.285   7.215   3.441 -0.3540  0.2387  0.5224
  108MOL    C4819522   3.300   7.311   3.323 -0.2680  0.7235 -0.7900
  108MOL    C4919523   3.325   7.069   3.402  0.0113  0.1639 -0.2690
  108MOL    O5019524   3.266   6.966   3.429 -0.4056  0.1956 -0.5066
  108MOL    O5119525   3.445   7.067   3.336  0.2027 -0.4749 -0.3355
  108MOL    H5219526   3.365   7.231   3.514  1.0534 -4.3694  0.1737
  108MOL    H5319527   3.277   7.414   3.346  0.8296  1.4213 -2.7170
  108MOL    H5419528   3.407   7.318   3.302  0.4339 -2.3064  1.4247
  108MOL    H5519529   3.242   7.286   3.234  1.8588 -3.9633 -1.0607
  108MOL    C5619530   3.511   6.947   3.296  0.1569  0.3042  0.5124
  108MOL    C5719531   3.647   6.994   3.256  0.1851  0.1684  0.7988
  108MOL    C5819532   3.435   6.873   3.185  0.1275  0.0076  0.6877
  108MOL    O5919533   3.342   6.925   3.120 -0.2518 -0.2734  0.1315
  108MOL    O6019534   3.480   6.748   3.149 -0.1176  0.1229 -0.0031
  108MOL    H6119535   3.518   6.889   3.388  0.3009  1.3479  1.1650
  108MOL    H6219536   3.697   7.044   3.339  3.0828 -0.2000 -0.6662
  108MOL    H6319537   3.701   6.905   3.224 -2.1637 -0.8038 -0.5772
  108MOL    H6419538   3.670   7.060   3.172  3.6531  0.5698  1.9561
  108MOL    C6519539   3.424   6.662   3.052  0.5926 -0.5310 -0.0200
  108MOL    C6619540   3.489   6.521   3.059  0.6116 -0.0008 -0.5229
  108MOL    C6719541   3.442   6.726   2.916  0.2630  0.3031 -0.5654
  108MOL    O6819542   3.556   6.737   2.873 -0.4243 -0.2184  0.8259
  108MOL    O6919543   3.325   6.767   2.857 -0.1474  0.1067  0.0617
  108MOL    H7019544   3.318   6.644   3.068  0.8115 -2.6159 -0.7102
  108MOL    H7119545   3.464   6.462   3.147  0.8217 -0.5248 -0.8085
  108MOL    H7219546   3.458   6.468   2.969  1.0469 -1.8174  0.3768
  108MOL    H7319547   3.598   6.529   3.055  0.8659 -2.7119  0.0529
  108MOL    C7419548   3.323   6.813   2.724 -0.1244  0.6465 -0.8010
  108MOL    C7519549   3.367   6.713   2.619 -0.4741 -0.3886  0.4847
  108MOL    C7619550   3.399   6.947   2.704  0.7437 -1.2958  0.6331
  108MOL    O7719551   3.506   6.940   2.652 -1.0294  0.2040 -0.5464
  108MOL    O7819552   3.327   7.048   2.755 -0.6247  0.0259  0.2364
  108MOL    H7919553   3.221   6.843   2.701 -0.7518 -1.4387 -0.7866
  108MOL    H8019554   3.311   6.734   2.528  0.4597 -0.9236 -0.2149
  108MOL    H8119555   3.475   6.716   2.628 -0.5714 -0.1643  1.7038
  108MOL    H8219556   3.334   6.610   2.636  0.9891 -1.0620 -0.6568
  108MOL    C8319557   3.378   7.183   2.765  0.1661 -0.2812  0.2373
  108MOL    C8419558   3.291   7.272   2.845 -0.3230  0.6295 -0.4638
  108MOL    C8519559   3.405   7.244   2.626 -0.0723 -0.0214 -0.4861
  108MOL    O8619560   3.351   7.199   2.523 -0.3840  0.3735  0.4567
  108MOL    O8719561   3.471   7.364   2.636 -0.4655  0.2605 -0.5910
  108MOL    H8819562   3.473   7.167   2.815 -0.9834  0.6230  2.7953
  108MOL    H8919563   3.199   7.266   2.787  0.0217 -0.1513 -0.9302
  108MOL    H9019564   3.281   7.237   2.948 -1.1232 -1.5614 -1.2716
  108MOL    H9119565   3.328   7.375   2.844  1.2121  0.0821 -3.2714
  108MOL    C9219566   3.478   7.459   2.527 -0.9524  0.2149  0.3679
  108MOL    C9319567   3.347   7.524   2.482  0.8450  0.4450  0.9710
  108MOL    C9419568   3.570   7.413   2.411  0.6305 -0.7408  0.2091
  108MOL    O9519569   3.580   7.480   2.311 -0.1080 -0.0558 -0.1670
  108MOL    O9619570   3.643   7.295   2.441  0.8116 -0.5043  0.0431
  108MOL    H9719571   3.538   7.540   2.568  0.8230 -1.0373  0.2755
  108MOL    H9819572   3.305   7.481   2.391  3.8152 -0.1945 -0.1611
  108MOL    H9919573   3.278   7.515   2.565 -0.1880 -2.0407 -0.1141
  108MOL   H10019574   3.362   7.632   2.470 -2.1259  0.8379  0.5893
  108MOL   C10119575   3.764   7.256   2.375 -0.1127 -0.1813  0.0072
  108MOL   C10219576   3.826   7.126   2.432 -0.0371 -0.0416 -0.6678
  108MOL   C10319577   3.865   7.368   2.350  0.6098 -0.2252  0.1091
  108MOL   O10419578   3.914   7.378   2.239  0.1601  0.3846 -0.9972
  108MOL   O10519579   3.887   7.447   2.451 -0.2036 -0.2521 -0.1363
  108MOL   H10619580   3.730   7.227   2.276 -0.0132  0.8510 -0.3370
  108MOL   H10719581   3.839   7.131   2.540  0.6666  1.8245 -0.8306
  108MOL   H10819582   3.756   7.045   2.410 -1.9047  2.2649 -3.6774
  108MOL   H10919583   3.925   7.106   2.393 -0.1003 -0.5330 -0.5894
  108MOL   C11019584   3.899   7.586   2.417  0.0846 -0.7456 -0.0081
  108MOL   C11119585   4.043   7.625   2.383 -0.1192 -0.7416  0.5256
  108MOL   C11219586   3.850   7.665   2.546 -0.1343 -0.4586  0.3116
  108MOL   O11319587   3.767   7.751   2.543  0.2867  0.2357  0.5136
  108MOL   O11419588   3.928   7.629   2.655  0.4249 -0.4363  0.1989
  108MOL   H11519589   3.842   7.619   2.330 -0.2147 -0.5387  0.2649
  108MOL   H11619590   4.084   7.579   2.293  0.3694  0.3811  0.1592
  108MOL   H11719591   4.038   7.732   2.364  2.8625  0.1321  3.9967
  108MOL   H11819592   4.108   7.606   2.468 -0.5493  0.2101  1.0785
  108MOL   C11919593   3.885   7.662   2.783 -0.0336  0.6221 -0.0008
  108MOL   C12019594   4.018   7.645   2.864 -0.3849 -0.2439  0.1956
  108MOL   C12119595   3.778   7.558   2.821  0.2262 -0.0979 -0.2480
  108MOL   O12219596   3.777   7.445   2.779 -0.2553 -0.0089  0.4122
  108MOL   O12319597   3.677   7.601   2.898  0.3502  0.0425 -0.7310
  108MOL   H12419598   3.854   7.767   2.784  2.5910  1.4253  0.5990
  108MOL   H12519599   4.089   7.724   2.837 -2.1563  1.5823  0.8269
  108MOL   H12619600   4.026   7.648   2.972  1.3765 -1.3587  0.1252
  108MOL   H12719601   4.071   7.551   2.850 -1.6609 -0.7764 -1.1951
  108MOL   C12819602   3.566   7.524   2.949  0.2564 -0.5605  0.2632
  108MOL   C12919603   3.459   7.610   3.013 -0.0375 -0.2165 -0.2172
  108MOL   C13019604   3.616   7.426   3.055  0.4528  0.3910  0.2535
  108MOL   O13119605   3.562   7.318   3.065 -0.3916 -0.0627  0.0173
  108MOL   O13219606   3.709   7.468   3.135  0.3429 -0.6997 -0.5736
  108MOL   H13319607   3.520   7.472   2.865 -2.0051 -1.2432  1.8891
  108MOL   H13419608   3.369   7.558   3.049 -0.2732  0.1541 -0.2712
  108MOL   H13519609   3.498   7.660   3.102 -0.3342 -0.7643  0.2258
  108MOL   H13619610   3.427   7.688   2.945 -1.2671  1.2049  1.9432
  108MOL   C13719611   3.772   7.375   3.227 -0.0179 -0.2644  0.7394
  108MOL   C13819612   3.714   7.389   3.376  0.0729  0.5129 -0.7474
  108MOL   C13919613   3.918   7.403   3.232 -0.3873 -0.3466  0.6368
  108MOL   O14019614   3.971   7.515   3.206  0.3732  0.3642 -0.0583
  108MOL   O14119615   3.986   7.303   3.291 -0.2122  0.2501  0.2040
  108MOL   H14219616   3.765   7.270   3.200 -1.2323 -0.1450  0.5678
  108MOL   H14319617   3.761   7.473   3.427 -0.4421  0.0992  0.4316
  108MOL   H14419618   3.608   7.412   3.384  0.2991  1.7155 -1.1261
  108MOL   H14519619   3.743   7.308   3.442  0.0322  0.7678 -0.4163
  108MOL   C14619620   4.123   7.303   3.312  0.7407  0.4614  0.2964
  108MOL   C14719621   4.184   7.169   3.315 -0.3841  0.5150 -1.0516
  108MOL   C14819622   4.159   7.386   3.436 -0.1965  0.2333 -0.0254
  108MOL   O14919623   4.073   7.410   3.519 -0.2626 -0.0640  0.3467
  108MOL   O15019624   4.285   7.427   3.442 -0.1572  0.1027  0.6686
  108MOL   H15119625   4.174   7.357   3.232  0.8689 -2.7259 -1.8339
  108MOL   H15219626   4.285   7.167   3.357 -0.7901 -1.2320 -0.1096
  108MOL   H15319627   4.120   7.105   3.375  1.0241 -1.1784 -1.3114
  108MOL   H15419628   4.183   7.125   3.216  2.8095 -1.6203 -0.2253
  108MOL   C15519629   4.326   7.512   3.554 -0.6786  0.4577  0.5410
  108MOL   C15619630   4.472   7.566   3.535 -0.4866 -0.3525 -0.6650
  108MOL   C15719631   4.314   7.438   3.683 -0.2246  0.5458 -0.4573
  108MOL   O15819632   4.250   7.487   3.777  0.4907  0.4763  0.8660
  108MOL   O15919633   4.386   7.324   3.687  0.5522 -0.2428 -0.5489
  108MOL   H16019634   4.259   7.598   3.557  1.9232  2.7004 -2.3782
  108MOL   H16119635   4.511   7.629   3.615  0.0246  1.7088 -2.4898
  108MOL   H16219636   4.548   7.489   3.520  2.0995  1.9926 -0.0209
  108MOL   H16319637   4.477   7.639   3.455  0.7748  0.4559  0.1400
  108MOL   C16419638   4.366   7.218   3.778 -0.2393  0.4317  0.2674
  108MOL   C16519639   4.502   7.154   3.793  0.0803  0.6608  0.9019
  108MOL   C16619640   4.251   7.136   3.740  0.5474  0.0765 -0.4256
  108MOL   O16719641   4.253   7.041   3.662  0.4916 -0.3535 -0.4279
  108MOL   O16819642   4.149   7.190   3.806 -0.2585 -0.1342  0.4367
  108MOL   H16919643   4.343   7.258   3.877  1.0844 -1.3370  1.3123
  108MOL   H17019644   4.503   7.087   3.878 -2.8080  0.8290  1.1272
  108MOL   H17119645   4.515   7.088   3.707  0.8472 -0.3971  1.8285
  108MOL   H17219646   4.580   7.230   3.786  1.2513 -0.7331 -1.7124
  108MOL   C17319647   4.023   7.136   3.815  0.0670  0.0887 -0.1756
  108MOL   C17419648   3.920   7.246   3.777 -0.2406  0.0640  0.1114
  108MOL   C17519649   4.002   7.095   3.963  0.5043  0.0806  0.0723
  108MOL   O17619650   3.921   7.140   4.047  0.5840  0.3442 -0.6162
  108MOL   O17719651   4.095   7.003   3.999 -0.1485  0.2465 -0.2625
  108MOL   H17819652   4.017   7.052   3.745  1.1718 -1.6854  1.8210
  108MOL   H17919653   3.821   7.200   3.774 -1.2496  2.1619  0.5604
  108MOL   H18019654   3.914   7.332   3.843  3.1742 -0.4185  1.1115
  108MOL   H18119655   3.948   7.295   3.684  0.2997  0.5805  0.5448
  108MOL   H18219656   4.079   7.010   4.091  1.1110  2.7168 -0.2071
  109MOL     C119657   4.467   1.986   3.357  0.5197 -0.6039 -0.4713
  109MOL     C219658   4.312   2.014   3.367 -0.4446 -1.2286  0.2382
  109MOL     C319659   4.556   2.108   3.363 -0.6419 -0.0366  0.2911
  109MOL     O419660   4.527   2.212   3.312 -0.2823 -0.3060  0.0820
  109MOL     O519661   4.671   2.080   3.425 -0.0245  0.1034 -0.1177
  109MOL     H619662   4.503   1.917   3.433 -2.9970 -1.2104  0.7000
  109MOL     H719663   4.294   2.116   3.332  1.1681 -0.6971  0.9088
  109MOL     H819664   4.257   1.947   3.300 -0.4124  0.0595 -1.1216
  109MOL     H919665   4.275   2.007   3.469  1.1425  1.3197  1.0119
  109MOL    H1019666   4.482   1.934   3.263 -0.1610 -2.0316  0.2017
  109MOL    C1119667   4.772   2.182   3.437  0.4472 -0.9607  0.0282
  109MOL    C1219668   4.912   2.126   3.451 -0.2201 -0.0097  0.1281
  109MOL    C1319669   4.735   2.286   3.544  0.3675 -0.0853 -0.0590
  109MOL    O1419670   4.642   2.264   3.626 -0.6797 -0.2517  0.3781
  109MOL    O1519671   4.805   2.399   3.533  0.0564 -0.0456 -0.0867
  109MOL    H1619672   4.777   2.243   3.347  0.9038 -0.1110  0.6194
  109MOL    H1719673   4.987   2.202   3.473  0.5713 -1.0361  1.0419
  109MOL    H1819674   4.923   2.058   3.536  1.6082 -1.3351 -1.1322
  109MOL    H1919675   4.942   2.082   3.355  0.7117  1.2172 -0.1478
  109MOL    C2019676   4.802   2.512   3.622  0.3471 -0.1464 -0.1788
  109MOL    C2119677   4.872   2.477   3.752 -0.4418 -0.1636  0.1124
  109MOL    C2219678   4.664   2.575   3.635  0.0243 -0.3818 -1.2824
  109MOL    O2319679   4.609   2.596   3.741 -0.3733 -0.1024  0.4073
  109MOL    O2419680   4.625   2.619   3.516  0.1602 -0.5472 -0.2349
  109MOL    H2519681   4.857   2.590   3.570  0.2342 -0.5974 -0.9691
  109MOL    H2619682   4.823   2.400   3.812  3.4730 -1.3075  2.0588
  109MOL    H2719683   4.967   2.424   3.741  0.4382  1.1767  1.0749
  109MOL    H2819684   4.885   2.563   3.818 -1.7603 -1.2275  1.7832
  109MOL    C2919685   4.511   2.705   3.496 -0.2862 -0.0062  0.0452
  109MOL    C3019686   4.509   2.846   3.560  0.0226  0.2274 -0.4104
  109MOL    C3119687   4.383   2.633   3.546 -0.5295  0.1904 -0.1055
  109MOL    O3219688   4.326   2.662   3.653  0.3655 -0.5334 -0.2669
  109MOL    O3319689   4.348   2.526   3.477  0.2237 -0.1564 -0.2072
  109MOL    H3419690   4.505   2.723   3.389 -0.2202 -0.4852 -0.0406
  109MOL    H3519691   4.520   2.847   3.668  0.4765 -3.2728 -0.3805
  109MOL    H3619692   4.591   2.905   3.519 -0.3312  0.7249 -0.4060
  109MOL    H3719693   4.413   2.892   3.538 -0.2851  1.2133  2.7476
  109MOL    C3819694   4.230   2.458   3.504 -0.1753 -0.1634  0.3287
  109MOL    C3919695   4.244   2.321   3.457  0.2924  0.3964  0.4504
  109MOL    C4019696   4.111   2.534   3.442 -0.3705 -0.4424 -0.3633
  109MOL    O4119697   4.009   2.563   3.510 -0.2595  0.0173 -0.3885
  109MOL    O4219698   4.133   2.557   3.310  0.3781 -0.3515 -0.6627
  109MOL    H4319699   4.203   2.441   3.609 -0.4048 -1.0065  0.1340
  109MOL    H4419700   4.150   2.268   3.476  0.4136  0.8637  2.4563
  109MOL    H4519701   4.259   2.333   3.350 -1.4820 -1.9945 -0.1308
  109MOL    H4619702   4.330   2.271   3.502  0.7110  0.4693 -0.2705
  109MOL    C4719703   4.055   2.660   3.244  0.0718  0.5360 -0.4910
  109MOL    C4819704   4.098   2.802   3.299  0.2767 -0.6836  0.0142
  109MOL    C4919705   3.904   2.633   3.239 -0.3155 -0.0389 -0.1499
  109MOL    O5019706   3.809   2.720   3.237 -0.0628 -0.1357 -0.4180
  109MOL    O5119707   3.879   2.503   3.222 -0.3741 -0.2090 -0.2551
  109MOL    H5219708   4.090   2.655   3.141  2.4675 -0.4245  0.3428
  109MOL    H5319709   4.060   2.883   3.237  2.3083  0.7673  0.6249
  109MOL    H5419710   4.042   2.812   3.391 -0.3297 -1.4275 -0.2696
  109MOL    H5519711   4.201   2.800   3.335  0.2088 -1.9599  0.1622
  109MOL    C5619712   3.747   2.450   3.193  0.8415  0.7404  0.5495
  109MOL    C5719713   3.694   2.458   3.050 -0.3866 -0.4810  0.1457
  109MOL    C5819714   3.648   2.487   3.301 -0.1270 -0.1107 -0.2235
  109MOL    O5919715   3.547   2.553   3.267  0.2218 -0.1353 -0.1431
  109MOL    O6019716   3.692   2.468   3.426 -0.3218 -0.5765 -0.6684
  109MOL    H6119717   3.776   2.346   3.210 -2.6256 -0.4532 -0.2953
  109MOL    H6219718   3.589   2.429   3.048 -0.5858  0.1730  0.8674
  109MOL    H6319719   3.713   2.559   3.012  0.2857 -0.5645  0.2539
  109MOL    H6419720   3.736   2.375   2.993 -0.8881 -0.6133 -0.0291
  109MOL    C6519721   3.623   2.518   3.539 -0.1840 -0.1668 -0.9679
  109MOL    C6619722   3.660   2.668   3.548  0.2084  0.7356  0.6775
  109MOL    C6719723   3.661   2.440   3.663  0.8769 -0.3741 -0.9841
  109MOL    O6819724   3.577   2.360   3.710 -0.5536 -0.1988  0.1474
  109MOL    O6919725   3.789   2.461   3.697  0.3983 -0.3514  0.0402
  109MOL    H7019726   3.515   2.507   3.529 -0.2561  0.8720 -1.4111
  109MOL    H7119727   3.605   2.708   3.633 -2.3067 -1.0495 -0.0527
  109MOL    H7219728   3.766   2.685   3.568 -0.0408  2.4809  0.6665
  109MOL    H7319729   3.639   2.714   3.452  0.3450  0.6393  0.6012
  109MOL    C7419730   3.854   2.397   3.812 -0.4905  0.2878 -0.0791
  109MOL    C7519731   3.937   2.507   3.885  0.3062 -0.1266  0.2679
  109MOL    C7619732   3.930   2.274   3.761  0.3049 -0.3623  0.0158
  109MOL    O7719733   4.056   2.282   3.754 -0.2293  0.1450 -0.2807
  109MOL    O7819734   3.857   2.167   3.719 -0.1219 -0.7901  0.2492
  109MOL    H7919735   3.786   2.342   3.877 -0.7745 -1.2755 -1.6442
  109MOL    H8019736   4.020   2.547   3.826 -0.6050  2.4605  0.6545
  109MOL    H8119737   3.868   2.588   3.909 -0.5511 -0.1383 -1.9822
  109MOL    H8219738   3.969   2.474   3.984 -0.5227  0.3994  0.7176
  109MOL    C8319739   3.919   2.047   3.671  0.2146 -0.8969 -0.1277
  109MOL    C8419740   3.819   1.976   3.581  0.4538  0.1014 -0.1050
  109MOL    C8519741   3.965   1.955   3.788 -0.9105 -0.4619 -0.5360
  109MOL    O8619742   4.077   1.911   3.786 -0.6991  0.0857  0.7278
  109MOL    O8719743   3.880   1.939   3.890 -0.2370 -0.5585 -0.8644
  109MOL    H8819744   3.998   2.074   3.602 -1.1756  0.8969 -1.0747
  109MOL    H8919745   3.725   1.950   3.629  1.0477 -3.4492 -0.7163
  109MOL    H9019746   3.802   2.035   3.491  2.8440 -0.3502 -0.8977
  109MOL    H9119747   3.856   1.876   3.556  0.5499  0.4991 -1.6189
  109MOL    C9219748   3.906   1.843   3.991 -0.1448  0.1350 -0.2618
  109MOL    C9319749   3.775   1.854   4.071 -0.6753 -0.1432  0.2589
  109MOL    C9419750   4.025   1.886   4.075 -0.2620 -0.0859 -0.7331
  109MOL    O9519751   4.118   1.804   4.104 -0.0702  0.1436  0.5500
  109MOL    O9619752   4.022   2.011   4.126 -0.2456  0.6120  0.1335
  109MOL    H9719753   3.921   1.744   3.948  1.8977 -1.1496  3.1755
  109MOL    H9819754   3.776   1.956   4.110 -1.8828  0.8608 -2.2306
  109MOL    H9919755   3.680   1.843   4.020 -1.0593 -1.2117  1.1928
  109MOL   H10019756   3.782   1.792   4.160  0.6650 -1.3625 -0.6689
  109MOL   C10119757   4.144   2.079   4.163  0.0373 -0.1467 -0.0705
  109MOL   C10219758   4.171   2.064   4.309 -0.4088  0.2684 -0.1673
  109MOL   C10319759   4.139   2.227   4.119  0.3148 -0.0621 -0.6953
  109MOL   O10419760   4.046   2.299   4.151  0.2463 -0.1133  0.4146
  109MOL   O10519761   4.252   2.266   4.061 -0.0435  0.6050  0.2482
  109MOL   H10619762   4.229   2.039   4.107 -0.6768  0.5428 -1.6393
  109MOL   H10719763   4.207   1.961   4.320 -2.5974 -0.7104 -1.6998
  109MOL   H10819764   4.245   2.133   4.348 -0.3276 -0.5905  1.2111
  109MOL   H10919765   4.079   2.088   4.362  0.5999  0.9107  1.3258
  109MOL   C11019766   4.274   2.399   4.015  0.3734  0.1732  0.1319
  109MOL   C11119767   4.413   2.392   3.951  0.3590 -0.6719  0.5033
  109MOL   C11219768   4.264   2.506   4.130 -0.2694  0.2929  0.6493
  109MOL   O11319769   4.357   2.524   4.212  0.0098  0.2545 -0.6130
  109MOL   O11419770   4.151   2.574   4.133 -0.1077 -0.0368 -0.2472
  109MOL   H11519771   4.207   2.436   3.938  1.8828 -0.8823 -1.7351
  109MOL   H11619772   4.467   2.487   3.956 -0.6051 -0.0212 -1.0906
  109MOL   H11719773   4.474   2.324   4.010 -0.2676 -1.5567  0.1288
  109MOL   H11819774   4.424   2.351   3.851  2.3801 -2.5598  1.4665
  109MOL   C11919775   4.127   2.668   4.241 -0.1632 -0.4774 -0.3486
  109MOL   C12019776   3.975   2.698   4.249 -0.6728  0.8761  0.2656
  109MOL   C12119777   4.199   2.799   4.207  0.5414  0.2673  1.1225
  109MOL   O12219778   4.221   2.824   4.087  0.8938 -0.0971 -0.1828
  109MOL   O12319779   4.204   2.884   4.306  0.1326 -0.2653 -0.1156
  109MOL   H12419780   4.164   2.623   4.333 -0.6447 -2.2764 -1.0273
  109MOL   H12519781   3.942   2.736   4.153  2.9463 -1.6189 -2.1029
  109MOL   H12619782   3.916   2.608   4.267  1.2422 -0.2805  0.9696
  109MOL   H12719783   3.953   2.768   4.329  1.0389  1.9685 -0.1974
  109MOL   C12819784   4.260   3.016   4.285 -0.1816 -0.4662 -0.2301
  109MOL   C12919785   4.302   3.073   4.418 -0.1664 -0.0352  0.5544
  109MOL   C13019786   4.160   3.109   4.205 -0.1227  1.0394 -0.1677
  109MOL   O13119787   4.206   3.204   4.150  0.0272  0.6895  0.2059
  109MOL   O13219788   4.031   3.074   4.201  0.1424 -0.1022 -0.1040
  109MOL   H13319789   4.348   2.998   4.225  0.5640 -1.1080  1.0292
  109MOL   H13419790   4.220   3.102   4.484  0.3731  1.9984  0.3565
  109MOL   H13519791   4.357   2.996   4.472  0.6475 -1.7222 -2.5716
  109MOL   H13619792   4.352   3.168   4.402 -2.5621  1.3054  0.7080
  109MOL   C13719793   3.942   3.131   4.103 -0.0913 -0.2151  1.2893
  109MOL   C13819794   3.817   3.051   4.126  0.1694  0.1851 -0.0139
  109MOL   C13919795   3.987   3.116   3.952  0.0348 -0.0093 -0.0335
  109MOL   O14019796   3.990   3.205   3.874 -0.0191  0.1346 -0.1817
  109MOL   O14119797   4.008   2.989   3.919 -0.8542  0.1633 -0.4340
  109MOL   H14219798   3.939   3.237   4.129 -1.0795  0.3381 -0.9587
  109MOL   H14319799   3.749   3.053   4.041  1.2175 -2.1321 -0.9317
  109MOL   H14419800   3.842   2.946   4.133 -0.5721  0.1149  1.7559
  109MOL   H14519801   3.766   3.087   4.216 -2.5906 -1.0980 -1.0366
  109MOL   C14619802   4.056   2.946   3.790  0.0626  0.0704 -0.0061
  109MOL   C14719803   4.037   2.795   3.781  0.2112 -0.2402  0.0456
  109MOL   C14819804   4.198   2.987   3.749 -0.1542 -0.1680 -0.4349
  109MOL   O14919805   4.228   2.981   3.632 -0.5827 -0.2107  0.0714
  109MOL   O15019806   4.280   3.027   3.852 -0.2059  0.3883  0.3631
  109MOL   H15119807   4.002   2.999   3.711 -0.3081  1.8998  1.4275
  109MOL   H15219808   4.077   2.747   3.691  1.0683 -1.1667  0.8917
  109MOL   H15319809   4.096   2.757   3.865  0.1779 -1.5876 -0.5183
  109MOL   H15419810   3.931   2.779   3.797 -1.0820  4.4323 -3.0329
  109MOL   C15519811   4.419   3.057   3.834 -0.1788  0.0981  0.1258
  109MOL   C15619812   4.495   2.963   3.934 -1.4712  0.0760  0.5731
  109MOL   C15719813   4.442   3.201   3.879 -0.0839 -0.0473  0.1943
  109MOL   O15819814   4.553   3.233   3.925 -0.3843 -0.2417  0.3497
  109MOL   O15919815   4.341   3.286   3.861  0.4756 -0.4601 -0.3065
  109MOL   H16019816   4.448   3.050   3.729  0.0761 -1.8876  0.3139
  109MOL   H16119817   4.463   2.977   4.037 -0.4375  1.8049  0.6774
  109MOL   H16219818   4.461   2.860   3.918 -0.5129 -0.2197  0.3882
  109MOL   H16319819   4.603   2.970   3.921 -1.2490  1.7028  3.1586
  109MOL   C16419820   4.349   3.429   3.878 -0.0939  0.4519  0.8928
  109MOL   C16519821   4.221   3.470   3.947  0.3217 -0.6165  0.0685
  109MOL   C16619822   4.375   3.497   3.747  0.5026  0.7644  0.2794
  109MOL   O16719823   4.491   3.527   3.721 -1.0625 -0.1765  0.6485
  109MOL   O16819824   4.266   3.509   3.666  0.3023  0.0685  0.4924
  109MOL   H16919825   4.426   3.469   3.945  0.7292 -0.1705  0.3236
  109MOL   H17019826   4.204   3.578   3.949  0.2566 -0.6019 -0.9201
  109MOL   H17119827   4.130   3.424   3.908  1.4882 -2.4539 -0.5864
  109MOL   H17219828   4.225   3.436   4.050  1.1393 -0.0053  0.2496
  109MOL   C17319829   4.291   3.571   3.539  0.0779 -0.0762  0.1872
  109MOL   C17419830   4.394   3.508   3.444 -0.2993  0.6023  0.6430
  109MOL   C17519831   4.316   3.719   3.558 -0.2185 -0.7185 -0.0231
  109MOL   O17619832   4.408   3.784   3.508 -0.6282 -0.0585  0.5115
  109MOL   O17719833   4.221   3.775   3.634  0.2637  0.4602  0.2065
  109MOL   H17819834   4.189   3.562   3.503  0.2599 -0.4512 -0.2457
  109MOL   H17919835   4.368   3.405   3.423  0.8273  0.6911 -1.2944
  109MOL   H18019836   4.401   3.565   3.351 -2.0273 -0.9665 -0.4763
  109MOL   H18119837   4.491   3.508   3.494  0.0780  1.7266 -0.0789
  109MOL   H18219838   4.236   3.868   3.648 -0.3018  0.5112  0.4675
  110MOL     C119839   5.684   4.767   7.883  0.4456 -0.4062  0.2695
  110MOL     C219840   5.735   4.777   8.027 -0.1587  0.3880 -0.3530
  110MOL     C319841   5.552   4.699   7.876  0.4516 -0.4681  0.8769
  110MOL     O419842   5.538   4.597   7.811  0.1004  0.2020 -0.2736
  110MOL     O519843   5.454   4.747   7.951  0.1903 -0.1530 -0.1202
  110MOL     H619844   5.667   4.860   7.828  0.8562 -0.1436  0.5825
  110MOL     H719845   5.844   4.789   8.034 -0.0342 -1.1485  0.4411
  110MOL     H819846   5.688   4.860   8.080 -2.1960 -0.2766 -1.0677
  110MOL     H919847   5.706   4.689   8.085 -0.8244  1.2846  0.6931
  110MOL    H1019848   5.757   4.708   7.826  1.6840  1.7732 -0.4571
  110MOL    C1119849   5.345   4.669   8.010 -0.2506  0.5088 -0.3725
  110MOL    C1219850   5.244   4.778   8.063  0.9683  1.1381  0.0558
  110MOL    C1319851   5.393   4.570   8.112 -0.2237  0.2141  0.1022
  110MOL    O1419852   5.475   4.600   0.052 -0.2037  0.9174  0.1754
  110MOL    O1519853   5.327   4.461   8.103  0.0180 -0.0050 -0.2309
  110MOL    H1619854   5.285   4.619   7.934 -0.4809  0.8088 -0.3900
  110MOL    H1719855   5.296   4.851   8.127  0.7320  1.2948  0.0677
  110MOL    H1819856   5.184   4.824   7.986 -0.8970 -0.6958  0.3792
  110MOL    H1919857   5.166   4.729   8.121 -0.1556  3.4501  0.5388
  110MOL    C2019858   5.355   4.351   0.051  0.5704  0.1146 -0.5382
  110MOL    C2119859   5.276   4.231   0.013 -0.1750 -0.5125 -0.0808
  110MOL    C2219860   5.320   4.384   0.199 -0.1952 -0.3617 -0.1240
  110MOL    O2319861   5.220   4.449   0.220  0.0014 -0.1922  0.3456
  110MOL    O2419862   5.416   4.338   0.286 -0.5034 -0.5731 -0.9554
  110MOL    H2519863   5.460   4.325   0.042 -0.1898 -2.4624 -2.9284
  110MOL    H2619864   5.171   4.259   0.003 -0.2348 -1.6728 -3.2269
  110MOL    H2719865   5.305   4.188   8.064 -0.5970  1.4712 -1.1281
  110MOL    H2819866   5.281   4.158   0.093 -2.5753  0.0232  0.5896
  110MOL    C2919867   5.402   4.363   0.428 -0.1939 -0.9324 -0.5685
  110MOL    C3019868   5.521   4.296   0.495 -0.2140 -0.1393  0.4119
  110MOL    C3119869   5.268   4.306   0.482  0.2923  0.6233 -0.1031
  110MOL    O3219870   5.238   4.182   0.458  0.7355  0.2479  0.2521
  110MOL    O3319871   5.209   4.399   0.555  0.2832 -0.2171  0.2201
  110MOL    H3419872   5.417   4.469   0.448 -1.0881 -1.0688  0.9518
  110MOL    H3519873   5.506   4.189   0.509 -2.7128  0.1942  0.6057
  110MOL    H3619874   5.605   4.338   0.440 -0.4368  1.5710  1.3395
  110MOL    H3719875   5.526   4.333   0.598  2.3923  1.4532 -0.2514
  110MOL    C3819876   5.077   4.398   0.605  0.1022  0.9766 -0.1300
  110MOL    C3919877   5.090   4.373   0.756 -0.1069 -0.0092  0.1188
  110MOL    C4019878   4.982   4.298   0.541 -0.4817  0.4978 -0.3589
  110MOL    O4119879   4.915   4.220   0.608  0.2232 -0.3894  0.7617
  110MOL    O4219880   4.960   4.333   0.414 -0.0587 -0.8707  0.3178
  110MOL    H4319881   5.031   4.496   0.597  1.8398  1.6985 -1.5633
  110MOL    H4419882   5.170   4.425   0.809  0.8373 -0.3366 -0.9673
  110MOL    H4519883   4.995   4.401   0.802 -0.1588 -0.0643  0.0451
  110MOL    H4619884   5.127   4.274   0.782  0.7668 -0.4196 -2.5343
  110MOL    C4719885   4.879   4.253   0.326 -0.1963  0.1825  0.6456
  110MOL    C4819886   4.960   4.200   0.207 -0.3205  0.7955 -0.3747
  110MOL    C4919887   4.745   4.323   0.294 -0.0784 -0.0466  0.4988
  110MOL    O5019888   4.715   4.354   0.175 -0.4876 -0.5992 -0.1491
  110MOL    O5119889   4.674   4.356   0.405  0.1344 -0.1250 -0.3955
  110MOL    H5219890   4.861   4.156   0.373 -2.2528  0.3664  0.2702
  110MOL    H5319891   5.052   4.147   0.230  0.1247  0.8016 -2.0417
  110MOL    H5419892   4.906   4.141   0.133  0.1684 -0.3773  0.2073
  110MOL    H5519893   4.990   4.277   0.135  1.7572  0.1333 -0.2558
  110MOL    C5619894   4.548   4.416   0.394  0.6384 -0.3422 -0.3394
  110MOL    C5719895   4.523   4.498   0.525  0.3253  0.4931  0.0694
  110MOL    C5819896   4.438   4.316   0.362  1.0070  0.4575 -0.2673
  110MOL    O5919897   4.361   4.277   0.454  0.3564 -0.6642  0.0211
  110MOL    O6019898   4.434   4.294   0.228 -0.7043  0.0544 -0.6569
  110MOL    H6119899   4.549   4.490   0.314 -0.7074 -1.1356 -1.1123
  110MOL    H6219900   4.576   4.593   0.527  0.9672  0.2150 -2.0724
  110MOL    H6319901   4.419   4.506   0.555  0.1048  0.4497 -0.6518
  110MOL    H6419902   4.568   4.441   0.606 -0.8527 -1.1025 -0.3623
  110MOL    C6519903   4.346   4.204   0.159  0.1536 -0.0337 -0.7133
  110MOL    C6619904   4.427   4.089   0.095  0.0530  0.0774 -0.1940
  110MOL    C6719905   4.266   4.281   0.056  0.3513  0.2246  0.2760
  110MOL    O6819906   4.307   4.393   0.012  0.0889  0.6870 -0.4060
  110MOL    O6919907   4.158   4.213   0.005  0.6502 -0.3401  0.1663
  110MOL    H7019908   4.273   4.171   0.233  0.2513 -1.1717 -1.1097
  110MOL    H7119909   4.358   4.007   0.072 -2.1095  0.9925  2.7012
  110MOL    H7219910   4.449   4.122   8.141  1.7326 -0.2468  0.0614
  110MOL    H7319911   4.522   4.072   0.144 -0.8993  0.4281  1.8194
  110MOL    C7419912   4.076   4.278   8.055  0.6285  0.3236 -0.3710
  110MOL    C7519913   3.955   4.188   8.055 -0.1225  0.1696 -0.6442
  110MOL    C7619914   4.154   4.293   7.920 -0.5039  0.6854  0.3315
  110MOL    O7719915   4.150   4.402   7.855  0.5399 -0.2704 -0.3246
  110MOL    O7819916   4.214   4.178   7.876  0.6502  0.5933 -0.2736
  110MOL    H7919917   4.043   4.376   8.090  3.0828  1.5327 -1.3133
  110MOL    H8019918   3.918   4.171   0.009  1.1580 -0.0523 -0.1964
  110MOL    H8119919   3.876   4.242   8.004 -0.0161 -0.0349 -1.0249
  110MOL    H8219920   3.975   4.092   8.007 -0.2765 -1.0356  1.5798
  110MOL    C8319921   4.293   4.170   7.757 -0.1496 -0.0721  0.0843
  110MOL    C8419922   4.231   4.070   7.659 -0.4121  0.0430  0.2842
  110MOL    C8519923   4.438   4.117   7.801  0.0951 -1.0826 -0.0167
  110MOL    O8619924   4.473   4.009   7.757 -0.8379  0.2651  0.8266
  110MOL    O8719925   4.509   4.208   7.873 -0.2502  0.0279 -0.6728
  110MOL    H8819926   4.305   4.267   7.709 -1.0850 -1.2934 -2.7540
  110MOL    H8919927   4.300   4.052   7.576 -0.6405 -2.4563  0.6244
  110MOL    H9019928   4.207   3.979   7.713  0.0739  0.3552  1.0332
  110MOL    H9119929   4.141   4.102   7.606  0.4959 -2.0916 -2.6526
  110MOL    C9219930   4.634   4.179   7.930  0.1055  0.2268 -1.3918
  110MOL    C9319931   4.650   4.285   8.037 -0.5663  0.2006 -0.7064
  110MOL    C9419932   4.754   4.176   7.829 -0.0474 -0.4160  0.5984
  110MOL    O9519933   4.729   4.193   7.710  0.0123  0.7864  0.3822
  110MOL    O9619934   4.870   4.151   7.884  0.5416 -0.1756 -0.0271
  110MOL    H9719935   4.617   4.084   7.981 -1.2583  1.5237  0.6717
  110MOL    H9819936   4.740   4.268   8.094 -1.5305  1.1613  1.1388
  110MOL    H9919937   4.663   4.383   7.990 -0.3282 -0.0934 -1.2636
  110MOL   H10019938   4.564   4.296   8.103  0.8133  0.1871  1.1256
  110MOL   C10119939   4.992   4.168   7.814  0.7972 -0.2056 -0.3142
  110MOL   C10219940   5.091   4.058   7.855  0.2587  0.5316 -0.1761
  110MOL   C10319941   5.045   4.316   7.853  0.0604  0.2225 -0.1625
  110MOL   O10419942   5.161   4.346   7.823 -0.8174 -0.8159  0.5946
  110MOL   O10519943   4.964   4.389   7.939 -0.7302  0.4626  0.1320
  110MOL   H10619944   4.992   4.161   7.705 -0.3810  0.5262 -0.3669
  110MOL   H10719945   5.063   3.955   7.829  2.5955 -0.4950  1.2261
  110MOL   H10819946   5.189   4.077   7.811  0.2354  1.6919  0.2723
  110MOL   H10919947   5.103   4.063   7.963 -0.4989 -0.7166 -0.0211
  110MOL   C11019948   4.990   4.525   7.971  0.5562  0.0239  0.5664
  110MOL   C11119949   4.925   4.543   8.108  0.1498  1.0061  0.6848
  110MOL   C11219950   4.938   4.615   7.860 -0.1993 -0.7930  0.0960
  110MOL   O11319951   4.840   4.690   7.878 -0.0188  0.9203  0.1221
  110MOL   O11419952   4.997   4.602   7.746 -0.0010  0.1806 -0.0623
  110MOL   H11519953   5.096   4.542   7.987  0.2805  1.8466  0.5949
  110MOL   H11619954   4.928   4.651   8.122 -1.0828  1.1606 -0.1441
  110MOL   H11719955   4.820   4.516   8.110 -0.5223  3.2242 -1.3019
  110MOL   H11819956   4.981   4.498   0.042 -0.3664 -0.3741  0.2821
  110MOL   C11919957   4.952   4.673   7.636  0.1240 -0.2455  0.6231
  110MOL   C12019958   5.005   4.586   7.522 -0.2809 -0.6166  0.2763
  110MOL   C12119959   5.010   4.816   7.633  0.2129  0.4767  0.9604
  110MOL   O12219960   5.083   4.859   7.721  0.1008  0.2066 -0.0316
  110MOL   O12319961   4.971   4.883   7.526 -0.1562  0.6190  0.3331
  110MOL   H12419962   4.843   4.671   7.628  0.1850 -1.0105 -0.1148
  110MOL   H12519963   5.012   4.637   7.426 -0.9729  1.7475  1.4590
  110MOL   H12619964   5.109   4.563   7.544 -0.2796  0.0949  1.0345
  110MOL   H12719965   4.948   4.493   7.516  0.0333 -0.7152 -1.3650
  110MOL   C12819966   4.996   5.017   7.505  0.5157  0.2237  0.5084
  110MOL   C12919967   4.865   5.062   7.450  0.3947 -0.3159  0.3072
  110MOL   C13019968   5.116   5.036   7.412  0.7093 -0.7290 -0.3525
  110MOL   O13119969   5.178   4.945   7.371 -0.1039  0.4234  0.6310
  110MOL   O13219970   5.129   5.165   7.375 -0.2920  0.2362 -0.9349
  110MOL   H13319971   5.013   5.073   7.597  0.2109  2.6726 -0.8734
  110MOL   H13419972   4.781   5.028   7.511 -0.1002  0.4429  0.0574
  110MOL   H13519973   4.867   5.170   7.437 -0.5081 -0.1863  1.1543
  110MOL   H13619974   4.858   5.032   7.346  1.7852  1.5060 -0.3257
  110MOL   C13719975   5.206   5.213   7.264  0.3769 -0.6345  0.0884
  110MOL   C13819976   5.196   5.367   7.276  0.5764  0.0849  0.0497
  110MOL   C13919977   5.153   5.156   7.129 -0.1003 -0.1695  0.6125
  110MOL   O14019978   5.036   5.160   7.096 -0.1219  0.5320  0.4704
  110MOL   O14119979   5.260   5.099   7.055 -0.1493  0.4839  0.2349
  110MOL   H14219980   5.310   5.184   7.277  0.0853 -1.6757  0.1905
  110MOL   H14319981   5.192   5.395   7.381 -2.2969 -0.3643  0.0966
  110MOL   H14419982   5.284   5.421   7.242  0.9065 -0.8329 -0.5625
  110MOL   H14519983   5.109   5.399   7.219 -0.8690 -1.2721  1.4217
  110MOL   C14619984   5.240   5.020   6.938  0.9844  0.1255 -0.3854
  110MOL   C14719985   5.372   4.962   6.889 -0.2827  0.2131  0.5927
  110MOL   C14819986   5.156   5.095   6.829  0.0985  0.8838 -0.8689
  110MOL   O14919987   5.044   5.054   6.794  0.1331  0.3038 -0.4039
  110MOL   O15019988   5.228   5.200   6.784 -0.3234 -0.3399 -0.2253
  110MOL   H15119989   5.176   4.937   6.968  0.6757  0.5866  0.2420
  110MOL   H15219990   5.448   5.038   6.908  1.0172 -1.6216  3.1622
  110MOL   H15319991   5.405   4.871   6.940  0.8888  0.8295  0.9659
  110MOL   H15419992   5.365   4.932   6.785  1.3246  2.9591 -0.3674
  110MOL   C15519993   5.173   5.299   6.704  0.8106 -0.2933 -0.3131
  110MOL   C15619994   5.281   5.367   6.625  0.0503  0.2259 -0.2306
  110MOL   C15719995   5.102   5.395   6.801  0.5331 -0.3634 -0.1484
  110MOL   O15819996   5.159   5.497   6.839  0.2659  0.0191 -0.1019
  110MOL   O15919997   4.983   5.352   6.835 -0.3471  0.3245  0.4723
  110MOL   H16019998   5.099   5.261   6.633  1.1809 -2.0678  0.2404
  110MOL   H16119999   5.333   5.288   6.572  0.4807  1.5746 -1.8740
  110MOL   H16220000   5.254   5.452   6.561  0.4727  0.7040  0.2232
  110MOL   H16320001   5.362   5.412   6.683  0.6971 -1.2715  0.0397
  110MOL   C16420002   4.890   5.425   6.918  0.1762 -0.4079  0.1506
  110MOL   C16520003   4.760   5.342   6.926  0.0057  0.0357  0.1102
  110MOL   C16620004   4.850   5.564   6.873  0.0609  0.2788  0.3329
  110MOL   O16720005   4.837   5.653   6.947 -0.0269 -0.9201 -0.8919
  110MOL   O16820006   4.804   5.565   6.745 -0.3413 -0.3031  0.6081
  110MOL   H16920007   4.931   5.431   7.019  0.6533  0.8458 -0.0986
  110MOL   H17020008   4.676   5.401   6.964 -0.3874 -0.0953 -0.5602
  110MOL   H17120009   4.740   5.300   6.828  1.3136 -0.3624  0.0064
  110MOL   H17220010   4.764   5.260   6.999 -1.8044 -0.1433  0.0324
  110MOL   C17320011   4.770   5.681   6.675 -0.1731  0.4900 -0.0152
  110MOL   C17420012   4.649   5.643   6.583 -0.2480 -0.1217  0.2666
  110MOL   C17520013   4.890   5.722   6.591 -0.4364 -0.1907  0.1223
  110MOL   O17620014   4.896   5.741   6.471 -0.1881  0.0628  0.3081
  110MOL   O17720015   5.001   5.743   6.669  0.7648 -0.4458  0.2416
  110MOL   H17820016   4.754   5.769   6.738 -1.2628  0.3878 -0.1463
  110MOL   H17920017   4.591   5.736   6.578  1.4505  0.8807 -1.3058
  110MOL   H18020018   4.673   5.608   6.483 -1.9971  0.9535 -0.5549
  110MOL   H18120019   4.585   5.569   6.630  0.7537  0.2412  2.2465
  110MOL   H18220020   5.086   5.740   6.627  1.5698  0.1749  1.7584
  111MOL     C120021   2.426   6.137   3.612 -0.7853  0.2635 -0.2032
  111MOL     C220022   2.501   5.994   3.623  0.8863  0.1820 -0.2372
  111MOL     C320023   2.285   6.135   3.545 -0.1698 -0.0194 -0.4292
  111MOL     O420024   2.235   6.028   3.519  0.0672  0.1257  0.2877
  111MOL     O520025   2.245   6.253   3.514  0.1403 -0.1400  0.4905
  111MOL     H620026   2.414   6.176   3.713  1.2063  0.0828  0.1258
  111MOL     H720027   2.553   5.969   3.530  0.5656  0.9747 -0.6332
  111MOL     H820028   2.575   6.010   3.702  1.5137  1.1604 -1.0086
  111MOL     H920029   2.436   5.908   3.639  1.2478 -0.4960 -2.1884
  111MOL    H1020030   2.498   6.202   3.562  1.4415 -2.4326 -0.6579
  111MOL    C1120031   2.125   6.277   3.448  0.3657  0.4750  0.6497
  111MOL    C1220032   2.159   6.354   3.321  0.4687  0.5569  0.0494
  111MOL    C1320033   2.036   6.358   3.539 -0.7488 -1.0892 -0.0804
  111MOL    O1420034   1.916   6.329   3.543  0.4541 -0.0689  0.3002
  111MOL    O1520035   2.102   6.449   3.608 -0.1086 -0.2470 -0.0104
  111MOL    H1620036   2.077   6.186   3.413  1.3802 -0.5822  1.9779
  111MOL    H1720037   2.242   6.300   3.277  0.4512 -0.0610  0.7699
  111MOL    H1820038   2.080   6.342   3.246  0.7710 -1.5580  0.0192
  111MOL    H1920039   2.174   6.461   3.335 -0.6138  0.8428 -0.8565
  111MOL    C2020040   2.044   6.567   3.677  0.4862 -0.1659 -0.0919
  111MOL    C2120041   2.029   6.518   3.819  0.3702  0.8910  0.1208
  111MOL    C2220042   1.917   6.636   3.622 -0.1351 -1.0495  0.1907
  111MOL    O2320043   1.822   6.661   3.688 -0.1322 -0.2081 -0.1505
  111MOL    O2420044   1.942   6.655   3.495 -0.8489  0.5473  0.3057
  111MOL    H2520045   2.129   6.633   3.688 -0.5366  0.9400  1.3984
  111MOL    H2620046   1.940   6.457   3.825  0.1672  1.4236  3.0226
  111MOL    H2720047   2.109   6.449   3.844 -0.4374 -0.4198 -0.8684
  111MOL    H2820048   2.024   6.606   3.884 -0.0419 -0.7610  2.3624
  111MOL    C2920049   1.834   6.689   3.408  0.1468  0.0214  0.2034
  111MOL    C3020050   1.730   6.583   3.360 -0.9564  0.6448  0.5659
  111MOL    C3120051   1.907   6.732   3.276 -0.0862 -0.5115  0.0327
  111MOL    O3220052   1.897   6.843   3.235 -0.2102 -0.7872 -0.4957
  111MOL    O3320053   1.985   6.639   3.214  0.6413  0.4114  0.0578
  111MOL    H3420054   1.782   6.775   3.450 -0.4483 -0.3403  0.2132
  111MOL    H3520055   1.703   6.566   3.256 -0.3268  0.2495  0.4641
  111MOL    H3620056   1.752   6.483   3.398  0.3711  1.3476  1.7015
  111MOL    H3720057   1.637   6.625   3.397 -1.7579 -0.3009 -0.3190
  111MOL    C3820058   2.021   6.653   3.074  1.3960  0.6975  0.1035
  111MOL    C3920059   2.147   6.731   3.067 -0.2713 -0.0691 -0.4387
  111MOL    C4020060   1.903   6.698   2.985  0.1914  0.0931  0.3947
  111MOL    O4120061   1.916   6.759   2.873 -0.0140 -0.5472 -0.2579
  111MOL    O4220062   1.784   6.658   3.032 -0.5345  0.1876 -0.0656
  111MOL    H4320063   2.049   6.553   3.042 -0.3979  0.3051 -0.3039
  111MOL    H4420064   2.165   6.818   3.129  0.2854 -1.0473  0.8047
  111MOL    H4520065   2.215   6.657   3.110  0.5453  0.3346 -1.0120
  111MOL    H4620066   2.187   6.747   2.967  0.9128 -0.3901 -0.0193
  111MOL    C4720067   1.662   6.696   2.960 -1.1657  0.7511 -0.7827
  111MOL    C4820068   1.605   6.824   3.029  0.1472  0.8918 -0.1247
  111MOL    C4920069   1.557   6.580   2.965 -0.3610  0.0939  0.1455
  111MOL    O5020070   1.528   6.520   2.866 -0.3845 -0.3987  0.1337
  111MOL    O5120071   1.515   6.558   3.095 -0.2909  0.0365  0.1697
  111MOL    H5220072   1.682   6.731   2.859 -2.5216 -0.0944 -1.3621
  111MOL    H5320073   1.678   6.899   2.999  0.5603  0.4787 -0.1465
  111MOL    H5420074   1.501   6.841   3.001 -0.2256  0.1381  0.7808
  111MOL    H5520075   1.614   6.806   3.136 -0.7337  1.2203  0.0127
  111MOL    C5620076   1.418   6.459   3.132 -0.4082  0.3184 -0.9086
  111MOL    C5720077   1.364   6.500   3.269  0.0800  0.1808  0.2787
  111MOL    C5820078   1.482   6.321   3.136  0.7742  0.7702  0.1853
  111MOL    O5920079   1.436   6.236   3.058  0.4299  0.7976  0.4796
  111MOL    O6020080   1.587   6.302   3.219 -0.1648  0.1661  0.4427
  111MOL    H6120081   1.329   6.444   3.071  0.6982 -0.1788 -2.4456
  111MOL    H6220082   1.314   6.596   3.258  0.0639  0.0659 -0.7161
  111MOL    H6320083   1.304   6.421   3.314  0.7390  0.0812  1.0056
  111MOL    H6420084   1.439   6.522   3.346  2.1491  0.8871 -1.8610
  111MOL    C6520085   1.646   6.170   3.222 -0.0545  0.2528  0.1109
  111MOL    C6620086   1.651   6.139   3.369  0.3098  0.0194  0.1663
  111MOL    C6720087   1.776   6.169   3.150 -0.5509  0.0390 -0.2510
  111MOL    O6820088   1.880   6.140   3.210  0.5773 -0.7983 -0.2654
  111MOL    O6920089   1.767   6.199   3.019  0.6078 -0.1893 -0.1031
  111MOL    H7020090   1.579   6.098   3.175 -1.0379  2.9048 -2.7188
  111MOL    H7120091   1.713   6.051   3.383  0.5853  0.4073  1.4884
  111MOL    H7220092   1.711   6.216   3.417 -0.0470 -1.4122  3.0130
  111MOL    H7320093   1.552   6.113   3.406 -0.5408  0.2470 -1.8996
  111MOL    C7420094   1.884   6.234   2.949 -0.1074 -0.2927  1.5882
  111MOL    C7520095   1.845   6.327   2.835  0.8907 -0.1791 -0.2464
  111MOL    C7620096   1.958   6.109   2.900 -0.2067  0.5281  0.1705
  111MOL    O7720097   2.074   6.085   2.933  0.3912 -0.4077 -0.3749
  111MOL    O7820098   1.880   6.031   2.813  0.1304  0.1253 -0.1001
  111MOL    H7920099   1.956   6.295   3.003  0.5232 -0.0221  0.4417
  111MOL    H8020100   1.786   6.407   2.880  0.5809  0.5760 -1.9458
  111MOL    H8120101   1.925   6.382   2.785  0.7161  0.5558  0.2814
  111MOL    H8220102   1.781   6.281   2.758 -0.7616  0.4994  0.6986
  111MOL    C8320103   1.916   5.903   2.771  0.8433 -0.1190 -0.0758
  111MOL    C8420104   1.826   5.863   2.645 -0.5080 -0.6348 -0.0095
  111MOL    C8520105   1.931   5.799   2.882  1.0919 -0.1584  0.0309
  111MOL    O8620106   2.035   5.779   2.947 -0.5847  0.1966 -0.1836
  111MOL    O8720107   1.813   5.738   2.892 -0.0619  0.0183  0.3977
  111MOL    H8820108   2.017   5.919   2.735  0.5026  0.3715 -0.8300
  111MOL    H8920109   1.840   5.757   2.627  0.8380 -0.7083  1.3188
  111MOL    H9020110   1.720   5.872   2.669 -0.7134 -0.1123 -1.0842
  111MOL    H9120111   1.846   5.921   2.555  2.5295 -2.4271 -0.5354
  111MOL    C9220112   1.773   5.657   3.003 -0.2291 -0.2917 -0.3617
  111MOL    C9320113   1.663   5.560   2.950 -0.0942  0.0607  0.4293
  111MOL    C9420114   1.733   5.734   3.129  0.1030 -0.6491 -0.0472
  111MOL    O9520115   1.733   5.860   3.126 -0.6529 -0.3189 -0.2490
  111MOL    O9620116   1.698   5.654   3.233 -0.1361 -0.4480  0.4183
  111MOL    H9720117   1.850   5.590   3.041  1.8465  2.3357  0.1673
  111MOL    H9820118   1.627   5.506   3.038 -0.5302 -2.2032 -1.1025
  111MOL    H9920119   1.580   5.610   2.901 -0.5303 -0.6290  0.4661
  111MOL   H10020120   1.701   5.480   2.887  1.7011  0.3137  1.1538
  111MOL   C10120121   1.637   5.716   3.347 -0.4976 -0.0475 -0.1960
  111MOL   C10220122   1.640   5.618   3.456 -0.8066  0.2183 -0.3822
  111MOL   C10320123   1.492   5.761   3.314  0.3464 -0.2601  0.5647
  111MOL   O10420124   1.455   5.750   3.196 -0.5482 -0.5629 -0.5266
  111MOL   O10520125   1.416   5.818   3.416  0.1845 -0.0621  0.1230
  111MOL   H10620126   1.693   5.804   3.381 -0.0276 -0.1973 -0.5641
  111MOL   H10720127   1.557   5.548   3.454 -0.6346 -0.1566  2.5281
  111MOL   H10820128   1.734   5.563   3.459 -0.5260  0.6156 -1.6284
  111MOL   H10920129   1.621   5.681   3.543 -0.7357  1.9395 -1.5872
  111MOL   C11020130   1.287   5.855   3.379  0.1389  0.4474  0.0921
  111MOL   C11120131   1.246   5.963   3.477 -0.3322  0.3114  0.4309
  111MOL   C11220132   1.184   5.740   3.368  0.4628  0.0300 -0.6918
  111MOL   O11320133   1.216   5.626   3.389  0.6666 -0.0309  0.1363
  111MOL   O11420134   1.072   5.784   3.327 -0.1246  0.5660  0.1551
  111MOL   H11520135   1.278   5.899   3.279 -0.6511 -0.7165 -0.3643
  111MOL   H11620136   1.142   5.962   3.507  0.7039  1.5497  4.4451
  111MOL   H11720137   1.310   5.951   3.565  0.9798 -0.3543 -0.5930
  111MOL   H11820138   1.263   6.064   3.441 -0.1007  0.7066  1.6117
  111MOL   C11920139   0.958   5.699   3.339  0.8422  0.2354  0.0080
  111MOL   C12020140   0.864   5.736   3.221 -0.9331  0.5757  0.0899
  111MOL   C12120141   0.889   5.735   3.474  0.0822 -0.0037 -0.7056
  111MOL   O12220142   0.932   5.813   3.562 -0.5835  0.2572  0.0813
  111MOL   O12320143   0.777   5.663   3.497 -0.0430  0.2534  0.3220
  111MOL   H12420144   0.975   5.592   3.342  2.3118  0.4856  1.1402
  111MOL   H12520145   0.777   5.672   3.210 -1.8239  1.8334 -0.2942
  111MOL   H12620146   0.828   5.839   3.229  1.1442  1.3690 -0.5197
  111MOL   H12720147   0.916   5.727   3.126 -0.0839 -2.8469  0.8308
  111MOL   C12820148   0.698   5.704   3.611  0.0887  0.0003  0.3974
  111MOL   C12920149   0.607   5.585   3.664 -0.0002  0.3121 -0.8606
  111MOL   C13020150   0.611   5.823   3.564  0.5951  0.2933  0.3162
  111MOL   O13120151   0.584   5.914   3.642  0.0541 -0.2680  0.1203
  111MOL   O13220152   0.570   5.821   3.430 -0.3601  0.1944  0.0687
  111MOL   H13320153   0.753   5.737   3.699  0.5936  1.0990 -0.3124
  111MOL   H13420154   0.668   5.502   3.698  1.4582  0.8293 -2.1409
  111MOL   H13520155   0.550   5.619   3.751  0.6250 -1.2239  0.1547
  111MOL   H13620156   0.543   5.543   3.586 -1.4290 -1.6941  1.3230
  111MOL   C13720157   0.486   5.923   3.369 -0.2392  0.0308  0.1651
  111MOL   C13820158   0.427   5.854   3.241  0.0105 -0.7030  0.3295
  111MOL   C13920159   0.562   6.056   3.333 -0.6373  0.4551 -0.1938
  111MOL   O14020160   0.504   6.159   3.307 -0.0974 -0.1036  0.9276
  111MOL   O14120161   0.694   6.045   3.354 -0.2933 -0.3907 -0.1285
  111MOL   H14220162   0.397   5.935   3.431  0.4724  1.4715  0.9244
  111MOL   H14320163   0.386   5.926   3.170  1.0375 -2.8503 -2.5376
  111MOL   H14420164   0.500   5.794   3.187  0.6371 -1.9750  2.5333
  111MOL   H14520165   0.351   5.786   3.282  1.0316 -0.9980  1.7634
  111MOL   C14620166   0.786   6.158   3.327 -0.5611 -0.4274 -0.0977
  111MOL   C14720167   0.925   6.110   3.361  0.4340  0.3343 -0.2942
  111MOL   C14820168   0.755   6.286   3.412 -0.3122  0.2645  0.0490
  111MOL   O14920169   0.780   6.400   3.368 -0.6330 -0.2069 -0.0242
  111MOL   O15020170   0.714   6.265   3.547  0.2531 -0.2930  0.2911
  111MOL   H15120171   0.778   6.181   3.221 -2.6284  0.8741  0.3147
  111MOL   H15220172   0.998   6.189   3.345 -0.2066  0.9985  0.0122
  111MOL   H15320173   0.927   6.088   3.468  1.2477  1.0426 -0.1553
  111MOL   H15420174   0.957   6.017   3.315  1.4501 -0.3632  1.7406
  111MOL   C15520175   0.648   6.370   3.628 -0.0493 -0.8714  0.0730
  111MOL   C15620176   0.632   6.318   3.765  0.2094 -0.0618 -0.5777
  111MOL   C15720177   0.510   6.406   3.575 -0.6145  0.5103 -0.1433
  111MOL   O15820178   0.408   6.381   3.637  0.4062  0.0810 -0.7002
  111MOL   O15920179   0.513   6.467   3.453  0.1263 -0.5136 -0.0632
  111MOL   H16020180   0.712   6.457   3.643  0.7801 -1.0283 -2.3598
  111MOL   H16120181   0.576   6.376   3.838  0.5458  1.3087 -1.3973
  111MOL   H16220182   0.593   6.216   3.771 -0.3258  0.1658 -0.1853
  111MOL   H16320183   0.732   6.311   3.807 -0.1165 -6.0088 -0.4015
  111MOL   C16420184   0.391   6.494   3.382  0.4471 -0.0337  0.1613
  111MOL   C16520185   0.423   6.542   3.235 -0.1960 -0.4240 -0.0337
  111MOL   C16620186   0.306   6.600   3.457 -0.1145 -0.6662 -0.3314
  111MOL   O16720187   0.184   6.595   3.466 -0.5141  0.1209 -0.5611
  111MOL   O16820188   0.391   6.702   3.507 -0.3156 -0.1568  0.0865
  111MOL   H16920189   0.344   6.396   3.385 -1.0945  0.6707 -0.8834
  111MOL   H17020190   0.436   6.451   3.177  0.5603 -1.4091  1.6318
  111MOL   H17120191   0.342   6.596   3.186 -0.7451 -1.7046 -0.5629
  111MOL   H17220192   0.512   6.604   3.229  1.0379 -2.3300 -2.0427
  111MOL   C17320193   0.337   6.802   3.594 -0.4705 -0.2538  0.0117
  111MOL   C17420194   0.446   6.910   3.607  0.4558  0.1174  0.2107
  111MOL   C17520195   0.293   6.736   3.727 -0.1580 -0.4097 -0.3376
  111MOL   O17620196   0.183   6.753   3.775 -0.4995  0.3139 -0.2098
  111MOL   O17720197   0.397   6.674   3.787  0.4359  0.0090 -0.0510
  111MOL   H17820198   0.246   6.844   3.551  0.6545  0.9177 -1.2621
  111MOL   H17920199   0.523   6.876   3.677 -0.7670  0.3977  1.6945
  111MOL   H18020200   0.495   6.922   3.510 -0.5001 -1.6575 -0.5160
  111MOL   H18120201   0.397   7.002   3.637 -0.5351  0.2213 -1.6993
  111MOL   H18220202   0.363   6.635   3.866 -0.6726 -0.1052 -0.5843
  112MOL     C120203   0.901   6.641   2.579 -0.5766  0.3104 -0.4463
  112MOL     C220204   0.939   6.724   2.456  0.1400 -1.0285  0.2035
  112MOL     C320205   1.015   6.622   2.681 -0.5482 -0.4426  0.0933
  112MOL     O420206   1.034   6.527   2.757 -0.4891  0.0632 -0.5493
  112MOL     O520207   1.092   6.734   2.682  0.1114 -0.2205  0.1827
  112MOL     H620208   0.810   6.677   2.629  0.2270  0.6310  0.8193
  112MOL     H720209   0.865   6.701   2.380 -0.6695 -0.8779  0.9380
  112MOL     H820210   0.938   6.828   2.491  0.8475 -1.4665  1.5530
  112MOL     H920211   1.038   6.698   2.419  0.1469 -1.0445  0.2337
  112MOL    H1020212   0.877   6.540   2.547 -0.2786  0.1289 -0.0979
  112MOL    C1120213   1.217   6.746   2.737 -0.2725 -0.5198  0.2787
  112MOL    C1220214   1.226   6.732   2.889 -0.0585  0.2506  0.8656
  112MOL    C1320215   1.277   6.876   2.679 -0.6983  0.1588  0.1441
  112MOL    O1420216   1.275   6.984   2.735  0.4660 -0.2277 -0.0472
  112MOL    O1520217   1.307   6.855   2.551 -0.2002 -0.2196  0.3631
  112MOL    H1620218   1.276   6.662   2.701  1.8045  0.3004  1.6290
  112MOL    H1720219   1.139   6.767   2.945 -0.9078 -2.7201  1.4676
  112MOL    H1820220   1.233   6.628   2.920 -0.8546  0.2691  1.1280
  112MOL    H1920221   1.307   6.787   2.937  0.0100  0.0883  0.9341
  112MOL    C2020222   1.312   6.951   2.449  0.3405 -0.2630  0.0945
  112MOL    C2120223   1.288   6.875   2.318 -0.2194  0.7768  0.4212
  112MOL    C2220224   1.441   7.035   2.458 -0.0162 -0.3433 -0.3084
  112MOL    O2320225   1.434   7.145   2.511 -0.9235  0.3739 -1.0992
  112MOL    O2420226   1.559   6.979   2.410 -0.0142 -0.3107 -0.6226
  112MOL    H2520227   1.226   7.017   2.462  0.5664  0.3577 -1.4718
  112MOL    H2620228   1.376   6.813   2.302 -1.3423 -0.9429  0.8422
  112MOL    H2720229   1.197   6.817   2.324  0.4531 -0.5035 -1.2794
  112MOL    H2820230   1.287   6.951   2.240 -0.1946  1.5863  1.1994
  112MOL    C2920231   1.687   7.040   2.415 -0.3520  0.2278 -0.6468
  112MOL    C3020232   1.747   7.070   2.273  0.2175  0.0628  0.3908
  112MOL    C3120233   1.787   6.933   2.473  0.0211  0.0609  0.3646
  112MOL    O3220234   1.853   6.949   2.578 -0.0605  0.1622  0.2509
  112MOL    O3320235   1.787   6.825   2.389 -0.1171  0.1954  0.1712
  112MOL    H3420236   1.684   7.129   2.479  0.3317  1.3450 -2.1150
  112MOL    H3520237   1.684   7.149   2.233 -0.2725  0.2984  1.5983
  112MOL    H3620238   1.850   7.101   2.295 -0.1872  1.0393  0.9549
  112MOL    H3720239   1.739   6.993   2.197  1.0555  0.6429 -0.2910
  112MOL    C3820240   1.876   6.718   2.409 -0.1758  0.0389  0.8916
  112MOL    C3920241   1.820   6.638   2.531 -0.5407 -0.5787 -0.6695
  112MOL    C4020242   2.025   6.761   2.422 -0.4788 -0.9201 -0.3833
  112MOL    O4120243   2.065   6.860   2.365 -0.0808 -0.7906 -0.0799
  112MOL    O4220244   2.103   6.674   2.492 -0.4869 -1.0652 -0.0737
  112MOL    H4320245   1.871   6.644   2.330 -2.5299 -0.0927  1.1041
  112MOL    H4420246   1.853   6.678   2.627  2.7061 -1.6338 -1.3000
  112MOL    H4520247   1.711   6.646   2.528 -0.6737 -1.7922  0.3420
  112MOL    H4620248   1.862   6.538   2.541  0.4532 -0.2889 -1.8903
  112MOL    C4720249   2.249   6.695   2.502 -0.0164 -0.5898  0.0415
  112MOL    C4820250   2.323   6.611   2.390 -0.6072 -0.1810  0.3856
  112MOL    C4920251   2.288   6.670   2.650 -0.2411 -0.9152  0.1423
  112MOL    O5020252   2.205   6.673   2.740  0.2001  0.1542  0.5301
  112MOL    O5120253   2.422   6.661   2.669  0.0074 -0.0062 -1.1161
  112MOL    H5220254   2.274   6.801   2.495  3.1418 -1.2867 -0.0830
  112MOL    H5320255   2.323   6.505   2.419 -2.5191  0.1520  1.6889
  112MOL    H5420256   2.261   6.628   2.302  0.9163 -0.2758 -0.7352
  112MOL    H5520257   2.428   6.634   2.372 -0.6385 -0.4673 -0.1997
  112MOL    C5620258   2.473   6.634   2.801 -0.2959  0.6170 -1.2526
  112MOL    C5720259   2.608   6.709   2.811  1.0750  0.2923  0.3785
  112MOL    C5820260   2.486   6.482   2.822 -0.3966 -0.3690  0.3012
  112MOL    O5920261   2.589   6.441   2.879  0.2370 -0.0557 -0.2218
  112MOL    O6020262   2.382   6.410   2.774  0.3006 -0.6073  0.4094
  112MOL    H6120263   2.409   6.672   2.881 -1.1315  0.5054 -1.8567
  112MOL    H6220264   2.646   6.688   2.911  0.6499  1.0330  0.7071
  112MOL    H6320265   2.671   6.677   2.729 -0.0467 -0.9197 -0.0298
  112MOL    H6420266   2.609   6.818   2.809  3.4828  0.3425  1.9146
  112MOL    C6520267   2.374   6.274   2.794 -0.1351 -0.0439 -0.2280
  112MOL    C6620268   2.254   6.228   2.712  0.6991 -0.1410 -0.6264
  112MOL    C6720269   2.357   6.232   2.939  0.1367 -0.0998 -0.2185
  112MOL    O6820270   2.298   6.305   3.021  0.2513  0.2318  0.5227
  112MOL    O6920271   2.404   6.104   2.954  0.1263 -0.0007  0.3449
  112MOL    H7020272   2.459   6.229   2.742  0.5750 -0.6247  1.4189
  112MOL    H7120273   2.169   6.286   2.746  1.3258  0.6793 -0.4248
  112MOL    H7220274   2.266   6.253   2.606  0.3438 -2.2674 -1.1848
  112MOL    H7320275   2.253   6.120   2.726  1.4023  0.2381  2.8095
  112MOL    C7420276   2.419   6.028   3.072 -0.4070  0.4686  0.2000
  112MOL    C7520277   2.291   5.969   3.120  0.1592 -0.3394  1.4407
  112MOL    C7620278   2.505   6.094   3.181 -0.6795 -0.1508 -0.1646
  112MOL    O7720279   2.476   6.093   3.301 -0.0394 -0.8920  0.5504
  112MOL    O7820280   2.609   6.163   3.132 -0.4917 -0.1194  0.9880
  112MOL    H7920281   2.483   5.950   3.032  0.9183  0.9964  1.2716
  112MOL    H8020282   2.319   5.896   3.196 -0.5162 -0.6962  1.3473
  112MOL    H8120283   2.226   6.052   3.151 -0.4918  0.6904 -2.3938
  112MOL    H8220284   2.229   5.919   3.046  0.9581 -2.3163  2.0782
  112MOL    C8320285   2.693   6.244   3.217  0.2153  0.2917  0.0380
  112MOL    C8420286   2.778   6.330   3.130 -0.1659 -0.5537  0.4650
  112MOL    C8520287   2.776   6.157   3.314 -0.4576 -0.8993  0.2186
  112MOL    O8620288   2.809   6.044   3.286  0.1641  0.1294 -0.0474
  112MOL    O8720289   2.792   6.215   3.433 -0.5450 -0.1951 -0.4431
  112MOL    H8820290   2.629   6.313   3.272  0.8209  1.7426 -1.0445
  112MOL    H8920291   2.845   6.393   3.188  1.5709 -2.1195  0.2225
  112MOL    H9020292   2.847   6.276   3.065 -0.3146  0.6241 -0.6681
  112MOL    H9120293   2.714   6.398   3.074  1.5947  1.8641  1.2904
  112MOL    C9220294   2.861   6.158   3.538 -0.0142  0.6582 -0.2427
  112MOL    C9320295   2.812   6.225   3.671 -0.3672  0.7606  0.1210
  112MOL    C9420296   3.011   6.181   3.531 -0.3311  0.2088 -0.2067
  112MOL    O9520297   3.062   6.256   3.445 -0.0216  0.2874  0.2384
  112MOL    O9620298   3.072   6.111   3.623 -0.4224  1.5650  0.0395
  112MOL    H9720299   2.847   6.051   3.555 -0.3286  0.8931  1.0399
  112MOL    H9820300   2.861   6.192   3.762 -0.3703 -1.7789 -0.7596
  112MOL    H9920301   2.814   6.333   3.657  2.2302  0.8057  0.6607
  112MOL   H10020302   2.706   6.204   3.683 -0.4069 -1.3019 -3.1816
  112MOL   C10120303   3.216   6.113   3.638 -0.0121  0.6429 -0.0026
  112MOL   C10220304   3.267   6.025   3.752  0.3681  0.2352 -0.4914
  112MOL   C10320305   3.283   6.248   3.632 -0.3289 -0.1090 -0.5739
  112MOL   O10420306   3.363   6.282   3.546  0.1722  0.1225 -0.2760
  112MOL   O10520307   3.241   6.323   3.734  0.5576  0.4338  0.7077
  112MOL   H10620308   3.257   6.058   3.552  1.5239  1.0791  0.4335
  112MOL   H10720309   3.272   6.085   3.842  0.4217  0.8360 -0.8950
  112MOL   H10820310   3.197   5.945   3.777 -1.8733  2.6266  1.1533
  112MOL   H10920311   3.366   5.986   3.730 -0.5519 -1.7402 -1.2783
  112MOL   C11020312   3.292   6.448   3.768 -0.6512  0.6032  0.1262
  112MOL   C11120313   3.424   6.435   3.846  0.3592 -0.6147  0.3342
  112MOL   C11220314   3.181   6.525   3.845 -0.2653 -0.1277 -1.0378
  112MOL   O11320315   3.217   6.623   3.908  0.2585 -0.1147 -0.9215
  112MOL   O11420316   3.056   6.464   3.837 -0.3322  0.0353  0.2318
  112MOL   H11520317   3.322   6.500   3.676  0.2420  0.1963  0.1832
  112MOL   H11620318   3.463   6.533   3.877 -1.9180  0.4774 -0.1826
  112MOL   H11720319   3.393   6.383   3.937 -3.0826  1.4698  0.4299
  112MOL   H11820320   3.498   6.376   3.792 -0.1609  0.0802 -1.1576
  112MOL   C11920321   2.936   6.508   3.909  0.6935  0.7279 -0.0411
  112MOL   C12020322   2.855   6.603   3.823 -0.3292  0.1635  0.0579
  112MOL   C12120323   2.968   6.553   4.055  0.4571 -0.7348 -0.0528
  112MOL   O12220324   2.947   6.666   4.090 -0.1776  0.9455  0.9417
  112MOL   O12320325   3.026   6.460   4.133  0.6301  0.3947 -0.1497
  112MOL   H12420326   2.897   6.407   3.919  2.1380 -0.0958 -2.3028
  112MOL   H12520327   2.908   6.698   3.820  0.4090 -0.1982  1.2942
  112MOL   H12620328   2.839   6.564   3.723 -0.1843 -0.0310  0.1094
  112MOL   H12720329   2.769   6.649   3.872 -0.7097  1.2542 -1.6029
  112MOL   C12820330   3.038   6.477   4.273 -0.0885 -0.1418 -0.4225
  112MOL   C12920331   3.115   6.369   4.338 -0.8543  0.3620  0.2911
  112MOL   C13020332   2.893   6.486   4.334 -0.0011  0.0866 -0.7111
  112MOL   O13120333   2.798   6.424   4.290  0.3932  0.2626  0.4898
  112MOL   O13220334   2.893   6.574   4.436  0.4706  0.0720 -0.0477
  112MOL   H13320335   3.093   6.568   4.296  1.0223 -1.2090  1.2168
  112MOL   H13420336   3.221   6.371   4.313 -1.1762  3.6264 -1.0633
  112MOL   H13520337   3.100   6.375   4.445 -1.2124  2.1282  0.1602
  112MOL   H13620338   3.071   6.274   4.308  0.0560  0.1905 -0.5425
  112MOL   C13720339   2.769   6.619   4.490  0.5728 -0.1317 -0.3497
  112MOL   C13820340   2.806   6.749   4.563 -0.1304  0.4580 -0.4654
  112MOL   C13920341   2.713   6.520   4.594  0.0083  0.0977 -0.4430
  112MOL   O14020342   2.770   6.411   4.629 -0.3906  0.2108 -0.0238
  112MOL   O14120343   2.595   6.561   4.642 -0.4620  0.4544 -0.5546
  112MOL   H14220344   2.697   6.636   4.410  0.1953 -0.8960 -0.1818
  112MOL   H14320345   2.861   6.817   4.498  0.1848  1.4115  0.7533
  112MOL   H14420346   2.720   6.808   4.595  1.3288  2.1775  0.4706
  112MOL   H14520347   2.865   6.730   4.653  0.5646 -1.7805 -1.3661
  112MOL   C14620348   2.519   6.464   4.717  0.0190  0.0765  0.0210
  112MOL   C14720349   2.429   6.372   4.634 -0.3178  0.1641  1.0685
  112MOL   C14820350   2.430   6.542   4.815 -0.2412 -0.4665 -0.3455
  112MOL   O14920351   2.319   6.576   4.784  0.0768  0.4485  0.1452
  112MOL   O15020352   2.503   6.588   4.918  0.0446  0.3136  0.3556
  112MOL   H15120353   2.587   6.407   4.780  1.5080  1.4140 -0.3550
  112MOL   H15220354   2.393   6.427   4.547  0.5098  0.8515  1.1471
  112MOL   H15320355   2.490   6.286   4.607 -1.6631  0.4325 -3.1184
  112MOL   H15420356   2.346   6.341   4.697 -0.0418 -0.5574  1.0816
  112MOL   C15520357   2.449   6.681   5.005  0.3416 -0.1052 -1.0876
  112MOL   C15620358   2.542   6.798   5.030  0.0614  1.2327  0.5088
  112MOL   C15720359   2.388   6.604   5.130 -0.1897  0.0710  0.6831
  112MOL   O15820360   2.267   6.573   5.141 -0.5995  0.4956 -0.1243
  112MOL   O15920361   2.482   6.580   5.218  0.7067 -0.1402  0.6627
  112MOL   H16020362   2.365   6.727   4.954 -0.0160 -1.4295 -1.7267
  112MOL   H16120363   2.493   6.850   5.113 -1.5162  0.4313  0.0995
  112MOL   H16220364   2.641   6.773   5.068 -0.0121  1.0980  0.6109
  112MOL   H16320365   2.541   6.867   4.946 -1.5747 -1.4400 -1.7043
  112MOL   C16420366   2.464   6.504   5.337  0.1741  0.3834  0.2588
  112MOL   C16520367   2.597   6.509   5.409 -0.5658  0.4480  0.4062
  112MOL   C16620368   2.407   6.362   5.330  0.0166 -0.1296  0.0491
  112MOL   O16720369   2.416   6.300   5.226 -0.0317  0.0277  0.1106
  112MOL   O16820370   2.344   6.317   5.441  0.2208 -0.4266  0.1564
  112MOL   H16920371   2.388   6.557   5.394  0.6528 -0.3590  1.6109
  112MOL   H17020372   2.640   6.608   5.391  1.9474 -0.8278 -0.7777
  112MOL   H17120373   2.575   6.511   5.516  0.5140 -0.3106  0.6532
  112MOL   H17220374   2.651   6.419   5.378 -0.2303  0.5939  0.5661
  112MOL   C17320375   2.277   6.197   5.453 -0.3032 -0.5186 -0.1477
  112MOL   C17420376   2.168   6.214   5.554  0.2127 -0.1654  0.1139
  112MOL   C17520377   2.377   6.094   5.503  0.6488 -0.1324  0.6012
  112MOL   O17620378   2.490   6.119   5.537  0.0765  0.2626  0.1339
  112MOL   O17720379   2.323   5.973   5.497  0.1785 -0.3268 -0.4720
  112MOL   H17820380   2.239   6.171   5.354 -1.4825 -1.0397  0.4391
  112MOL   H17920381   2.147   6.122   5.610  0.1068  0.0465  0.4240
  112MOL   H18020382   2.183   6.296   5.625  0.3859  0.9589 -1.2113
  112MOL   H18120383   2.073   6.245   5.511  1.3346 -0.0808 -2.3323
  112MOL   H18220384   2.392   5.909   5.509 -0.2124 -0.2769  2.4889
  113MOL     C120385   5.577   0.805   8.074  0.8491 -0.4117  0.0973
  113MOL     C220386   5.623   0.858   7.927  0.4347  0.2155 -0.5396
  113MOL     C320387   5.550   0.656   8.075  0.4542  0.1959 -0.2736
  113MOL     O420388   5.633   0.572   8.098  0.8243 -0.2357  0.5034
  113MOL     O520389   5.422   0.621   8.046  0.0405 -0.1126 -0.5643
  113MOL     H620390   5.654   0.826   0.002 -1.6612  1.3620  2.2548
  113MOL     H720391   5.664   0.784   7.858  2.2183  1.5302 -0.9154
  113MOL     H820392   5.543   0.916   7.881 -0.6244 -0.5961  0.2507
  113MOL     H920393   5.701   0.932   7.948 -0.3618  0.3454  2.1862
  113MOL    H1020394   5.480   0.852   8.093  0.6624 -1.0119  0.6542
  113MOL    C1120395   5.373   0.489   8.066  0.0021 -0.3475 -0.1829
  113MOL    C1220396   5.227   0.469   8.033 -0.7155  0.1683 -0.2561
  113MOL    C1320397   5.404   0.427   0.062 -0.1440  0.2226 -0.1563
  113MOL    O1420398   5.455   0.315   0.077  0.0802  0.2712 -0.2645
  113MOL    O1520399   5.382   0.508   0.164 -0.1189  0.2008  0.0557
  113MOL    H1620400   5.426   0.423   7.997 -1.5725 -0.3518 -1.4165
  113MOL    H1720401   5.163   0.430   8.112 -1.9378  2.9257  0.1642
  113MOL    H1820402   5.186   0.569   8.019  1.2650  0.9526 -0.7066
  113MOL    H1920403   5.217   0.409   7.943 -0.3758 -1.2424  0.6145
  113MOL    C2020404   5.416   0.475   0.295 -0.3940  0.3118  0.9390
  113MOL    C2120405   5.341   0.573   0.380 -0.6824 -0.5501  0.1562
  113MOL    C2220406   5.570   0.493   0.316 -0.1802 -0.5430  0.1570
  113MOL    O2320407   5.639   0.402   0.352  0.6212 -0.5898 -0.0689
  113MOL    O2420408   5.617   0.619   0.275  0.4916 -0.5750  0.2351
  113MOL    H2520409   5.396   0.371   0.323  4.0574 -1.4063 -1.6862
  113MOL    H2620410   5.367   0.679   0.374  3.7073 -1.4219  1.8171
  113MOL    H2720411   5.238   0.550   0.352  0.2455 -1.2032 -2.8544
  113MOL    H2820412   5.349   0.550   0.486 -2.0269  2.3428  0.9323
  113MOL    C2920413   5.753   0.670   0.295 -0.3255 -0.1807 -0.2240
  113MOL    C3020414   5.748   0.819   0.325 -0.0781 -0.0932  0.7430
  113MOL    C3120415   5.839   0.630   0.175 -0.4909 -0.6231 -0.9304
  113MOL    O3220416   5.859   0.714   0.089  0.2784 -0.0780  0.0360
  113MOL    O3320417   5.874   0.495   0.169  0.1808 -0.1280  0.0016
  113MOL    H3420418   5.789   0.618   0.383  0.4389  0.7561  0.0281
  113MOL    H3520419   5.679   0.852   0.402  2.7231 -0.0888  3.3341
  113MOL    H3620420   5.840   0.856   0.370  1.0074 -2.0139  0.1554
  113MOL    H3720421   5.736   0.886   0.239  0.4420 -0.7049  0.1838
  113MOL    C3820422   5.945   0.435   0.059 -0.2653  0.3939 -0.9100
  113MOL    C3920423   5.974   0.280   0.088 -0.0093 -0.1408 -0.1060
  113MOL    C4020424   6.072   0.514   0.015  0.0842  0.0426  0.0197
  113MOL    O4120425   6.168   0.539   0.091 -0.4710 -0.4078  0.1035
  113MOL    O4220426   6.070   0.544   8.035 -0.4847 -0.0661  0.1184
  113MOL    H4320427   5.883   0.423   8.118 -0.4685  1.1813 -0.8799
  113MOL    H4420428   5.876   0.233   0.102  0.3565 -0.8470  0.0765
  113MOL    H4520429   6.014   0.239   8.143  2.0377 -1.2339  1.2240
  113MOL    H4620430   6.042   0.265   0.171 -2.4858  2.3863  2.5190
  113MOL    C4720431   6.171   0.610   7.970 -0.0627 -0.1490 -0.2265
  113MOL    C4820432   6.108   0.697   7.862 -0.5926 -0.0744  0.3128
  113MOL    C4920433   6.283   0.518   7.909  0.0410 -0.1437 -0.0806
  113MOL    O5020434   6.275   0.479   7.790  0.6686 -0.1473 -0.3903
  113MOL    O5120435   6.374   0.484   8.004 -0.0313  0.1845  0.1564
  113MOL    H5220436   6.221   0.677   8.041 -0.9447 -0.1718  0.4354
  113MOL    H5320437   6.088   0.647   7.768 -2.6645  2.5908 -0.7400
  113MOL    H5420438   6.018   0.751   7.894  1.4419  4.5724 -1.4706
  113MOL    H5520439   6.172   0.785   7.859 -0.0766 -0.4453  0.3599
  113MOL    C5620440   6.474   0.385   7.978 -0.3893 -0.6047 -0.5235
  113MOL    C5720441   6.521   0.332   8.117  0.4236 -0.0095  0.1722
  113MOL    C5820442   6.589   0.451   7.893 -1.3207  0.1606 -0.5170
  113MOL    O5920443   6.599   0.573   7.883 -0.3416 -0.0884 -0.1954
  113MOL    O6020444   6.678   0.356   7.852  0.1187  0.2822 -0.9814
  113MOL    H6120445   6.430   0.300   7.926 -0.2180 -1.4925  0.7464
  113MOL    H6220446   6.450   0.352   0.049 -0.6880 -0.2763 -0.7465
  113MOL    H6320447   6.554   0.228   8.104  0.2580 -0.0914  0.4094
  113MOL    H6420448   6.610   0.376   0.014  0.0653 -1.6099  2.5966
  113MOL    C6520449   6.785   0.396   7.771 -0.0026  0.6222 -0.0928
  113MOL    C6620450   6.837   0.282   7.682  0.1102 -0.3161  0.1866
  113MOL    C6720451   6.907   0.461   7.843  0.6478 -0.3309  0.1272
  113MOL    O6820452   6.909   0.457   7.968 -0.3311 -0.4762  0.3227
  113MOL    O6920453   7.003   0.496   7.765  0.1211  0.4365 -0.0707
  113MOL    H7020454   6.756   0.481   7.709  2.1789  1.2398 -0.3170
  113MOL    H7120455   6.879   0.325   7.591 -2.6171  0.6323 -0.6622
  113MOL    H7220456   6.915   0.233   7.739  0.4885 -1.5869 -1.3752
  113MOL    H7320457   6.759   0.212   7.654 -0.0045  0.8879 -2.6657
  113MOL    C7420458   7.131   0.512   7.810 -0.6942  0.8151  0.4338
  113MOL    C7520459   7.203   0.599   7.704  0.5963 -1.1280 -0.2907
  113MOL    C7620460   7.203   0.376   7.833 -0.0959  0.5483 -0.5957
  113MOL    O7720461   7.298   0.364   7.905  0.6959  0.0586  0.4599
  113MOL    O7820462   7.161   0.281   7.748  0.1278  0.0276 -0.4635
  113MOL    H7920463   7.143   0.556   7.909  0.1138  1.4521  0.0619
  113MOL    H8020464   7.285   0.654   7.749 -3.3970  3.9839  1.2382
  113MOL    H8120465   7.242   0.549   7.615  1.1604  1.1730 -1.3541
  113MOL    H8220466   7.135   0.679   7.674  1.3829 -1.2404 -2.4062
  113MOL    C8320467   7.227   0.155   7.738 -0.0597  0.4926  0.2710
  113MOL    C8420468   7.162   0.083   7.620 -0.2786  0.0101  0.1306
  113MOL    C8520469   7.210   0.069   7.869 -0.4166 -0.2222 -0.6755
  113MOL    O8620470   7.308   8.143   7.911 -0.2624 -0.6654 -0.0543
  113MOL    O8720471   7.085   0.085   7.930 -0.6755  0.5478  0.3742
  113MOL    H8820472   7.333   0.176   7.722 -0.3957  1.4785 -0.7005
  113MOL    H8920473   7.063   0.121   7.597  0.5400  1.6026 -0.7901
  113MOL    H9020474   7.219   0.100   7.529 -1.6458 -4.0800 -1.5995
  113MOL    H9120475   7.167   8.122   7.629 -0.4750  0.0264  0.4793
  113MOL    C9220476   7.038   0.031   8.059 -0.2044 -0.0815 -0.4084
  113MOL    C9320477   6.905   0.086   8.108  0.1706 -0.4905  0.6168
  113MOL    C9420478   7.143   0.048   0.016 -0.1026  0.1266 -0.2924
  113MOL    O9520479   7.182   0.156   0.052 -0.0929 -0.1149  0.4407
  113MOL    O9620480   7.207   8.074   0.044  0.0203 -0.1955  0.5811
  113MOL    H9720481   7.038   8.070   8.047  1.2300  0.1275 -2.8050
  113MOL    H9820482   6.875   0.064   0.063  1.2392 -0.8300  0.8515
  113MOL    H9920483   6.898   0.195   8.098  0.9653 -0.2195  2.8728
  113MOL   H10020484   6.823   0.051   8.045  0.6237 -1.5566  0.6142
  113MOL   C10120485   7.333   8.080   0.110  0.1151 -0.6739 -0.1561
  113MOL   C10220486   7.409   7.958   0.065  0.2475 -0.0439  0.4052
  113MOL   C10320487   7.315   8.091   0.261 -0.2431  0.6189  0.4685
  113MOL   O10420488   7.212   8.144   0.308 -0.5820 -0.2568 -0.1474
  113MOL   O10520489   7.424   8.040   0.327 -0.2013  0.6474  0.3601
  113MOL   H10620490   7.391   0.016   0.071 -1.5891  1.9399  2.6083
  113MOL   H10720491   7.516   7.977   0.077 -0.0924  0.9762  1.9865
  113MOL   H10820492   7.371   7.867   0.111  0.7613  0.0239  0.9804
  113MOL   H10920493   7.383   7.948   8.107 -0.0499  2.7674  0.1568
  113MOL   C11020494   7.443   8.036   0.470 -0.4912  0.6004  0.4403
  113MOL   C11120495   7.369   7.913   0.522 -0.1580 -0.3580 -0.5132
  113MOL   C11220496   7.402   0.015   0.540 -0.4437 -0.0854 -0.1654
  113MOL   O11320497   7.341   0.019   0.648 -0.5892 -0.0278 -0.5201
  113MOL   O11420498   7.451   0.131   0.477 -0.4204 -0.4340  0.1089
  113MOL   H11520499   7.547   8.012   0.490 -0.6852 -0.4419  0.2272
  113MOL   H11620500   7.262   7.927   0.535 -0.5047 -3.0795 -0.1171
  113MOL   H11720501   7.387   7.823   0.464 -2.2117 -1.8728  1.0959
  113MOL   H11820502   7.415   7.894   0.619  1.7344 -1.5113 -1.6101
  113MOL   C11920503   7.417   0.267   0.521 -0.0475  0.0220 -0.1057
  113MOL   C12020504   7.517   0.308   0.628  0.0339 -0.1414  0.1274
  113MOL   C12120505   7.267   0.299   0.559 -0.0045  0.9237  0.3219
  113MOL   O12220506   7.233   0.384   0.640 -0.1893 -0.4355 -0.2285
  113MOL   O12320507   7.182   0.228   0.484 -0.1507 -0.0490 -0.5288
  113MOL   H12420508   7.430   0.337   0.438  1.9103 -1.5295 -1.1805
  113MOL   H12520509   7.519   0.251   0.720  4.8702  1.1958  1.0243
  113MOL   H12620510   7.620   0.309   0.590 -0.0857 -3.3338 -0.3840
  113MOL   H12720511   7.497   0.410   0.662 -0.5221 -0.6277  1.2434
  113MOL   C12820512   7.039   0.249   0.491  0.1300 -0.1652  0.3857
  113MOL   C12920513   6.977   0.122   0.553 -0.0790 -0.0084  0.3275
  113MOL   C13020514   6.972   0.269   0.350 -0.7729 -1.0675 -0.1716
  113MOL   O13120515   6.909   0.184   0.293 -0.0509  0.0764  0.6118
  113MOL   O13220516   6.995   0.390   0.305  0.0043 -0.1831  0.2586
  113MOL   H13320517   7.022   0.343   0.544 -0.5754  0.6420 -1.2326
  113MOL   H13420518   7.019   0.101   0.651  2.7557  1.5923 -0.4925
  113MOL   H13520519   6.869   0.136   0.560 -0.4143 -3.1523  2.3460
  113MOL   H13620520   7.007   0.031   0.502 -1.5044 -2.5857  3.8782
  113MOL   C13720521   6.929   0.445   0.187 -0.4109  0.6606 -0.4557
  113MOL   C13820522   7.031   0.543   0.130  0.0936  0.2358  0.3541
  113MOL   C13920523   6.797   0.504   0.227 -0.3056  0.0579 -0.3041
  113MOL   O14020524   6.741   0.464   0.325 -0.3164 -0.5089  0.0577
  113MOL   O14120525   6.756   0.617   0.158 -0.1033 -0.0228  0.6725
  113MOL   H14220526   6.915   0.366   0.113  2.7188 -0.0576 -0.3465
  113MOL   H14320527   6.996   0.559   0.028 -1.6277  3.2756  1.3686
  113MOL   H14420528   7.021   0.640   0.178  0.3611  0.4975 -0.1078
  113MOL   H14520529   7.137   0.519   0.126  0.6901  2.7530 -0.3141
  113MOL   C14620530   6.651   0.697   0.204  0.7352  0.4377  0.4545
  113MOL   C14720531   6.531   0.623   0.151 -0.2602 -0.3347 -0.2536
  113MOL   C14820532   6.657   0.846   0.156  0.4639  0.5048 -0.7050
  113MOL   O14920533   6.750   0.890   0.089 -0.0687 -0.2509  0.5121
  113MOL   O15020534   6.546   0.911   0.181 -0.6433 -1.2926  0.0789
  113MOL   H15120535   6.648   0.701   0.313  0.8918  1.1101  0.4358
  113MOL   H15220536   6.511   0.524   0.190 -1.2519  0.5726  1.5990
  113MOL   H15320537   6.437   0.678   0.158  0.5103  1.2840 -1.9288
  113MOL   H15420538   6.549   0.612   0.044 -1.2549 -0.5073 -0.4154
  113MOL   C15520539   6.522   1.048   0.135 -0.7408  0.1114 -0.0888
  113MOL   C15620540   6.408   1.113   0.218  0.9715 -0.1378 -0.5157
  113MOL   C15720541   6.474   1.028   8.141  0.4182  0.4473 -0.9490
  113MOL   O15820542   6.467   0.916   8.088  0.0705 -0.6832 -0.2283
  113MOL   O15920543   6.439   1.146   8.082 -0.2062  1.0609  0.5555
  113MOL   H16020544   6.609   1.112   0.133 -0.9066  0.3263 -0.6396
  113MOL   H16120545   6.383   1.213   0.182  0.7813  0.2684  0.7427
  113MOL   H16220546   6.321   1.048   0.228  0.5797  0.6207  1.2099
  113MOL   H16320547   6.439   1.124   0.322 -1.2998  0.1683  0.1577
  113MOL   C16420548   6.386   1.149   7.944 -0.6051 -0.1366 -0.7643
  113MOL   C16520549   6.409   1.289   7.892  0.0541  0.0651 -0.6292
  113MOL   C16620550   6.243   1.100   7.945 -0.3714  0.0099 -0.2096
  113MOL   O16720551   6.202   1.009   7.875  0.2131 -0.2411 -0.3631
  113MOL   O16820552   6.164   1.168   8.038 -0.3121 -0.6125  0.1219
  113MOL   H16920553   6.454   1.079   7.894  0.6559  0.4968  0.0453
  113MOL   H17020554   6.397   1.302   7.784 -1.4037  0.1377 -0.4675
  113MOL   H17120555   6.337   1.355   7.942 -0.7736 -0.3158 -1.3096
  113MOL   H17220556   6.511   1.310   7.924  0.5007 -0.8228 -1.4595
  113MOL   C17320557   6.031   1.129   8.062 -0.0897  0.7893  0.5091
  113MOL   C17420558   5.966   1.241   8.141 -0.1708 -0.0727  0.0119
  113MOL   C17520559   6.026   0.990   8.134  0.3620 -0.8075  0.4920
  113MOL   O17620560   6.130   0.934   0.023 -0.5878  0.5963  1.4581
  113MOL   O17720561   5.897   0.943   8.130 -0.0556 -0.2916 -0.6207
  113MOL   H17820562   5.978   1.111   7.969 -1.1526 -2.3241  1.6451
  113MOL   H17920563   5.965   1.338   8.092 -1.4468  0.3460  0.8634
  113MOL   H18020564   5.862   1.218   0.016 -0.0675  1.8126  2.6927
  113MOL   H18120565   6.023   1.242   0.087  0.1076 -1.9713 -0.1040
  113MOL   H18220566   5.893   0.856   0.020 -0.1728  0.6525  1.6298
  114MOL     C120567   2.194   0.234   5.358 -0.2823  0.3417  0.3368
  114MOL     C220568   2.201   0.091   5.321  0.6447  0.0264  0.5505
  114MOL     C320569   2.099   0.326   5.281 -0.0778 -0.3590  0.1962
  114MOL     O420570   1.977   0.315   5.287  0.3341 -0.6404 -0.0955
  114MOL     O520571   2.168   0.411   5.202 -0.4192 -0.4406 -0.2142
  114MOL     H620572   2.161   0.253   5.461  0.0471  1.7212  0.2037
  114MOL     H720573   2.243   0.083   5.220 -3.3195  1.6766 -1.3583
  114MOL     H820574   2.258   0.027   5.388 -0.8290 -1.6749  0.2191
  114MOL     H920575   2.103   0.043   5.318  0.3965  0.5040  1.0000
  114MOL    H1020576   2.294   0.274   5.343  0.2941 -0.3306  2.2225
  114MOL    C1120577   2.103   0.482   5.099  0.6643 -0.0984 -0.1429
  114MOL    C1220578   2.194   0.492   4.977  0.1975 -0.4538  0.0472
  114MOL    C1320579   2.062   0.617   5.151  1.0423  0.0537  0.2193
  114MOL    O1420580   2.115   0.667   5.256  0.5495  0.3566  0.1879
  114MOL    O1520581   1.962   0.674   5.076 -0.6687 -0.0323 -0.0025
  114MOL    H1620582   2.016   0.426   5.062  0.3014 -0.0510  0.6247
  114MOL    H1720583   2.218   0.395   4.933 -1.4759 -0.7248 -0.2845
  114MOL    H1820584   2.152   0.558   4.902 -0.1595 -1.0189 -0.2467
  114MOL    H1920585   2.288   0.544   5.000 -0.3407  0.7498 -0.4649
  114MOL    C2020586   1.914   0.804   5.112 -0.6278  0.2984 -0.2702
  114MOL    C2120587   1.784   0.826   5.031  0.4920  0.6117  0.9441
  114MOL    C2220588   2.011   0.912   5.071 -0.5192 -0.1872  0.0098
  114MOL    O2320589   2.054   0.919   4.960  0.0880 -0.1174  0.0944
  114MOL    O2420590   2.022   1.017   5.161 -0.1612  0.5774  0.5686
  114MOL    H2520591   1.890   0.802   5.219  2.5093 -4.9254  0.5467
  114MOL    H2620592   1.722   0.737   5.042  3.7527 -2.0442 -1.2199
  114MOL    H2720593   1.740   0.917   5.072 -0.1368 -1.0359  4.1585
  114MOL    H2820594   1.793   0.838   4.923 -1.4689  1.1922  0.8215
  114MOL    C2920595   2.101   1.135   5.140  0.3465  0.0798  0.0405
  114MOL    C3020596   2.135   1.202   5.278 -0.5153  0.6982  0.0654
  114MOL    C3120597   2.015   1.237   5.053  0.3025 -0.1520 -0.1835
  114MOL    O3220598   1.888   1.227   5.055 -0.8041 -0.1499  0.7921
  114MOL    O3320599   2.096   1.334   4.989  0.1901 -0.1744 -0.2949
  114MOL    H3420600   2.198   1.124   5.090 -0.1123 -1.4888 -0.5229
  114MOL    H3520601   2.159   1.134   5.360 -3.6237 -2.3668 -1.4594
  114MOL    H3620602   2.220   1.269   5.264 -0.6498  1.0713  0.9663
  114MOL    H3720603   2.051   1.266   5.305 -1.5035 -0.2442 -0.7257
  114MOL    C3820604   2.039   1.449   4.921 -0.3543 -0.2336  0.1359
  114MOL    C3920605   2.111   1.492   4.792  0.0253  0.8119  0.5061
  114MOL    C4020606   2.035   1.560   5.022 -0.1057 -0.0301  0.0107
  114MOL    O4120607   1.933   1.627   5.041 -0.1734  0.9709 -0.2509
  114MOL    O4220608   2.151   1.588   5.082 -1.0238  0.7816 -0.7482
  114MOL    H4320609   1.939   1.422   4.885 -0.5153 -0.9636  1.1283
  114MOL    H4420610   2.098   1.419   4.712  2.4570  1.0448 -0.1459
  114MOL    H4520611   2.073   1.577   4.735 -1.1843 -1.1389 -1.6728
  114MOL    H4620612   2.218   1.502   4.810  0.3959  0.1746 -1.1918
  114MOL    C4720613   2.161   1.702   5.168  0.5402  0.1494  0.1663
  114MOL    C4820614   2.301   1.733   5.195  0.0785 -0.1867 -0.0460
  114MOL    C4920615   2.081   1.683   5.297  0.0574 -0.2531 -0.1950
  114MOL    O5020616   2.098   1.587   5.377  0.4336 -0.1861  0.7922
  114MOL    O5120617   1.993   1.783   5.306 -0.6629 -0.1137  0.3067
  114MOL    H5220618   2.125   1.788   5.112  1.3189 -0.8161 -1.8587
  114MOL    H5320619   2.361   1.752   5.107 -1.5795 -0.9832 -1.3920
  114MOL    H5420620   2.320   1.817   5.262 -0.6203 -0.4291  0.4733
  114MOL    H5520621   2.339   1.651   5.257 -0.2769  0.0501  0.4963
  114MOL    C5620622   1.881   1.777   5.381  0.3511  0.8013  0.1199
  114MOL    C5720623   1.771   1.808   5.284  0.2498  0.0225  0.1159
  114MOL    C5820624   1.888   1.892   5.480 -0.2429 -0.4073  0.2527
  114MOL    O5920625   1.959   1.989   5.465 -0.6697  0.1014  0.0661
  114MOL    O6020626   1.801   1.879   5.576  0.1140  0.3049 -0.3651
  114MOL    H6120627   1.863   1.683   5.433  1.9151  1.0080  1.0532
  114MOL    H6220628   1.768   1.902   5.228  0.5879 -0.9324 -1.5410
  114MOL    H6320629   1.764   1.730   5.208 -1.1149  1.4319 -1.2365
  114MOL    H6420630   1.678   1.805   5.342 -0.9807  1.7618 -1.6669
  114MOL    C6520631   1.775   1.982   5.658 -0.0546  0.4936  0.1164
  114MOL    C6620632   1.789   1.936   5.800  0.3703 -0.3047  0.2747
  114MOL    C6720633   1.634   2.040   5.631  1.1470  0.7621 -0.3043
  114MOL    O6820634   1.601   2.146   5.676 -0.9024  0.1088 -0.0214
  114MOL    O6920635   1.559   1.965   5.563 -0.3161  0.4363 -0.1127
  114MOL    H7020636   1.845   2.066   5.658 -0.8216  1.1408  0.9049
  114MOL    H7120637   1.857   1.852   5.808 -0.5381 -0.8504  2.4905
  114MOL    H7220638   1.823   2.019   5.861  2.1198 -0.3435 -0.6087
  114MOL    H7320639   1.701   1.892   5.845  0.6765 -0.2403  0.9414
  114MOL    C7420640   1.432   2.008   5.511  0.0935 -0.2661  0.0216
  114MOL    C7520641   1.355   1.887   5.446 -0.1304 -0.2063  0.5500
  114MOL    C7620642   1.451   2.130   5.420 -0.0589 -0.4341 -0.4955
  114MOL    O7720643   1.506   2.123   5.315  0.1132 -0.7801  0.2950
  114MOL    O7820644   1.420   2.245   5.490 -0.3753  0.1156  0.5377
  114MOL    H7920645   1.375   2.043   5.598 -0.8249 -1.9201  0.1134
  114MOL    H8020646   1.263   1.913   5.393  0.1361 -1.1226 -0.4061
  114MOL    H8120647   1.418   1.835   5.373  1.9564  1.3892  1.1910
  114MOL    H8220648   1.327   1.810   5.518 -1.7053  1.7621  2.0568
  114MOL    C8320649   1.395   2.371   5.424 -0.2662  0.4495  0.0374
  114MOL    C8420650   1.392   2.481   5.529 -0.1633  0.3234 -0.9003
  114MOL    C8520651   1.262   2.368   5.337 -0.0520  0.2031 -1.1339
  114MOL    O8620652   1.155   2.352   5.400  0.6166 -0.1801 -0.0715
  114MOL    O8720653   1.282   2.380   5.204  0.0048 -0.1287 -0.2323
  114MOL    H8820654   1.482   2.396   5.363 -0.9488 -0.6028 -1.3929
  114MOL    H8920655   1.485   2.490   5.584  0.0164 -0.2502 -1.1064
  114MOL    H9020656   1.377   2.576   5.477  0.5535  2.3515  2.4897
  114MOL    H9120657   1.305   2.476   5.594 -0.1967  0.1192 -0.9585
  114MOL    C9220658   1.175   2.387   5.110  0.2426 -0.2025  0.5898
  114MOL    C9320659   1.105   2.523   5.103  0.0983 -0.9561 -0.3107
  114MOL    C9420660   1.073   2.266   5.120  0.2389 -0.8360 -0.2114
  114MOL    O9520661   0.953   2.293   5.151  0.2479  0.0030 -0.8532
  114MOL    O9620662   1.128   2.152   5.083 -0.0390 -0.6196  0.1459
  114MOL    H9720663   1.217   2.367   5.011 -0.8991  0.6005 -0.0837
  114MOL    H9820664   1.171   2.603   5.071 -1.7030 -0.1807 -2.1397
  114MOL    H9920665   1.030   2.531   5.025 -0.9624 -1.3326  0.6525
  114MOL   H10020666   1.068   2.538   5.205 -1.0242  0.7488 -0.9480
  114MOL   C10120667   1.063   2.029   5.096 -0.0845  0.7547 -0.6511
  114MOL   C10220668   1.167   1.908   5.088  0.1261  0.1330  0.4781
  114MOL   C10320669   0.942   2.027   5.003 -0.1861  0.4173 -0.8841
  114MOL   O10420670   0.931   2.108   4.913 -0.4622  0.1431  0.2036
  114MOL   O10520671   0.863   1.918   5.026  0.1258 -0.4726 -0.2214
  114MOL   H10620672   1.024   2.018   5.198  0.5820 -0.3979 -0.5117
  114MOL   H10720673   1.247   1.911   5.161  0.4321 -0.0178  0.1500
  114MOL   H10820674   1.115   1.813   5.102 -2.4276  1.5899  1.1626
  114MOL   H10920675   1.210   1.913   4.988 -0.6896  3.2941  0.2269
  114MOL   C11020676   0.754   1.880   4.944  0.4465  0.5330  0.2544
  114MOL   C11120677   0.688   1.759   5.015  0.3234  0.1880  0.1585
  114MOL   C11220678   0.798   1.854   4.796 -0.5870 -0.4629 -0.3115
  114MOL   O11320679   0.903   1.796   4.772  0.6150  0.1029 -0.1410
  114MOL   O11420680   0.710   1.895   4.707  0.6036  0.6364 -0.0105
  114MOL   H11520681   0.674   1.954   4.953  0.2880  0.2713  1.0829
  114MOL   H11620682   0.636   1.790   5.106 -0.1337  0.4143 -0.1758
  114MOL   H11720683   0.609   1.720   4.950 -0.2479 -1.5240  1.8269
  114MOL   H11820684   0.754   1.672   5.007  0.6367  0.6475 -2.6116
  114MOL   C11920685   0.730   1.876   4.559  0.0218  0.1993  0.0444
  114MOL   C12020686   0.592   1.936   4.503  0.3820  0.2365  0.2725
  114MOL   C12120687   0.726   1.724   4.525  0.1807 -0.4359  0.2284
  114MOL   O12220688   0.686   1.634   4.605  0.5209 -0.1414 -0.1689
  114MOL   O12320689   0.770   1.717   4.397  1.2318 -0.4838 -0.6824
  114MOL   H12420690   0.815   1.922   4.511  0.3942 -0.6362 -0.0990
  114MOL   H12520691   0.571   2.029   4.556 -2.0324 -1.3343  2.1742
  114MOL   H12620692   0.600   1.958   4.396  2.5393  0.4991  0.4778
  114MOL   H12720693   0.513   1.863   4.522 -0.0681  0.6624  0.0593
  114MOL   C12820694   0.746   1.596   4.313 -0.3899 -0.0227 -0.0215
  114MOL   C12920695   0.874   1.561   4.238 -0.5065 -0.7757  0.6920
  114MOL   C13020696   0.622   1.614   4.219 -0.1520 -0.3929  0.1393
  114MOL   O13120697   0.578   1.730   4.196  0.5906  0.2126  0.1996
  114MOL   O13220698   0.580   1.500   4.168 -0.2937 -0.7040 -0.0160
  114MOL   H13320699   0.724   1.514   4.381  1.3089  0.8065  1.5714
  114MOL   H13420700   0.873   1.457   4.207 -0.7152 -0.9644  1.3326
  114MOL   H13520701   0.908   1.628   4.159 -1.2360 -1.4971 -0.2484
  114MOL   H13620702   0.953   1.549   4.311  0.5758 -0.9526 -0.4779
  114MOL   C13720703   0.499   1.488   4.045 -0.4834  0.0651 -0.0445
  114MOL   C13820704   0.434   1.348   4.047  0.6661  0.7585  0.2130
  114MOL   C13920705   0.581   1.500   3.914  1.2442  0.5845 -0.5658
  114MOL   O14020706   0.704   1.511   3.917 -0.0543  0.0791  0.0302
  114MOL   O14120707   0.507   1.484   3.802  0.7020  0.8954 -0.0809
  114MOL   H14220708   0.433   1.575   4.046 -1.5699 -0.7486 -0.2779
  114MOL   H14320709   0.369   1.325   3.962  0.7287  2.8955 -0.4493
  114MOL   H14420710   0.507   1.270   4.027 -0.3528 -0.2518  0.3623
  114MOL   H14520711   0.383   1.332   4.142 -1.0046  1.0872 -0.5939
  114MOL   C14620712   0.572   1.497   3.672  0.9225 -0.2198 -0.4781
  114MOL   C14720713   0.563   1.640   3.618 -0.3907  0.7320 -0.0863
  114MOL   C14820714   0.510   1.393   3.581  0.5441 -0.0905 -0.1852
  114MOL   O14920715   0.496   1.407   3.460 -0.2557 -0.4376  0.5000
  114MOL   O15020716   0.480   1.277   3.644  0.3408  0.0974 -0.4258
  114MOL   H15120717   0.678   1.470   3.671  1.3449  1.2649  1.2034
  114MOL   H15220718   0.553   1.717   3.695 -2.5805 -0.0943  0.5049
  114MOL   H15320719   0.636   1.678   3.547 -0.5733 -1.4867 -1.4979
  114MOL   H15420720   0.466   1.653   3.571  0.1267  1.0641 -1.0721
  114MOL   C15520721   0.433   1.152   3.583 -0.8701 -0.3777  0.4687
  114MOL   C15620722   0.359   1.075   3.689  0.3802  0.1418 -0.4934
  114MOL   C15720723   0.557   1.069   3.541 -0.3039 -0.4412  0.4262
  114MOL   O15820724   0.576   0.950   3.561 -0.5686 -0.4789 -0.1617
  114MOL   O15920725   0.650   1.142   3.480  0.2512 -0.2265  0.4738
  114MOL   H16020726   0.356   1.172   3.508  0.2275 -0.4181 -0.6849
  114MOL   H16120727   0.428   1.036   3.765  0.1689  0.5488 -0.0955
  114MOL   H16220728   0.273   1.131   3.724 -1.5312 -2.2431 -1.1885
  114MOL   H16320729   0.329   0.985   3.634  1.3894 -0.7156  0.3328
  114MOL   C16420730   0.782   1.100   3.458 -0.0646 -0.5813  0.4751
  114MOL   C16520731   0.860   1.221   3.409 -0.4889  0.7521 -0.5695
  114MOL   C16620732   0.794   0.987   3.348 -0.8048 -0.0884  0.0361
  114MOL   O16720733   0.748   1.010   3.241  0.2533 -0.0247  0.4713
  114MOL   O16820734   0.857   0.874   3.397 -0.1144  0.7461 -0.2136
  114MOL   H16920735   0.827   1.082   3.555 -2.2238  0.8437  1.7747
  114MOL   H17020736   0.813   1.273   3.326 -0.4345  1.3495 -0.2248
  114MOL   H17120737   0.872   1.290   3.492 -0.0527  0.1258 -0.1033
  114MOL   H17220738   0.961   1.190   3.384 -0.4000 -0.8477  1.6065
  114MOL   C17320739   0.874   0.754   3.321 -0.5650  0.3953  0.1108
  114MOL   C17420740   0.995   0.765   3.220  0.0554  0.1851 -0.3617
  114MOL   C17520741   0.740   0.703   3.256  0.0546 -0.2785  0.2139
  114MOL   O17620742   0.717   0.670   3.139 -0.4867  0.1344  0.0150
  114MOL   O17720743   0.653   0.701   3.354  0.2371  0.0427 -0.4047
  114MOL   H17820744   0.902   0.667   3.382 -1.1025  0.1543  0.0097
  114MOL   H17920745   0.973   0.721   3.123 -1.6690 -0.9305  0.5102
  114MOL   H18020746   1.004   0.870   3.190 -0.4866  0.7758  1.4419
  114MOL   H18120747   1.092   0.733   3.257 -0.9906 -0.4765  1.9117
  114MOL   H18220748   0.713   0.715   3.426 -0.6518  0.1700  0.3292
  115MOL     C120749   3.277   3.592   4.907 -0.7651 -0.3801  0.2899
  115MOL     C220750   3.401   3.613   4.812  0.4014  0.1004 -0.3519
  115MOL     C320751   3.198   3.723   4.929 -0.2789 -0.1164  0.0742
  115MOL     O420752   3.251   3.829   4.932 -0.1240 -0.6108 -0.0340
  115MOL     O520753   3.077   3.699   4.974  0.1530 -0.3072  0.1473
  115MOL     H620754   3.213   3.522   4.854 -0.6896  0.8754 -1.5406
  115MOL     H720755   3.493   3.627   4.867  0.3086 -0.2526 -0.1043
  115MOL     H820756   3.407   3.527   4.744  0.7481 -2.2913  2.6212
  115MOL     H920757   3.392   3.699   4.745  1.2053 -0.5174 -1.2743
  115MOL    H1020758   3.305   3.555   5.006 -1.0021  0.1668  0.5639
  115MOL    C1120759   2.974   3.790   5.003 -0.3852 -0.0353  0.0089
  115MOL    C1220760   2.943   3.798   5.153  0.2494  0.2379  0.2826
  115MOL    C1320761   2.852   3.772   4.913 -0.7753  0.3334  0.5471
  115MOL    O1420762   2.875   3.747   4.796  0.2762  0.0035  0.6646
  115MOL    O1520763   2.733   3.781   4.968  0.3457 -0.1792  0.0445
  115MOL    H1620764   3.010   3.891   4.982  2.2068 -0.3519  2.5992
  115MOL    H1720765   2.840   3.814   5.183  0.0626 -0.0173 -0.2201
  115MOL    H1820766   2.973   3.704   5.199 -1.2666 -0.5253 -0.2524
  115MOL    H1920767   3.011   3.869   5.200  2.5927 -1.4993 -0.3430
  115MOL    C2020768   2.615   3.767   4.886  0.0188 -0.0623  0.0617
  115MOL    C2120769   2.497   3.839   4.953 -0.1642  0.0692  0.1331
  115MOL    C2220770   2.574   3.626   4.861  0.8300  0.1668 -0.5160
  115MOL    O2320771   2.593   3.536   4.944 -0.3927 -1.0423 -0.0670
  115MOL    O2420772   2.508   3.608   4.742  0.3554  0.0324  0.4284
  115MOL    H2520773   2.619   3.819   4.790 -1.7318  0.2132  0.1216
  115MOL    H2620774   2.532   3.939   4.977 -3.7841  1.1512  1.2161
  115MOL    H2720775   2.399   3.841   4.904  1.8297  2.9250 -3.9965
  115MOL    H2820776   2.471   3.794   5.049  0.7043  1.1822  0.9044
  115MOL    C2920777   2.450   3.488   4.712 -0.1641 -0.0950  0.1971
  115MOL    C3020778   2.420   3.474   4.559  0.1884 -0.2938  0.1190
  115MOL    C3120779   2.327   3.470   4.800  0.1814  0.2518 -0.3578
  115MOL    O3220780   2.304   3.365   4.858  0.0193  0.0552 -1.2353
  115MOL    O3320781   2.241   3.578   4.801  0.1124  0.0723 -0.2921
  115MOL    H3420782   2.519   3.409   4.740  0.0797 -0.0129 -0.1696
  115MOL    H3520783   2.338   3.542   4.534 -0.4354 -0.3677  1.9162
  115MOL    H3620784   2.492   3.513   4.487 -0.2861 -0.7647 -0.6171
  115MOL    H3720785   2.384   3.374   4.537 -2.5176  0.6956 -0.1062
  115MOL    C3820786   2.123   3.572   4.871 -0.5811  0.4404  0.3093
  115MOL    C3920787   2.029   3.682   4.836 -0.3238 -0.2619  0.0320
  115MOL    C4020788   2.159   3.572   5.024 -0.1175  0.4813 -0.0659
  115MOL    O4120789   2.260   3.628   5.070  0.5530 -0.0971 -0.3061
  115MOL    O4220790   2.056   3.511   5.094  0.7308 -0.0835 -0.8437
  115MOL    H4320791   2.073   3.477   4.851  1.6016 -0.3352 -1.7254
  115MOL    H4420792   1.934   3.681   4.889  0.0954  0.9088  0.8218
  115MOL    H4520793   2.082   3.775   4.858 -0.3960 -0.9667  3.5454
  115MOL    H4620794   2.009   3.683   4.729  2.7212 -0.1296 -0.5725
  115MOL    C4720795   2.060   3.462   5.229  0.8935 -0.1902 -0.1018
  115MOL    C4820796   1.985   3.565   5.320 -0.2147 -0.7050  0.4165
  115MOL    C4920797   2.197   3.427   5.287  0.4559  0.7842 -0.5867
  115MOL    O5020798   2.232   3.463   5.400 -0.1228 -0.1365 -0.3214
  115MOL    O5120799   2.269   3.346   5.201  0.1526  0.1825 -0.3149
  115MOL    H5220800   2.007   3.367   5.224  1.4023 -0.4492 -0.6660
  115MOL    H5320801   1.903   3.604   5.261 -2.2635 -1.3123  2.7477
  115MOL    H5420802   1.948   3.514   5.409  0.7694 -1.4414  0.4107
  115MOL    H5520803   2.035   3.658   5.345  0.1173 -0.6173 -0.5626
  115MOL    C5620804   2.392   3.288   5.235  0.6136 -0.2034 -0.9356
  115MOL    C5720805   2.456   3.222   5.116  0.3353 -0.5159 -0.1471
  115MOL    C5820806   2.375   3.177   5.338  0.7551 -0.0786 -0.5068
  115MOL    O5920807   2.271   3.114   5.349  0.4669 -0.1755 -0.3580
  115MOL    O6020808   2.494   3.144   5.395  0.1967 -0.5317 -0.2941
  115MOL    H6120809   2.452   3.363   5.286  2.7223 -2.2023 -0.4024
  115MOL    H6220810   2.449   3.292   5.032 -0.4107  0.5329  0.7808
  115MOL    H6320811   2.563   3.209   5.132  0.4918 -1.2239 -1.6494
  115MOL    H6420812   2.416   3.128   5.078 -0.9042  0.6146 -1.7085
  115MOL    C6520813   2.518   3.027   5.477  0.2721  0.7998  0.6742
  115MOL    C6620814   2.516   2.901   5.388  0.6466  0.8776  0.6741
  115MOL    C6720815   2.422   3.021   5.597 -0.2552  0.1044 -0.2835
  115MOL    O6820816   2.349   2.923   5.612 -0.4257 -0.5970  0.1734
  115MOL    O6920817   2.436   3.126   5.679 -0.2589 -0.1596 -0.0246
  115MOL    H7020818   2.616   3.028   5.524 -0.4931 -0.2018  2.3802
  115MOL    H7120819   2.594   2.897   5.312  1.8302  0.2891  1.9092
  115MOL    H7220820   2.548   2.820   5.453  3.1616  0.5550 -0.8982
  115MOL    H7320821   2.420   2.874   5.344  0.9485  0.3450  0.3330
  115MOL    C7420822   2.363   3.123   5.805 -1.1635  0.1730  0.1979
  115MOL    C7520823   2.295   3.254   5.824  0.4269  0.1471 -0.3354
  115MOL    C7620824   2.458   3.086   5.919 -0.2650  0.1679  0.0613
  115MOL    O7720825   2.579   3.107   5.912  0.4296  0.5614  0.3352
  115MOL    O7820826   2.396   3.057   6.033 -0.2320 -0.0930 -0.2550
  115MOL    H7920827   2.270   3.068   5.792 -0.3499 -1.4764  1.2053
  115MOL    H8020828   2.216   3.278   5.753 -1.0214 -1.1143  0.8015
  115MOL    H8120829   2.248   3.254   5.922 -1.9165  0.9515 -1.4266
  115MOL    H8220830   2.359   3.341   5.834 -0.1220  0.4436  0.7398
  115MOL    C8320831   2.464   3.034   6.154  0.5532  1.0296  0.4319
  115MOL    C8420832   2.511   2.894   6.171  0.6466 -0.4001  0.2502
  115MOL    C8520833   2.379   3.088   6.271  1.4164  0.8487 -0.0984
  115MOL    O8620834   2.357   3.030   6.375 -0.2193 -0.5295 -0.1073
  115MOL    O8720835   2.321   3.197   6.233 -0.5084  0.2914  0.4106
  115MOL    H8820836   2.552   3.098   6.163  1.9506 -1.0414  1.8588
  115MOL    H8920837   2.580   2.873   6.090  2.6342 -0.0582  1.7970
  115MOL    H9020838   2.560   2.894   6.268 -0.1657 -0.7152  0.6635
  115MOL    H9120839   2.435   2.817   6.170 -0.3180  0.4525  3.0068
  115MOL    C9220840   2.254   3.293   6.315  0.5651 -0.1397  0.7401
  115MOL    C9320841   2.117   3.241   6.363 -0.5144  0.1383  0.4091
  115MOL    C9420842   2.246   3.423   6.233 -1.0627  0.8779  0.5101
  115MOL    O9520843   2.316   3.436   6.129  0.1855  0.2531  0.1299
  115MOL    O9620844   2.175   3.518   6.295 -0.0371  0.1972 -0.7292
  115MOL    H9720845   2.314   3.318   6.402  0.2776  1.5071  0.4720
  115MOL    H9820846   2.127   3.155   6.430 -1.1951 -0.3168 -0.0695
  115MOL    H9920847   2.069   3.304   6.438  0.1373  1.5338 -0.3269
  115MOL   H10020848   2.059   3.200   6.281 -1.5697  1.1856  0.6159
  115MOL   C10120849   2.147   3.647   6.235 -0.5306  0.7050  0.8586
  115MOL   C10220850   2.077   3.733   6.350  0.3167 -0.0537  0.6746
  115MOL   C10320851   2.067   3.626   6.111  0.3033 -0.3325  0.5595
  115MOL   O10420852   1.959   3.568   6.116 -1.1314  0.2795 -0.0958
  115MOL   O10520853   2.130   3.668   5.999 -0.0279  0.1362 -0.1715
  115MOL   H10620854   2.241   3.696   6.208  0.2202 -0.9585  0.3763
  115MOL   H10720855   2.049   3.831   6.311 -1.8394  0.3194  3.0436
  115MOL   H10820856   1.987   3.681   6.382  0.6147 -0.7629  0.3686
  115MOL   H10920857   2.144   3.748   6.435  0.9291 -0.1093  0.2059
  115MOL   C11020858   2.056   3.674   5.878 -0.2943 -0.1246  0.5087
  115MOL   C11120859   2.074   3.536   5.813  0.0291  0.2493 -0.4848
  115MOL   C11220860   2.102   3.791   5.794 -0.3637  0.0880  0.2798
  115MOL   O11320861   2.027   3.884   5.769 -0.4787  0.0949 -0.6876
  115MOL   O11420862   2.234   3.772   5.755  0.0033  0.0543  0.3757
  115MOL   H11520863   1.950   3.689   5.899 -0.6637  0.3910 -1.5703
  115MOL   H11620864   2.063   3.459   5.889  0.5699 -0.1817 -0.8409
  115MOL   H11720865   1.996   3.516   5.739 -3.0558  0.8027  2.4793
  115MOL   H11820866   2.175   3.529   5.772  0.5166 -1.6715  0.9835
  115MOL   C11920867   2.295   3.850   5.657  0.5921 -0.0986  0.3325
  115MOL   C12020868   2.370   3.750   5.574 -0.7004 -0.1000  0.1370
  115MOL   C12120869   2.382   3.955   5.722 -0.7321  0.1803 -0.1149
  115MOL   O12220870   2.364   4.076   5.699  0.4950  0.5048 -0.6484
  115MOL   O12320871   2.471   3.893   5.800  0.3012 -0.9168 -0.0237
  115MOL   H12420872   2.220   3.888   5.587  1.8347  1.4729 -0.1715
  115MOL   H12520873   2.304   3.694   5.507 -1.7210 -1.3725  2.1537
  115MOL   H12620874   2.436   3.804   5.506  1.7324 -1.3255  1.4694
  115MOL   H12720875   2.423   3.678   5.636 -2.1389  0.8805  2.6010
  115MOL   C12820876   2.581   3.956   5.871 -0.0179  0.0066  0.2018
  115MOL   C12920877   2.657   3.852   5.943 -0.2791 -0.4172  0.0221
  115MOL   C13020878   2.520   4.058   5.969  0.1799 -0.0534 -0.4967
  115MOL   O13120879   2.504   4.174   5.939 -0.2174  0.2095 -0.1800
  115MOL   O13220880   2.473   4.002   6.082 -0.0532  0.0104 -0.3100
  115MOL   H13320881   2.649   3.992   5.793 -0.6552  0.0140 -0.3493
  115MOL   H13420882   2.608   3.823   6.035  0.2091  2.4519  1.2348
  115MOL   H13520883   2.674   3.757   5.892  0.2314 -0.9361  1.1481
  115MOL   H13620884   2.758   3.885   5.967 -0.3658  1.1977 -1.6927
  115MOL   C13720885   2.394   4.078   6.170 -0.1821 -0.3389 -0.0958
  115MOL   C13820886   2.394   3.994   6.299 -0.4686 -0.6044  0.4548
  115MOL   C13920887   2.252   4.084   6.117 -0.0450  0.5772  0.1997
  115MOL   O14020888   2.210   3.993   6.047 -0.3793  0.0426  0.4972
  115MOL   O14120889   2.184   4.197   6.164  0.3244 -0.2419 -0.1783
  115MOL   H14220890   2.434   4.178   6.187  0.3562 -0.6654  0.5850
  115MOL   H14320891   2.320   4.034   6.369 -0.6595  0.4756 -0.3529
  115MOL   H14420892   2.351   3.898   6.271  2.4597 -1.6873 -0.5159
  115MOL   H14520893   2.491   3.972   6.344  2.0031  3.0688 -2.7793
  115MOL   C14620894   2.046   4.213   6.135 -0.1034  0.9124 -0.7844
  115MOL   C14720895   1.997   4.351   6.178  0.1228 -0.7424  0.4815
  115MOL   C14820896   1.967   4.103   6.219  0.4496 -0.5484  0.2660
  115MOL   O14920897   2.001   4.076   6.339 -0.0922  0.1568  0.0161
  115MOL   O15020898   1.876   4.037   6.142 -0.2983  0.5569 -0.3216
  115MOL   H15120899   2.025   4.196   6.029  2.8518 -0.6919 -1.1497
  115MOL   H15220900   1.904   4.383   6.130 -0.8035 -0.4772  2.4033
  115MOL   H15320901   1.960   4.365   6.280 -1.6081  0.4730 -0.2848
  115MOL   H15420902   2.072   4.430   6.168  1.8129 -2.4357 -0.4759
  115MOL   C15520903   1.782   3.948   6.202 -0.4019  0.2417 -0.8016
  115MOL   C15620904   1.704   3.867   6.100  0.8012 -0.0904  1.2985
  115MOL   C15720905   1.695   4.031   6.296  0.0044  0.6895 -0.1104
  115MOL   O15820906   1.719   4.041   6.419  0.0090  0.2485 -1.0908
  115MOL   O15920907   1.578   4.081   6.235  0.1531  0.2909  0.1684
  115MOL   H16020908   1.835   3.875   6.264 -0.9166  1.1413  0.7396
  115MOL   H16120909   1.693   3.930   6.011 -0.1353 -2.5829 -0.3843
  115MOL   H16220910   1.764   3.784   6.064  0.3415  0.8657 -1.8787
  115MOL   H16320911   1.614   3.835   6.153 -1.3678  0.6681 -1.7442
  115MOL   C16420912   1.503   4.187   6.290 -0.3987 -0.9898  0.1505
  115MOL   C16520913   1.368   4.191   6.226 -0.2648 -0.4291  0.6108
  115MOL   C16620914   1.571   4.319   6.283 -0.0516  1.2001  0.0745
  115MOL   O16720915   1.680   4.330   6.220 -0.0257 -0.5608 -0.7677
  115MOL   O16820916   1.524   4.408   6.366 -0.2422  0.6828 -0.6130
  115MOL   H16920917   1.482   4.172   6.396  0.0827 -2.4217  0.0634
  115MOL   H17020918   1.305   4.103   6.243 -0.0397 -0.6430  0.3427
  115MOL   H17120919   1.317   4.272   6.278 -0.7091 -0.4368  0.1895
  115MOL   H17220920   1.362   4.219   6.121  1.2581  1.4105  0.9793
  115MOL   C17320921   1.600   4.533   6.381 -0.2510  0.1019 -0.9879
  115MOL   C17420922   1.602   4.553   6.537  0.3806  0.0649  0.7413
  115MOL   C17520923   1.527   4.641   6.303  0.3535 -0.3532  0.0576
  115MOL   O17620924   1.421   4.618   6.247  0.3031 -0.2172 -0.4279
  115MOL   O17720925   1.596   4.760   6.297  0.3672 -0.2475  0.9179
  115MOL   H17820926   1.699   4.530   6.336  0.8081 -2.7845  1.3775
  115MOL   H17920927   1.653   4.647   6.559  2.6762 -0.9097 -0.2905
  115MOL   H18020928   1.499   4.559   6.573 -0.7587 -1.2435 -2.1211
  115MOL   H18120929   1.646   4.464   6.580 -0.8755 -0.1475  1.6350
  115MOL   H18220930   1.542   4.817   6.245 -2.7931 -1.4534  2.7441
  116MOL     C120931   6.150   4.502   5.097  0.7788 -0.2870 -0.2929
  116MOL     C220932   6.093   4.624   5.020 -0.5858 -0.3967 -0.3573
  116MOL     C320933   6.303   4.492   5.092 -0.4956  0.0253  0.2512
  116MOL     O420934   6.365   4.554   5.006 -0.2226  0.4215  0.0562
  116MOL     O520935   6.358   4.411   5.191  0.5030  0.1094 -0.1674
  116MOL     H620936   6.108   4.499   5.197  0.9376  2.9402 -0.0672
  116MOL     H720937   6.159   4.711   5.016  0.0492 -0.9167 -1.1898
  116MOL     H820938   6.057   4.585   4.925 -2.8061 -0.1937  0.3590
  116MOL     H920939   6.003   4.655   5.074  0.2952  0.4579  0.6451
  116MOL    H1020940   6.106   4.418   5.043  1.4826 -1.5382  1.0385
  116MOL    C1120941   6.499   4.396   5.215  0.2483  0.0485 -0.4712
  116MOL    C1220942   6.519   4.279   5.313  0.0758 -0.0783 -0.3849
  116MOL    C1320943   6.563   4.518   5.270  0.7232 -0.1325  0.4768
  116MOL    O1420944   6.494   4.599   5.334  0.1227  0.1525 -0.6936
  116MOL    O1520945   6.692   4.521   5.253 -0.1037  0.0683  0.0101
  116MOL    H1620946   6.554   4.380   5.123  1.0526 -0.2484  0.0486
  116MOL    H1720947   6.619   4.268   5.356 -0.7351  1.0368  1.8116
  116MOL    H1820948   6.462   4.304   5.402  0.7064  0.4389 -0.1267
  116MOL    H1920949   6.484   4.193   5.256  2.0596 -0.0373 -1.7401
  116MOL    C2020950   6.777   4.611   5.331  0.7102 -0.2124  0.9420
  116MOL    C2120951   6.905   4.632   5.253  0.8531 -0.1022 -0.5185
  116MOL    C2220952   6.806   4.552   5.473 -0.0167  0.2104  0.7357
  116MOL    O2320953   6.789   4.439   5.499  0.1148  0.2642 -0.0607
  116MOL    O2420954   6.879   4.648   5.553  0.3563  0.1098  0.2198
  116MOL    H2520955   6.735   4.709   5.354 -1.6970 -0.7738 -0.8651
  116MOL    H2620956   6.887   4.673   5.153 -1.2655  0.3257  0.0304
  116MOL    H2720957   6.965   4.704   5.309  2.7738 -0.4024 -2.1155
  116MOL    H2820958   6.972   4.546   5.249  0.2246 -0.7476  2.2728
  116MOL    C2920959   6.923   4.623   5.679 -0.6936 -0.5360 -0.7973
  116MOL    C3020960   6.989   4.751   5.735  1.4289  0.2515 -0.1669
  116MOL    C3120961   7.014   4.505   5.679  0.2670  0.0527  0.1186
  116MOL    O3220962   6.990   4.405   5.750 -0.5006  0.3546  0.2310
  116MOL    O3320963   7.126   4.520   5.622  0.2029  0.4135  0.1493
  116MOL    H3420964   6.839   4.590   5.740 -0.3942 -0.3875 -0.3010
  116MOL    H3520965   7.072   4.784   5.672  0.3676  0.9278 -1.2299
  116MOL    H3620966   6.922   4.833   5.762  1.2697 -0.2288  0.9063
  116MOL    H3720967   7.036   4.725   5.829  0.1054 -0.1197  0.4006
  116MOL    C3820968   7.220   4.414   5.623 -0.4597 -0.4685  0.1168
  116MOL    C3920969   7.350   4.487   5.600 -0.6705 -0.3699  0.3725
  116MOL    C4020970   7.199   4.312   5.510 -0.1752 -0.5571 -0.2254
  116MOL    O4120971   7.112   4.318   5.423  0.4557  0.4219  0.2460
  116MOL    O4220972   7.299   4.218   5.510  0.2650 -0.5395  0.9809
  116MOL    H4320973   7.226   4.372   5.723  1.5144 -0.5431 -0.0116
  116MOL    H4420974   7.384   4.554   5.679  1.4421 -1.4327  0.4066
  116MOL    H4520975   7.440   4.426   5.600  1.9931  3.3828 -0.6858
  116MOL    H4620976   7.346   4.536   5.502  0.1986 -0.4477  0.2909
  116MOL    C4720977   7.313   4.131   5.398  0.9982 -0.6258 -0.4451
  116MOL    C4820978   7.237   4.004   5.430 -0.8381 -0.3504  0.5128
  116MOL    C4920979   7.462   4.105   5.373 -0.4251 -0.4198  0.0991
  116MOL    O5020980   7.524   4.020   5.439  0.2777  0.4429  0.0573
  116MOL    O5120981   7.513   4.199   5.293  0.1669  0.1501 -0.2512
  116MOL    H5220982   7.287   4.188   5.309  2.2758  0.3877 -0.1881
  116MOL    H5320983   7.293   3.928   5.374  1.9605  2.9178 -1.2968
  116MOL    H5420984   7.237   3.973   5.534 -0.3627  0.5553  0.7812
  116MOL    H5520985   7.135   3.985   5.397 -1.0106 -2.2220  2.0354
  116MOL    C5620986   7.646   4.193   5.239  0.0818  0.5117 -0.1376
  116MOL    C5720987   7.685   4.338   5.225 -0.5309 -0.4606  0.1174
  116MOL    C5820988   7.653   4.121   5.104 -0.2408  0.1358  1.1206
  116MOL    O5920989   7.560   4.134   5.024  0.3912 -0.1427  0.4204
  116MOL    O6020990   7.760   4.049   5.084 -0.4362 -0.0550 -0.7210
  116MOL    H6120991   7.716   4.152   5.311  0.6971  0.4396 -0.7677
  116MOL    H6220992   7.782   4.355   5.178 -1.5056  1.3585 -1.2957
  116MOL    H6320993   7.614   4.396   5.167  0.7255  1.4497  0.4157
  116MOL    H6420994   7.695   4.394   5.318 -1.6725 -1.2088  0.6996
  116MOL    C6520995   7.782   3.966   4.968 -0.3321  0.5849  0.2067
  116MOL    C6620996   7.903   3.879   4.999  0.1532 -0.3919  0.1364
  116MOL    C6720997   7.790   4.052   4.838 -0.3146 -0.0658  0.2420
  116MOL    O6820998   7.849   4.161   4.834  0.0329 -0.0054 -0.2626
  116MOL    O6920999   7.729   3.994   4.737  0.5508  0.3514 -0.1515
  116MOL    H7021000   7.693   3.902   4.962 -0.5672  0.8895  0.4254
  116MOL    H7121001   7.984   3.950   5.014 -1.5484  1.4292  0.9637
  116MOL    H7221002   7.880   3.823   5.090 -0.8291  0.6915  0.5638
  116MOL    H7321003   7.935   3.817   4.915  1.9753  1.4665 -0.5644
  116MOL    C7421004   7.723   4.054   4.605  0.0137  0.1908  0.1120
  116MOL    C7521005   7.633   3.967   4.521 -0.2875  0.1346  0.2082
  116MOL    C7621006   7.868   4.064   4.543  0.2182  0.7042  0.2509
  116MOL    O7721007   7.954   3.974   4.566 -0.1433  0.0010  0.3355
  116MOL    O7821008   7.888   4.179   4.473 -0.3685 -0.4763  0.9308
  116MOL    H7921009   7.671   4.150   4.613 -1.5771 -0.7069  0.5821
  116MOL    H8021010   7.657   3.864   4.548  2.9683  0.8770  0.3205
  116MOL    H8121011   7.527   3.968   4.547 -0.3717 -2.0835  0.0766
  116MOL    H8221012   7.640   3.984   4.414 -3.6402 -0.4282 -0.1646
  116MOL    C8321013   7.997   4.193   4.388 -0.3780 -0.7818 -0.1093
  116MOL    C8421014   8.040   4.333   4.377 -0.1902 -0.8576  0.8990
  116MOL    C8521015   7.950   4.137   4.249  0.1625  1.1603 -0.0302
  116MOL    O8621016   7.995   4.024   4.212 -0.1028 -0.0052 -0.6609
  116MOL    O8721017   7.861   4.219   4.179 -0.1587  0.0413  0.1570
  116MOL    H8821018   8.087   4.143   4.426 -0.2018 -0.2347  0.1972
  116MOL    H8921019   7.955   4.396   4.350  0.4867  0.5607  1.9489
  116MOL    H9021020   8.085   4.367   4.471 -1.4105  0.7198  0.9496
  116MOL    H9121021   8.115   4.346   4.299 -1.6026 -1.8486 -0.6315
  116MOL    C9221022   7.832   4.194   4.040  0.6038  0.2445  0.0338
  116MOL    C9321023   7.733   4.075   4.022  0.3687  0.0881  0.0879
  116MOL    C9421024   7.959   4.198   3.953  0.7516  0.5089  0.3149
  116MOL    O9521025   7.973   4.112   3.865  0.6271  0.4280  0.0812
  116MOL    O9621026   8.057   4.287   3.994  0.1962 -0.3448  0.3984
  116MOL    H9721027   7.777   4.284   4.013  0.6478  0.6515  1.2602
  116MOL    H9821028   7.631   4.096   4.054  0.3584 -0.2675  0.2890
  116MOL    H9921029   7.723   4.050   3.916 -0.4313  0.3794  0.0935
  116MOL   H10021030   7.761   3.980   4.067 -2.5661 -0.9744 -0.2196
  116MOL   C10121031   0.025   4.289   3.915 -0.2588 -0.6034 -0.0615
  116MOL   C10221032   0.106   4.165   3.968 -0.2172  0.7284 -0.8271
  116MOL   C10321033   0.103   4.417   3.946  0.1208  0.5642  0.1632
  116MOL   O10421034   0.139   4.491   3.861  0.2185  0.6133 -0.2294
  116MOL   O10521035   0.131   4.434   4.083  0.0172  0.3252  0.0600
  116MOL   H10621036   0.012   4.287   3.806 -0.2746 -0.1296 -0.0677
  116MOL   H10721037   0.159   4.115   3.887 -0.1353  2.1301 -1.6345
  116MOL   H10821038   0.181   4.192   4.043  1.3108  1.1077 -2.4518
  116MOL   H10921039   0.038   4.088   4.005 -1.6392  1.3555 -2.1173
  116MOL   C11021040   0.224   4.525   4.138 -0.5562  0.2769  0.6965
  116MOL   C11121041   0.281   4.487   4.270 -0.3647 -0.0158  0.1926
  116MOL   C11221042   0.161   4.667   4.156  0.4440  0.4666 -0.0768
  116MOL   O11321043   0.216   4.768   4.121  0.6500  0.0740 -0.5374
  116MOL   O11421044   0.033   4.656   4.186  0.2174 -0.6664  0.6666
  116MOL   H11521045   0.296   4.541   4.057 -2.6954 -0.0152 -1.3138
  116MOL   H11621046   0.202   4.462   4.341  1.6393 -2.6460  1.5315
  116MOL   H11721047   0.331   4.391   4.270 -0.4271 -0.0507 -0.2081
  116MOL   H11821048   0.340   4.568   4.313 -3.0355  2.3481 -0.4450
  116MOL   C11921049   8.099   4.770   4.195 -0.7134  0.0466 -0.0462
  116MOL   C12021050   8.109   4.835   4.339  0.8232  0.6306  0.2702
  116MOL   C12121051   7.967   4.726   4.144 -0.8567 -0.1751 -0.0672
  116MOL   O12221052   7.935   4.612   4.117 -0.6740  0.0558 -0.3192
  116MOL   O12321053   7.877   4.837   4.138 -0.0938  0.1525 -0.1715
  116MOL   H12421054   8.131   4.835   4.114 -0.8692  2.2881  1.6429
  116MOL   H12521055   8.020   4.883   4.378  2.5541  3.5585  0.7529
  116MOL   H12621056   8.128   4.756   4.413 -2.2994 -0.3805  0.0650
  116MOL   H12721057   0.039   4.911   4.332  1.9223 -0.5702 -1.2536
  116MOL   C12821058   7.737   4.807   4.144 -0.1428 -0.1545  0.2516
  116MOL   C12921059   7.652   4.919   4.105  0.0379 -0.1564 -0.0833
  116MOL   C13021060   7.688   4.749   4.275  0.4977  0.3456  0.1907
  116MOL   O13121061   7.609   4.648   4.267 -0.0382  0.2110 -0.0795
  116MOL   O13221062   7.744   4.802   4.385 -0.2649  0.0495 -0.6637
  116MOL   H13321063   7.725   4.731   4.068  1.0595  0.0990 -0.2055
  116MOL   H13421064   7.697   4.964   4.016 -0.0610 -0.8911 -0.5072
  116MOL   H13521065   7.553   4.885   4.075 -0.1278 -0.6733  1.0336
  116MOL   H13621066   7.642   5.002   4.175  0.4092 -0.3937  0.2512
  116MOL   C13721067   7.697   4.764   4.518  0.4496 -0.2250  0.4618
  116MOL   C13821068   7.766   4.854   4.622 -0.4223 -0.3047 -0.6755
  116MOL   C13921069   7.727   4.619   4.557 -0.4057 -0.3842  0.4053
  116MOL   O14021070   7.833   4.565   4.525 -0.5294 -0.4039 -0.0520
  116MOL   O14121071   7.645   4.571   4.645 -0.0310  0.1183 -0.1937
  116MOL   H14221072   7.589   4.771   4.523  0.4601  0.0482  0.3203
  116MOL   H14321073   7.874   4.837   4.627 -0.1064  2.0422  1.3766
  116MOL   H14421074   7.747   4.957   4.592  0.3251  0.3690  1.1150
  116MOL   H14521075   7.717   4.841   4.718 -1.9788  1.3424 -1.2216
  116MOL   C14621076   7.669   4.463   4.727  0.1998  0.2492  1.0733
  116MOL   C14721077   7.524   4.416   4.753 -0.0592 -1.2858 -0.1576
  116MOL   C14821078   7.739   4.511   4.850  0.1017  0.1577 -0.5541
  116MOL   O14921079   7.800   4.437   4.926 -0.5964  0.0532 -0.2372
  116MOL   O15021080   7.708   4.635   4.882 -0.2730 -0.3700 -0.1721
  116MOL   H15121081   7.731   4.386   4.681 -0.1671  1.6919 -1.9737
  116MOL   H15221082   7.488   4.383   4.655  0.6446 -0.7948 -0.5912
  116MOL   H15321083   7.527   4.331   4.821  2.2211 -0.2981  1.0262
  116MOL   H15421084   7.479   4.502   4.803  1.9493  0.6946 -1.6707
  116MOL   C15521085   7.745   4.697   5.005  0.2227 -0.2949  0.6500
  116MOL   C15621086   7.667   4.828   5.020 -0.6555  0.3566  0.5610
  116MOL   C15721087   7.897   4.712   5.022 -0.1457 -0.8411 -0.2085
  116MOL   O15821088   7.960   4.686   5.123  0.7613 -0.0589 -0.9055
  116MOL   O15921089   7.950   4.777   4.913 -1.0471 -0.4864 -0.0860
  116MOL   H16021090   7.705   4.625   5.077  2.2358 -0.7050  1.3708
  116MOL   H16121091   7.625   4.831   5.120 -1.0327  1.0063  0.3879
  116MOL   H16221092   7.724   4.918   4.996 -0.4391 -0.2043 -1.1029
  116MOL   H16321093   7.578   4.837   4.958  0.1977  0.8101 -0.6349
  116MOL   C16421094   8.093   4.786   4.901 -0.2846  0.3574  0.4834
  116MOL   C16521095   8.137   4.927   4.881  0.2072 -0.2657  0.3328
  116MOL   C16621096   8.133   4.708   4.776  0.0621 -0.3143  0.0360
  116MOL   O16721097   8.132   4.756   4.664 -0.4052 -0.4855  0.6817
  116MOL   O16821098   0.025   4.587   4.807 -0.0584  0.3039 -0.2038
  116MOL   H16921099   0.007   4.751   4.984  0.7937 -0.0357 -0.4703
  116MOL   H17021100   8.073   4.973   4.805 -0.0109  0.3356  0.8693
  116MOL   H17121101   8.099   4.995   4.958 -2.1973 -0.6687 -0.4456
  116MOL   H17221102   0.097   4.945   4.878 -0.1794  2.5328  1.0906
  116MOL   C17321103   0.037   4.485   4.712 -0.3401  0.1233  0.3298
  116MOL   C17421104   0.016   4.355   4.784  0.0346  0.6977  0.4167
  116MOL   C17521105   0.165   4.494   4.634 -0.2597  0.5045 -0.0460
  116MOL   O17621106   0.248   4.408   4.630 -0.4675  0.0783 -0.5739
  116MOL   O17721107   0.174   4.615   4.579  0.4054 -0.3247 -0.2338
  116MOL   H17821108   8.110   4.501   4.634  0.4260  1.7378 -0.0924
  116MOL   H17921109   8.066   4.359   4.832  0.1273  2.2080  0.5108
  116MOL   H18021110   0.009   4.270   4.717  2.9845 -0.3836  1.3892
  116MOL   H18121111   0.083   4.326   4.866  0.2085 -3.2097 -1.0212
  116MOL   H18221112   0.101   4.669   4.602 -0.4633 -1.3552 -0.4952
  117MOL     C121113   6.663   0.766   5.794 -0.2639 -0.1780  0.2890
  117MOL     C221114   6.790   0.828   5.858 -0.2672  0.1019  0.1474
  117MOL     C321115   6.613   0.655   5.880  0.0167  0.7516  0.0714
  117MOL     O421116   6.678   0.596   5.970 -1.0251 -0.2020 -0.2049
  117MOL     O521117   6.493   0.621   5.836  0.2321 -0.3268  0.1030
  117MOL     H621118   6.591   0.845   5.773 -1.0314 -0.5099  1.6093
  117MOL     H721119   6.861   0.760   5.906 -0.1620  1.0487  1.3619
  117MOL     H821120   6.850   0.876   5.781  1.6338 -2.2310  0.1252
  117MOL     H921121   6.760   0.898   5.937 -3.2547  0.1125 -0.9326
  117MOL    H1021122   6.695   0.721   5.700 -1.6954  0.2945 -0.4334
  117MOL    C1121123   6.431   0.505   5.889  0.5039 -0.1977 -0.1207
  117MOL    C1221124   6.307   0.479   5.798  0.9026  0.9689  0.0415
  117MOL    C1321125   6.397   0.526   6.042 -0.6352 -0.0486  0.3509
  117MOL    O1421126   6.332   0.624   6.084  0.6115  0.4907 -0.2823
  117MOL    O1521127   6.447   0.426   6.121 -0.2081  0.1502  0.5941
  117MOL    H1621128   6.486   0.411   5.880 -1.2317 -1.2667  0.0260
  117MOL    H1721129   6.244   0.394   5.822 -0.7687  1.9851 -0.6670
  117MOL    H1821130   6.237   0.562   5.790 -2.1828 -1.5915 -0.4506
  117MOL    H1921131   6.332   0.467   5.693  1.6422 -0.0763  0.3318
  117MOL    C2021132   6.433   0.411   6.261  0.2046  0.0461 -0.2245
  117MOL    C2121133   6.292   0.389   6.301  0.5023  1.4030  0.3842
  117MOL    C2221134   6.499   0.524   6.330 -0.3166 -0.1483 -0.0604
  117MOL    O2321135   6.457   0.568   6.435 -0.0302  0.1306 -0.2138
  117MOL    O2421136   6.625   0.547   6.285  0.0463  0.2634 -0.4728
  117MOL    H2521137   6.498   0.327   6.288 -0.7988 -0.9201 -0.7662
  117MOL    H2621138   6.244   0.318   6.235 -0.6088  2.3476  0.1557
  117MOL    H2721139   6.284   0.341   6.399  1.1878  0.5560  0.0281
  117MOL    H2821140   6.230   0.479   6.298 -0.6790  0.5654 -1.1859
  117MOL    C2921141   6.722   0.619   6.363 -0.1081  0.0217  0.2665
  117MOL    C3021142   6.811   0.701   6.265 -0.5323  0.4702 -0.1200
  117MOL    C3121143   6.798   0.520   6.457 -0.3012  0.5440  0.1652
  117MOL    O3221144   6.753   0.497   6.564 -0.2731 -0.3337 -0.0691
  117MOL    O3321145   6.905   0.455   6.396 -0.5045  0.5518 -0.0499
  117MOL    H3421146   6.664   0.696   6.413  0.4208 -0.1644  1.1872
  117MOL    H3521147   6.751   0.775   6.211 -0.2800 -0.3034 -1.4962
  117MOL    H3621148   6.888   0.742   6.330  0.5108 -3.0028  0.9195
  117MOL    H3721149   6.869   0.634   6.201 -0.4962  0.0491  0.3490
  117MOL    C3821150   6.932   0.317   6.429 -0.5799 -0.2761 -0.2567
  117MOL    C3921151   7.060   0.278   6.356  0.0922  0.5814 -0.5134
  117MOL    C4021152   6.810   0.225   6.383 -0.5148  0.1552  0.0630
  117MOL    O4121153   6.742   0.260   6.286  0.4318  0.9455  0.0877
  117MOL    O4221154   6.798   0.117   6.447  0.3460 -0.0442 -0.3232
  117MOL    H4321155   6.947   0.317   6.537  0.4492 -0.4407 -0.3959
  117MOL    H4421156   7.153   0.326   6.386  1.4652 -3.0400  1.3894
  117MOL    H4521157   7.078   0.174   6.381  0.9873  1.0176  0.7052
  117MOL    H4621158   7.050   0.268   6.248  1.2350  0.1766 -0.5909
  117MOL    C4721159   6.682   0.029   6.446 -0.0787  0.5495 -0.1586
  117MOL    C4821160   6.677   8.086   6.317 -0.5761  0.1975 -0.8386
  117MOL    C4921161   6.548   0.106   6.484 -0.4825 -0.3580  0.8876
  117MOL    O5021162   6.455   0.119   6.407  0.3359  0.2835 -0.8621
  117MOL    O5121163   6.561   0.168   6.612 -0.3953 -0.3325 -0.0512
  117MOL    H5221164   6.697   8.104   6.526 -1.5732  0.6000  0.1834
  117MOL    H5321165   6.761   8.017   6.329  0.0217  1.1437  0.5379
  117MOL    H5421166   6.589   8.020   6.315 -0.7729  0.4032  0.7487
  117MOL    H5521167   6.681   8.144   6.225 -1.4354 -2.5080 -2.6621
  117MOL    C5621168   6.446   0.238   6.674 -0.2178  0.3987  0.1655
  117MOL    C5721169   6.498   0.311   6.788 -0.1226 -0.6400  0.9997
  117MOL    C5821170   6.329   0.136   6.710  0.2908  0.3222 -0.6127
  117MOL    O5921171   6.343   0.011   6.694 -0.3917 -0.7894  0.1738
  117MOL    O6021172   6.220   0.195   6.739 -0.3142  0.1218 -0.3233
  117MOL    H6121173   6.403   0.314   6.609  1.3158  2.1130  1.1057
  117MOL    H6221174   6.524   0.252   6.876  0.8470  0.9562  1.7897
  117MOL    H6321175   6.584   0.367   6.753  0.7168 -3.7923 -2.3629
  117MOL    H6421176   6.415   0.376   6.814 -0.0627 -0.1296 -0.0480
  117MOL    C6521177   6.094   0.139   6.714  0.4380  0.1748 -0.3371
  117MOL    C6621178   6.053   0.197   6.584 -0.7050 -0.5278  0.6207
  117MOL    C6721179   5.990   0.171   6.831  0.0598  0.8497  0.1890
  117MOL    O6821180   5.894   0.250   6.817  0.5006  0.2470  0.3978
  117MOL    O6921181   6.008   0.079   6.932  0.0196 -0.4274 -0.1151
  117MOL    H7021182   6.112   0.032   6.701  4.6555  0.5703  1.3603
  117MOL    H7121183   5.955   0.159   6.555 -0.1444 -0.5972 -1.2853
  117MOL    H7221184   6.049   0.306   6.587  0.6196 -0.3671 -1.6926
  117MOL    H7321185   6.124   0.170   6.506  0.3490  0.0021  1.3816
  117MOL    C7421186   5.912   0.058   7.030 -0.2334  0.0504 -0.0477
  117MOL    C7521187   6.005   8.142   7.142  0.1620 -0.6894 -0.5574
  117MOL    C7621188   5.810   8.100   6.978 -0.3676  0.1781  0.4507
  117MOL    O7721189   5.847   7.998   6.935 -0.0501  0.4242  0.0271
  117MOL    O7821190   5.684   8.144   6.985  0.2712  0.9342  0.5086
  117MOL    H7921191   5.858   0.148   7.059 -0.4286  0.2208 -0.9251
  117MOL    H8021192   6.048   0.075   7.202  1.2663 -2.1830  0.7274
  117MOL    H8121193   5.967   8.064   7.209  1.0078  0.6356  1.5392
  117MOL    H8221194   6.091   8.087   7.103  0.1100  0.8932 -2.9674
  117MOL    C8321195   5.572   8.056   6.946  0.0377 -0.0035  0.0911
  117MOL    C8421196   5.450   0.006   6.905 -0.4803 -0.1524 -0.0480
  117MOL    C8521197   5.524   7.979   7.066 -0.6793  0.5132 -0.1699
  117MOL    O8621198   5.592   7.990   7.168  0.2831  0.5355  0.0359
  117MOL    O8721199   5.414   7.890   7.045  0.6638 -0.3659  0.5700
  117MOL    H8821200   5.599   7.989   6.864  0.1681 -0.1242  0.2295
  117MOL    H8921201   5.400   0.045   6.994  0.8353  2.4026 -0.3702
  117MOL    H9021202   5.474   0.076   6.825  1.6637 -0.9255 -0.1302
  117MOL    H9121203   5.379   8.091   6.851 -0.7857  1.7287 -1.8879
  117MOL    C9221204   5.372   7.814   7.160  0.7932  0.7573  0.0760
  117MOL    C9321205   5.274   7.702   7.118 -0.9453  0.3557  0.0044
  117MOL    C9421206   5.318   7.912   7.264  0.0680 -0.2496 -0.5430
  117MOL    O9521207   5.279   8.025   7.241  0.1258  0.2768  0.5225
  117MOL    O9621208   5.321   7.859   7.391 -0.3195  0.0735 -0.0407
  117MOL    H9721209   5.457   7.759   7.200  1.6097  1.3530 -0.8101
  117MOL    H9821210   5.321   7.648   7.036 -2.9522 -0.6009 -0.5651
  117MOL    H9921211   5.254   7.644   7.208 -0.6008  0.6233  0.2538
  117MOL   H10021212   5.177   7.741   7.086 -2.3141 -2.1902  0.8309
  117MOL   C10121213   5.320   7.950   7.507 -0.0850 -0.1790 -0.1360
  117MOL   C10221214   5.182   8.020   7.538  0.4354  0.2975  0.0830
  117MOL   C10321215   5.433   8.043   7.519 -0.5603  0.1871  0.2922
  117MOL   O10421216   5.421   0.016   7.503 -0.2350  0.6774  0.2776
  117MOL   O10521217   5.548   7.973   7.547  0.2210  0.4878  0.2754
  117MOL   H10621218   5.338   7.881   7.590 -0.0673  0.6234  0.5323
  117MOL   H10721219   5.099   7.950   7.535  0.1952  0.4921  1.7370
  117MOL   H10821220   5.180   8.069   7.635 -1.0316  2.2357 -0.8879
  117MOL   H10921221   5.155   8.098   7.466 -0.9723 -0.6701 -0.4550
  117MOL   C11021222   5.665   8.049   7.577  0.4933  0.4082  0.1107
  117MOL   C11121223   5.790   7.970   7.530  0.5151 -0.2951  0.2213
  117MOL   C11221224   5.676   8.069   7.732  0.0532 -0.4913 -0.2757
  117MOL   O11321225   5.758   8.011   7.796 -0.1525  0.3875  0.0176
  117MOL   O11421226   5.581   8.145   7.789 -0.0351 -0.0830 -0.1317
  117MOL   H11521227   5.663   8.145   7.524  0.4825  1.1207  1.3819
  117MOL   H11621228   5.801   7.870   7.570  0.5463  0.1108  1.2422
  117MOL   H11721229   5.790   7.965   7.421  3.4575  1.6264  0.0937
  117MOL   H11821230   5.885   8.023   7.536  0.2216  0.4544 -1.3038
  117MOL   C11921231   5.588   0.031   7.929  0.2818 -0.3455 -0.7062
  117MOL   C12021232   5.452   0.099   7.964  0.0004 -0.1479  0.0488
  117MOL   C12121233   5.698   0.138   7.947  0.5365  0.2749 -0.5528
  117MOL   O12221234   5.780   0.131   8.044  0.0216 -0.4531  0.2867
  117MOL   O12321235   5.691   0.232   7.845  0.1633  0.3220 -0.3154
  117MOL   H12421236   5.607   8.090   7.990  1.8849  0.6977  0.3300
  117MOL   H12521237   5.371   0.027   7.970 -0.5276  0.3113 -1.4427
  117MOL   H12621238   5.460   0.134   8.067 -0.2542  1.1903 -0.3771
  117MOL   H12721239   5.422   0.189   7.909  1.9063  0.3327 -0.2483
  117MOL   C12821240   5.768   0.357   7.848 -0.0949  0.6116  0.5541
  117MOL   C12921241   5.689   0.449   7.752  0.6332  0.0389  0.3378
  117MOL   C13021242   5.908   0.342   7.797 -0.4588 -0.1359  0.5099
  117MOL   O13121243   6.010   0.361   7.863 -0.4469  0.6250 -0.6812
  117MOL   O13221244   5.908   0.313   7.669  0.4528  0.8440 -0.0375
  117MOL   H13321245   5.755   0.397   7.948 -0.1860  1.3920  0.2330
  117MOL   H13421246   5.750   0.533   7.718 -1.9979  0.8351 -2.7187
  117MOL   H13521247   5.646   0.409   7.661  1.8792  1.8507 -1.0966
  117MOL   H13621248   5.604   0.502   7.795 -1.3871 -1.5562 -1.6443
  117MOL   C13721249   6.034   0.281   7.603 -0.3912  0.1438  0.1702
  117MOL   C13821250   6.023   0.319   7.454 -0.0894 -0.3447 -0.8983
  117MOL   C13921251   6.075   0.137   7.626 -0.0410  0.6278  0.2202
  117MOL   O14021252   6.104   0.060   7.534  0.0283  0.3934 -0.6131
  117MOL   O14121253   6.094   0.108   7.753 -0.3009 -0.0080  0.0218
  117MOL   H14221254   6.113   0.345   7.642  0.1681 -1.8684  2.5274
  117MOL   H14321255   5.988   0.422   7.449 -0.3946 -0.4456 -0.8563
  117MOL   H14421256   6.122   0.317   7.409 -1.2996 -0.6569 -3.6111
  117MOL   H14521257   5.953   0.256   7.399  1.3462 -1.2984 -1.6419
  117MOL   C14621258   6.131   8.125   7.797 -0.1921 -0.5964  0.4295
  117MOL   C14721259   6.048   8.119   7.922 -1.0392 -0.0131 -0.4105
  117MOL   C14821260   6.282   8.115   7.828  0.3958  0.0274 -0.2513
  117MOL   O14921261   6.318   8.081   7.937  0.0242  0.0133  0.1073
  117MOL   O15021262   6.354   8.141   7.723 -0.0908  0.2421 -0.1974
  117MOL   H15121263   6.090   8.047   7.734  1.8371  0.7654 -2.7148
  117MOL   H15221264   6.079   8.034   7.982  0.1912 -0.6384 -1.8969
  117MOL   H15321265   6.063   0.066   7.975  1.7812 -0.9712  0.5843
  117MOL   H15421266   5.943   8.109   7.895 -0.5742 -2.8749 -1.2942
  117MOL   C15521267   6.499   8.136   7.728  0.2791 -0.2065 -0.2845
  117MOL   C15621268   6.551   0.023   7.589  0.2079 -0.5216  0.1857
  117MOL   C15721269   6.541   7.997   7.765 -0.1344  0.5626  0.5632
  117MOL   O15821270   6.633   7.985   7.848  0.0023 -0.9095  0.6184
  117MOL   O15921271   6.489   7.901   7.692  0.2939 -0.1829  0.9396
  117MOL   H16021272   6.546   0.051   7.804  1.0698  0.8958 -1.6806
  117MOL   H16121273   6.508   8.102   7.515 -3.4055  0.8464  0.9252
  117MOL   H16221274   6.515   0.124   7.572 -0.8103 -0.6562  1.4679
  117MOL   H16321275   6.659   0.029   7.578  0.1620  1.0626  0.5206
  117MOL   C16421276   6.535   7.765   7.691 -0.0437 -0.5923  0.4668
  117MOL   C16521277   6.497   7.680   7.812  0.4653 -0.7328 -0.3382
  117MOL   C16621278   6.691   7.753   7.675 -0.0448  0.0929  0.7497
  117MOL   O16721279   6.764   7.704   7.755  0.1178 -0.0818 -0.7325
  117MOL   O16821280   6.725   7.807   7.550 -0.0881 -0.1733 -0.2588
  117MOL   H16921281   6.496   7.713   7.604 -0.9274 -0.7239  0.9446
  117MOL   H17021282   6.544   7.725   7.900 -0.8778 -1.0360  0.5570
  117MOL   H17121283   6.391   7.669   7.833 -0.2962  2.3430 -2.1614
  117MOL   H17221284   6.525   7.575   7.802  2.6683 -0.4570  2.4109
  117MOL   C17321285   6.861   7.845   7.525 -0.3909 -0.1311  0.4545
  117MOL   C17421286   6.875   7.991   7.466 -0.1313 -0.1650  0.1510
  117MOL   C17521287   6.936   7.738   7.447 -0.4671 -0.0575  0.2126
  117MOL   O17621288   6.994   7.762   7.340  0.8937  0.0095  0.2820
  117MOL   O17721289   6.930   7.610   7.491 -0.1751 -0.3933 -0.3084
  117MOL   H17821290   6.909   7.846   7.623 -0.2799  0.4610  0.3984
  117MOL   H17921291   6.833   8.058   7.540  0.3788  0.7775 -0.3973
  117MOL   H18021292   6.977   8.015   7.437 -0.8698  3.7461  0.4810
  117MOL   H18121293   6.816   8.004   7.375  2.6995 -1.0604 -1.9176
  117MOL   H18221294   6.987   7.559   7.436 -1.2189 -0.3712 -1.4329
  118MOL     C121295   7.126   0.213   4.254  0.0993  0.2829 -0.3671
  118MOL     C221296   7.123   0.360   4.311 -0.2358 -0.0506 -0.0088
  118MOL     C321297   7.231   0.117   4.312 -0.0415 -0.3941  0.4424
  118MOL     O421298   7.329   0.162   4.364 -0.6297  0.3823 -0.0804
  118MOL     O521299   7.201   8.132   4.293 -0.1107  0.8049  0.5121
  118MOL     H621300   7.025   0.169   4.257 -0.7479  2.1751 -0.6289
  118MOL     H721301   7.035   0.415   4.278 -0.0524 -1.2770 -2.6788
  118MOL     H821302   7.115   0.352   4.419 -0.1253 -1.2809 -0.0842
  118MOL     H921303   7.207   0.429   4.304  0.3429 -0.7828 -0.3395
  118MOL    H1021304   7.148   0.216   4.147 -1.9951 -0.1989 -0.8456
  118MOL    C1121305   7.286   8.023   4.335 -0.1566 -0.7356  0.5115
  118MOL    C1221306   7.386   7.967   4.233 -0.4669  0.2356  0.7714
  118MOL    C1321307   7.196   7.912   4.389 -0.4074  0.5641 -0.7735
  118MOL    O1421308   7.080   7.895   4.354 -0.2710 -0.0220 -0.6460
  118MOL    O1521309   7.266   7.831   4.474  0.2398 -0.3329  0.9981
  118MOL    H1621310   7.344   8.062   4.419 -0.2949 -2.1831  1.2947
  118MOL    H1721311   7.331   7.907   4.161 -0.4175  0.9591  0.1232
  118MOL    H1821312   7.447   8.041   4.181  1.1814 -1.1940  0.6361
  118MOL    H1921313   7.462   7.908   4.284 -0.1721  0.0916  0.1618
  118MOL    C2021314   7.216   7.715   4.526 -0.0521  0.0684 -0.4747
  118MOL    C2121315   7.285   7.667   4.650 -0.4251 -0.0221 -0.1351
  118MOL    C2221316   7.202   7.595   4.423  0.1377 -0.5465 -0.1098
  118MOL    O2321317   7.091   7.536   4.419 -0.1759  0.6549 -0.0398
  118MOL    O2421318   7.312   7.583   4.340 -0.3615  0.6470  0.1078
  118MOL    H2521319   7.112   7.734   4.549  0.0672  0.6167 -0.3900
  118MOL    H2621320   7.231   7.681   4.744 -1.3304 -0.6654 -0.5457
  118MOL    H2721321   7.308   7.560   4.648 -0.5872 -0.0224 -2.6288
  118MOL    H2821322   7.378   7.722   4.660 -0.1755 -0.6655  1.2985
  118MOL    C2921323   7.317   7.465   4.250 -0.4703  0.4334 -0.2950
  118MOL    C3021324   7.470   7.449   4.220 -0.2539 -0.6427 -0.4841
  118MOL    C3121325   7.245   7.495   4.116 -0.0261  0.4467  0.4174
  118MOL    O3221326   7.157   7.419   4.066 -0.3413  0.1189  0.0366
  118MOL    O3321327   7.289   7.611   4.058  0.5953  0.2025 -0.1864
  118MOL    H3421328   7.263   7.378   4.286  0.1726  0.2676  0.2762
  118MOL    H3521329   7.518   7.547   4.213  0.0671 -0.6974  0.7922
  118MOL    H3621330   7.520   7.384   4.292  0.6507  2.7569  2.0816
  118MOL    H3721331   7.482   7.409   4.120  1.8562  2.3267 -1.4827
  118MOL    C3821332   7.240   7.642   3.931 -0.2719  0.7419  0.5516
  118MOL    C3921333   7.362   7.704   3.863 -1.1746 -0.1285 -0.2782
  118MOL    C4021334   7.127   7.749   3.938 -0.2485 -0.1576 -0.1832
  118MOL    O4121335   7.145   7.866   3.920 -0.5715  0.2170 -0.0664
  118MOL    O4221336   7.018   7.704   4.004  0.1815 -0.3548  0.2609
  118MOL    H4321337   7.211   7.559   3.868 -0.1694  0.4644  0.8661
  118MOL    H4421338   7.445   7.635   3.878 -2.6890 -1.4665  2.4051
  118MOL    H4521339   7.354   7.689   3.756  0.0028 -1.3732 -0.2101
  118MOL    H4621340   7.396   7.804   3.891  0.7761 -1.0235  0.6627
  118MOL    C4721341   6.900   7.782   4.040  0.2762  0.0969 -0.6230
  118MOL    C4821342   6.824   7.684   4.136  0.0075 -0.6256  0.3714
  118MOL    C4921343   6.835   7.815   3.906 -0.7511 -0.5275  0.1038
  118MOL    O5021344   6.818   7.931   3.869  0.2395  0.0957  0.4503
  118MOL    O5121345   6.800   7.704   3.842  0.0803 -0.6723 -0.3065
  118MOL    H5221346   6.921   7.871   4.100 -1.6879  0.7041 -0.7989
  118MOL    H5321347   6.735   7.734   4.177  1.0015  1.0775  0.5122
  118MOL    H5421348   6.800   7.588   4.091  0.1135 -0.4831  0.0129
  118MOL    H5521349   6.894   7.649   4.213 -0.5451 -0.1453  1.1060
  118MOL    C5621350   6.705   7.699   3.741  0.3377  0.4323  0.7660
  118MOL    C5721351   6.746   7.760   3.606  0.0467 -0.0131  0.5328
  118MOL    C5821352   6.563   7.737   3.793 -0.8837  0.0610 -1.2365
  118MOL    O5921353   6.484   7.798   3.721  0.2858 -0.2639  0.1399
  118MOL    O6021354   6.547   7.698   3.924  0.5008  0.0320 -0.5282
  118MOL    H6121355   6.709   7.592   3.720  1.7927  0.7182 -0.5364
  118MOL    H6221356   6.727   7.866   3.618 -1.3854 -0.0851 -0.9443
  118MOL    H6321357   6.850   7.739   3.578  0.8587  2.2674  1.7416
  118MOL    H6421358   6.683   7.718   3.528  0.5180  1.4634 -0.6692
  118MOL    C6521359   6.438   7.740   4.008  0.3357  0.6263  0.4987
  118MOL    C6621360   6.308   7.676   3.969 -0.1933 -0.4168  0.0763
  118MOL    C6721361   6.441   7.895   4.016  0.0618  1.1238  1.0036
  118MOL    O6821362   6.349   7.962   3.965  0.0309  0.0384 -0.3767
  118MOL    O6921363   6.548   7.942   4.080 -0.0567 -0.0568 -0.1643
  118MOL    H7021364   6.465   7.704   4.107 -0.0241 -0.1777  0.3098
  118MOL    H7121365   6.236   7.680   4.051  0.5497 -2.3077  0.8407
  118MOL    H7221366   6.260   7.715   3.879  0.5700 -0.5238 -0.3755
  118MOL    H7321367   6.327   7.569   3.959  1.0379 -0.2787  0.8190
  118MOL    C7421368   6.578   8.083   4.067 -0.3735  0.2299 -0.6395
  118MOL    C7521369   6.704   8.123   4.155 -0.4572  0.1406  0.7778
  118MOL    C7621370   6.471   0.044   4.094  0.4428  0.3537  0.3035
  118MOL    O7721371   6.394   0.033   4.190 -0.0168 -0.7046 -0.0693
  118MOL    O7821372   6.486   0.150   4.019 -0.1510  0.1906 -0.5517
  118MOL    H7921373   6.615   8.099   3.966 -1.1801 -0.3597 -1.0309
  118MOL    H8021374   6.801   8.083   4.125  0.4088  1.4570  1.7736
  118MOL    H8121375   6.716   0.083   4.166 -0.4579  0.5884 -2.9876
  118MOL    H8221376   6.695   8.082   4.255 -0.2186 -0.6604  0.4759
  118MOL    C8321377   6.383   0.249   4.016  0.1833 -0.2492 -0.0579
  118MOL    C8421378   6.294   0.217   3.892 -1.1085  0.1700 -0.2519
  118MOL    C8521379   6.450   0.387   4.008 -0.3505  0.2765  0.1920
  118MOL    O8621380   6.421   0.468   3.914  0.3250 -0.3952 -0.1536
  118MOL    O8721381   6.531   0.406   4.109  0.1653  0.3096 -0.2252
  118MOL    H8821382   6.326   0.256   4.109  0.7496  0.2036  0.2628
  118MOL    H8921383   6.262   0.113   3.892  0.6815 -0.4064  0.8925
  118MOL    H9021384   6.216   0.293   3.888 -0.1341  1.2030  0.3304
  118MOL    H9121385   6.353   0.238   3.803  0.1953 -2.7576 -0.1380
  118MOL    C9221386   6.619   0.520   4.109 -0.3471  0.4050 -0.4156
  118MOL    C9321387   6.712   0.487   4.222 -0.6683 -0.4704  0.2464
  118MOL    C9421388   6.536   0.655   4.134 -0.0710  0.3840 -0.0873
  118MOL    O9521389   6.483   0.680   4.245 -0.4347 -0.0267 -0.2507
  118MOL    O9621390   6.527   0.731   4.027 -0.2487 -0.0899 -0.3486
  118MOL    H9721391   6.680   0.535   4.020 -1.4892  3.2034 -0.7491
  118MOL    H9821392   6.782   0.408   4.193 -0.6261 -0.4638  0.3281
  118MOL    H9921393   6.761   0.579   4.255 -1.5676 -0.3512  1.2743
  118MOL   H10021394   6.655   0.461   4.311 -2.0000  1.5953  0.0364
  118MOL   C10121395   6.477   0.869   4.037 -0.8467 -0.5119  0.8173
  118MOL   C10221396   6.462   0.897   3.891  0.4352 -0.4456  0.4088
  118MOL   C10321397   6.576   0.961   4.117 -0.3627  0.1964  0.4751
  118MOL   O10421398   6.651   0.925   4.209 -0.5142 -0.4346 -0.0472
  118MOL   O10521399   6.571   1.085   4.068  0.1167  0.0089  0.3184
  118MOL   H10621400   6.378   0.882   4.080 -1.5604 -1.3160 -0.5285
  118MOL   H10721401   6.560   0.924   3.851  0.3075 -0.9440 -0.2590
  118MOL   H10821402   6.446   0.808   3.829  2.3129 -0.7172  0.2924
  118MOL   H10921403   6.392   0.979   3.873  0.1459 -0.8658 -0.4155
  118MOL   C11021404   6.648   1.191   4.121 -0.0449 -0.6566 -0.8787
  118MOL   C11121405   6.602   1.322   4.057 -0.4651  0.0743  0.2443
  118MOL   C11221406   6.800   1.170   4.092  0.1587 -0.5428  0.0632
  118MOL   O11321407   6.841   1.113   3.989  0.1889 -0.4895 -0.1792
  118MOL   O11421408   6.880   1.231   4.183  0.2335 -0.4031 -0.3344
  118MOL   H11521409   6.635   1.199   4.229  3.3579  0.0286 -0.4631
  118MOL   H11621410   6.644   1.410   4.105  0.2984 -0.0032 -0.2798
  118MOL   H11721411   6.625   1.324   3.951  1.5870 -2.3579  0.6168
  118MOL   H11821412   6.494   1.332   4.070 -0.4542 -0.1749  0.5441
  118MOL   C11921413   7.022   1.252   4.150 -0.5229  0.0470  0.8489
  118MOL   C12021414   7.102   1.281   4.283 -0.1020  0.7917 -0.0857
  118MOL   C12121415   7.036   1.376   4.061  0.7803  0.0580 -0.6257
  118MOL   O12221416   6.957   1.472   4.066  0.3893 -0.1467 -0.0183
  118MOL   O12321417   7.129   1.366   3.975  0.2638  0.1187 -0.3372
  118MOL   H12421418   7.054   1.160   4.102 -0.1826  1.5972 -2.0444
  118MOL   H12521419   7.087   1.372   4.341 -0.7070  0.9684 -0.5113
  118MOL   H12621420   7.081   1.199   4.352  0.8383  1.1913  0.6857
  118MOL   H12721421   7.209   1.272   4.267 -0.4059 -1.9319 -0.9282
  118MOL   C12821422   7.160   1.471   3.890  0.5428  0.7120 -0.4743
  118MOL   C12921423   7.065   1.471   3.764 -0.3359  0.0945  0.9996
  118MOL   C13021424   7.307   1.462   3.863 -0.1352 -0.0027  0.2688
  118MOL   O13121425   7.390   1.541   3.912  0.2968 -0.2252 -0.3801
  118MOL   O13221426   7.341   1.364   3.781  0.6097  0.3797 -0.3001
  118MOL   H13321427   7.152   1.563   3.949 -1.3776 -0.2591  0.8325
  118MOL   H13421428   7.127   1.481   3.675 -1.7207  1.8580  0.2017
  118MOL   H13521429   7.004   1.380   3.766 -0.9430  0.4888  0.4343
  118MOL   H13621430   7.007   1.563   3.760 -0.0850  0.2536  1.0571
  118MOL   C13721431   7.477   1.332   3.754 -0.5603  0.5620  0.0735
  118MOL   C13821432   7.480   1.268   3.621  0.1302  0.4371 -0.4138
  118MOL   C13921433   7.528   1.237   3.858 -0.3073  0.4455  0.4488
  118MOL   O14021434   7.637   1.265   3.917  0.2067  0.5001 -0.3179
  118MOL   O14121435   7.460   1.125   3.873  0.3105 -0.1225  0.0549
  118MOL   H14221436   7.540   1.421   3.749 -0.7094  0.7845  1.8434
  118MOL   H14321437   7.438   1.168   3.626 -0.5679  0.7217 -0.6029
  118MOL   H14421438   7.426   1.329   3.549 -0.3161  0.2402 -0.2458
  118MOL   H14521439   7.587   1.264   3.599 -0.2506 -0.9814 -2.0818
  118MOL   C14621440   7.492   1.034   3.975 -0.0815  0.0728 -0.1922
  118MOL   C14721441   7.434   0.900   3.912 -0.1953  0.2034 -0.7373
  118MOL   C14821442   7.423   1.078   4.102 -0.0723 -0.0399 -0.2297
  118MOL   O14921443   7.321   1.149   4.094  0.1392  0.0225  0.4451
  118MOL   O15021444   7.466   1.030   4.215  0.1449  0.5526 -0.2047
  118MOL   H15121445   7.600   1.020   3.982  0.0948  1.8057  0.9005
  118MOL   H15221446   7.456   0.817   3.980  0.5806  1.9143  1.1695
  118MOL   H15321447   7.326   0.909   3.903 -0.5119 -2.4151  0.0204
  118MOL   H15421448   7.481   0.878   3.816  0.7968  0.0133 -0.2225
  118MOL   C15521449   7.398   1.044   4.336 -0.1317 -0.1987  0.7021
  118MOL   C15621450   7.511   1.029   4.437  0.3717  0.0870  0.7017
  118MOL   C15721451   7.293   0.938   4.361  0.1945 -0.3140  0.3180
  118MOL   O15821452   7.304   0.850   4.448 -0.0046  0.2730  0.3294
  118MOL   O15921453   7.183   0.946   4.271 -0.3886 -0.1361  0.1751
  118MOL   H16021454   7.356   1.144   4.347  0.5541  0.1477  0.1775
  118MOL   H16121455   7.540   0.924   4.440 -1.7704 -0.5886 -0.9607
  118MOL   H16221456   7.601   1.088   4.416  2.2682 -3.1886 -0.8860
  118MOL   H16321457   7.482   1.036   4.541  3.5961 -0.2384  1.6798
  118MOL   C16421458   7.087   0.838   4.259  0.1644 -0.3311 -0.2085
  118MOL   C16521459   6.990   0.869   4.149 -0.1631  0.3284  0.4570
  118MOL   C16621460   7.004   0.823   4.386  0.2189  0.3887  0.1497
  118MOL   O16721461   6.982   0.707   4.425 -0.1673  0.3290 -1.2345
  118MOL   O16821462   6.970   0.936   4.445  0.1163 -0.5920  0.0431
  118MOL   H16921463   7.143   0.745   4.242 -0.2068 -0.3131 -1.6319
  118MOL   H17021464   7.030   0.942   4.079 -1.5855 -0.2811 -1.0485
  118MOL   H17121465   6.950   0.779   4.101 -1.0932 -0.5871  2.8601
  118MOL   H17221466   6.891   0.904   4.177 -0.6676  2.2171 -3.3148
  118MOL   C17321467   6.878   0.942   4.555 -0.3311 -0.2660 -0.0701
  118MOL   C17421468   6.839   1.090   4.577  0.0838 -0.4068 -0.3559
  118MOL   C17521469   6.929   0.867   4.672 -0.2989 -0.8106  0.1594
  118MOL   O17621470   6.868   0.783   4.731  0.1133 -0.2877 -0.0428
  118MOL   O17721471   7.045   0.927   4.719 -0.8394 -0.1008  0.1392
  118MOL   H17821472   6.790   0.888   4.517 -0.0855 -1.6359  1.2388
  118MOL   H17921473   6.927   1.154   4.579 -0.2589  0.0769 -0.6212
  118MOL   H18021474   6.779   1.120   4.491  1.4389  1.2535 -0.7371
  118MOL   H18121475   6.786   1.110   4.669 -0.2168 -2.0944 -0.1422
  118MOL   H18221476   7.090   0.878   4.787 -1.8667 -0.9233  0.2362
  119MOL     C121477   1.278   3.885   0.503  0.3829 -0.0892  0.7612
  119MOL     C221478   1.269   3.824   0.362  0.1516 -0.3228 -1.4276
  119MOL     C321479   1.393   3.983   0.519 -0.2606 -0.5486  0.1181
  119MOL     O421480   1.444   4.027   0.419 -0.3555 -0.6433 -0.0596
  119MOL     O521481   1.426   4.011   0.651 -0.0249  0.8121 -0.2315
  119MOL     H621482   1.182   3.929   0.530 -0.1886 -0.5472 -0.4741
  119MOL     H721483   1.252   3.915   0.303  2.3514  0.5348 -0.8155
  119MOL     H821484   1.361   3.782   0.320  2.1508  2.4929 -0.0793
  119MOL     H921485   1.189   3.753   0.346 -0.0582  0.0453 -2.0662
  119MOL    H1021486   1.293   3.797   0.566 -2.8590 -0.2368  1.3989
  119MOL    C1121487   1.534   4.100   0.687  0.4508 -0.1242 -0.1448
  119MOL    C1221488   1.531   4.114   0.837  0.0811 -0.9077 -0.3229
  119MOL    C1321489   1.515   4.243   0.622 -0.3883  0.2198  0.1257
  119MOL    O1421490   1.586   4.279   0.531  0.3056  0.7346  0.1689
  119MOL    O1521491   1.393   4.294   0.664  0.2793  0.4620 -0.1182
  119MOL    H1621492   1.620   4.042   0.655 -0.2944 -0.4542 -1.6257
  119MOL    H1721493   1.524   4.011   0.871 -0.0365 -0.8409 -0.1443
  119MOL    H1821494   1.630   4.152   0.865 -1.1736  0.1074  3.0604
  119MOL    H1921495   1.454   4.179   0.879  0.2462  0.3174 -1.8813
  119MOL    C2021496   1.320   4.395   0.585 -0.1349 -0.0739  0.0571
  119MOL    C2121497   1.257   4.489   0.689  0.0398 -0.4312 -0.0783
  119MOL    C2221498   1.220   4.311   0.505 -0.2634 -0.4924  0.2669
  119MOL    O2321499   1.149   4.230   0.564 -0.3654 -0.3621 -0.4105
  119MOL    O2421500   1.205   4.345   0.376  0.2790  0.8305 -0.0667
  119MOL    H2521501   1.395   4.446   0.525  0.8409 -2.3785 -0.7567
  119MOL    H2621502   1.331   4.549   0.741 -1.2360 -0.5334  1.8965
  119MOL    H2721503   1.192   4.559   0.638 -0.6447 -0.7079  0.4159
  119MOL    H2821504   1.202   4.440   0.769  0.6693 -1.1233 -0.0550
  119MOL    C2921505   1.105   4.278   0.292 -0.1916 -0.8913 -0.6618
  119MOL    C3021506   1.173   4.226   0.170  0.5785 -0.4883  0.4711
  119MOL    C3121507   0.993   4.382   0.267  0.0470  0.5151  0.2502
  119MOL    O3221508   1.003   4.502   0.293  0.1815  0.0800 -0.0630
  119MOL    O3321509   0.882   4.320   0.217  0.0267 -0.4516  0.0641
  119MOL    H3421510   1.066   4.186   0.335 -1.9189 -0.5670 -1.5120
  119MOL    H3521511   1.116   4.144   0.125 -0.9951  0.3709  0.8516
  119MOL    H3621512   1.184   4.297   0.088 -0.2018 -1.3176 -0.3742
  119MOL    H3721513   1.265   4.183   0.207 -1.1068 -2.7030  2.2399
  119MOL    C3821514   0.758   4.387   0.180 -0.2126  0.6764 -0.0103
  119MOL    C3921515   0.781   4.503   0.087  0.1513  0.1236 -0.3717
  119MOL    C4021516   0.685   4.430   0.310  0.4782  0.3156 -0.8070
  119MOL    O4121517   0.706   4.372   0.422  0.1821  0.3629 -0.1569
  119MOL    O4221518   0.588   4.515   0.283  0.3408  0.8844 -0.1106
  119MOL    H4321519   0.689   4.320   0.130  0.8487  1.1109 -2.1102
  119MOL    H4421520   0.689   4.560   0.078  0.1795  0.3251  0.6402
  119MOL    H4521521   0.855   4.571   0.131  0.0833 -1.1230  1.7264
  119MOL    H4621522   0.812   4.461   8.139  1.1568 -1.5519  0.6586
  119MOL    C4721523   0.503   4.561   0.385  1.2508 -0.8946  0.6163
  119MOL    C4821524   0.399   4.451   0.425 -0.0125  0.1590 -0.4388
  119MOL    C4921525   0.437   4.697   0.347 -0.1772 -0.3729  1.2808
  119MOL    O5021526   0.434   4.739   0.229  0.8667  0.2283 -0.2470
  119MOL    O5121527   0.390   4.755   0.453  0.1250  0.5964 -0.0295
  119MOL    H5221528   0.561   4.591   0.472  2.2511 -0.0582 -0.3253
  119MOL    H5321529   0.330   4.490   0.500 -1.1787  0.2849 -1.5492
  119MOL    H5421530   0.341   4.416   0.339 -0.4634  1.4667 -0.6794
  119MOL    H5521531   0.443   4.358   0.459 -0.2384  0.3389  0.3573
  119MOL    C5621532   0.316   4.879   0.453 -0.6503 -0.7273  0.5019
  119MOL    C5721533   0.337   4.936   0.587 -0.1833 -0.6055 -0.8208
  119MOL    C5821534   0.166   4.859   0.419 -0.1989  0.2288 -0.5903
  119MOL    O5921535   0.122   4.753   0.385  0.5256  0.0153 -0.1750
  119MOL    O6021536   0.095   4.978   0.412 -0.4905  0.2328  0.1649
  119MOL    H6121537   0.357   4.948   0.379  3.3407  0.4465  3.6132
  119MOL    H6221538   0.287   4.872   0.660 -0.9853  1.1748  0.2264
  119MOL    H6321539   0.441   4.953   0.616 -0.8752  2.6881 -0.1336
  119MOL    H6421540   0.287   5.030   0.607  2.0216  0.4004  0.0738
  119MOL    C6521541   8.098   4.973   0.407  0.3443 -0.2376 -0.2606
  119MOL    C6621542   8.053   5.081   0.311 -0.0762  0.6945  0.4661
  119MOL    C6721543   8.037   4.983   0.544 -0.1465 -0.3243 -0.2059
  119MOL    O6821544   7.947   5.063   0.575 -0.7086  0.0277  0.1116
  119MOL    O6921545   8.090   4.901   0.629 -0.1615 -0.2948 -0.1779
  119MOL    H7021546   8.059   4.877   0.373 -0.2328 -0.4472  0.9622
  119MOL    H7121547   7.946   5.091   0.298  0.2517  2.9029 -0.7905
  119MOL    H7221548   8.086   5.181   0.341  1.7297 -0.0245  0.9109
  119MOL    H7321549   8.089   5.082   0.208  0.1794 -1.2342  0.5277
  119MOL    C7421550   8.061   4.913   0.769 -0.1981  0.3907  0.3953
  119MOL    C7521551   8.137   5.027   0.836  0.4454 -0.2293  0.3826
  119MOL    C7621552   8.097   4.782   0.830  0.4651 -0.7929  0.2213
  119MOL    O7721553   8.022   4.710   0.899 -0.4126 -0.2510  0.7058
  119MOL    O7821554   0.067   4.725   0.790 -0.2367 -0.0700 -0.6559
  119MOL    H7921555   7.953   4.921   0.783 -0.2518 -0.2342  0.3773
  119MOL    H8021556   8.105   5.125   0.801  1.2187  0.1632  0.7576
  119MOL    H8121557   8.115   5.018   0.942  1.3154 -2.1107  0.4166
  119MOL    H8221558   0.098   5.017   0.827  0.5652 -0.0119  1.5379
  119MOL    C8321559   0.111   4.597   0.837  0.1115  0.2605  0.0165
  119MOL    C8421560   0.264   4.618   0.819 -0.1110  0.5521  0.0886
  119MOL    C8521561   0.067   4.488   0.741 -0.1938  0.1591  0.0570
  119MOL    O8621562   0.026   4.378   0.784 -0.1894  0.4783  0.3438
  119MOL    O8721563   0.076   4.534   0.606  0.0497  0.0638  0.4232
  119MOL    H8821564   0.091   4.581   0.943 -0.1682  2.0561  0.2540
  119MOL    H8921565   0.315   4.522   0.833 -0.1143  0.7589  1.6357
  119MOL    H9021566   0.293   4.666   0.726  3.5324 -2.6561 -0.5691
  119MOL    H9121567   0.303   4.685   0.896  0.6899  1.8798 -1.4408
  119MOL    C9221568   0.003   4.480   0.496 -0.3168  0.2134  0.0998
  119MOL    C9321569   8.012   4.542   0.509 -0.8789  0.0472  0.1787
  119MOL    C9421570   8.147   4.324   0.488  0.0675  0.2433  0.2716
  119MOL    O9521571   8.043   4.259   0.463  0.1950 -0.2335  0.2782
  119MOL    O9621572   0.121   4.272   0.510  0.0587 -0.0899  0.6398
  119MOL    H9721573   0.055   4.521   0.409 -0.4149  1.3715  0.5761
  119MOL    H9821574   7.961   4.505   0.598 -1.3988 -0.2437 -0.2333
  119MOL    H9921575   8.038   4.648   0.510 -0.4119 -0.0699  0.2708
  119MOL   H10021576   7.953   4.521   0.420  2.2017  0.0747 -1.9363
  119MOL   C10121577   0.125   4.126   0.517  0.7114 -0.0545 -0.1328
  119MOL   C10221578   0.262   4.109   0.579 -0.2002  0.1136  0.7580
  119MOL   C10321579   0.121   4.050   0.382 -1.0899 -0.0329  0.7184
  119MOL   O10421580   0.127   4.105   0.274  0.4960  0.0567  0.0693
  119MOL   O10521581   0.129   3.918   0.399  0.3552 -0.2983  0.3924
  119MOL   H10621582   0.052   4.084   0.586  0.5121 -1.3176 -1.0757
  119MOL   H10721583   0.269   4.011   0.625 -0.6174  0.4321  1.5293
  119MOL   H10821584   0.343   4.120   0.508 -0.4900 -0.6899  0.3027
  119MOL   H10921585   0.276   4.176   0.664  0.3549  0.8595  0.0799
  119MOL   C11021586   0.134   3.824   0.294 -0.0232  0.3876  0.1534
  119MOL   C11121587   0.073   3.691   0.348  0.0690  0.0044 -0.6243
  119MOL   C11221588   0.281   3.800   0.248  0.5197 -0.4101 -0.0380
  119MOL   O11321589   0.374   3.812   0.332 -0.1638 -0.1627 -0.0918
  119MOL   O11421590   0.292   3.772   0.125  0.6450 -0.1998  0.1883
  119MOL   H11521591   0.084   3.861   0.204 -0.3791  1.6726  0.8811
  119MOL   H11621592   0.036   3.639   0.260  0.5054  0.2274 -0.9382
  119MOL   H11721593   0.143   3.632   0.407 -1.3673 -0.4032  0.7259
  119MOL   H11821594   8.138   3.710   0.417  0.3112  2.0405 -0.8517
  119MOL   C11921595   0.422   3.749   0.063 -0.0959 -0.2421  0.4824
  119MOL   C12021596   0.413   3.781   8.059 -0.3692  0.3203 -0.2862
  119MOL   C12121597   0.470   3.606   0.101  0.3859 -0.5817  0.2513
  119MOL   O12221598   0.405   3.524   0.169 -0.1520 -0.0234  0.4619
  119MOL   O12321599   0.594   3.591   0.057  0.7204  0.2459 -0.8758
  119MOL   H12421600   0.507   3.804   0.104  0.0274 -0.4410  0.4946
  119MOL   H12521601   0.320   3.740   8.019 -1.4107  3.6076 -1.4057
  119MOL   H12621602   0.417   3.886   8.031  3.2214  0.2802 -0.1588
  119MOL   H12721603   0.498   3.740   8.005  0.2741  1.3830 -0.1063
  119MOL   C12821604   0.649   3.461   0.030  0.1504  0.1816  0.2788
  119MOL   C12921605   0.745   3.420   0.153 -0.5155  0.1975  0.3688
  119MOL   C13021606   0.718   3.468   8.038 -0.0528 -0.1881  0.2491
  119MOL   O13121607   0.654   3.503   7.938 -0.4732 -0.3954  0.4648
  119MOL   O13221608   0.843   3.439   8.043  0.2195 -0.0824  0.2731
  119MOL   H13321609   0.566   3.390   0.023 -1.9297  2.3963  1.7365
  119MOL   H13421610   0.832   3.485   0.155 -1.9635  2.2186 -0.5126
  119MOL   H13521611   0.694   3.412   0.249  0.8908 -0.3489  1.0879
  119MOL   H13621612   0.786   3.319   0.148 -2.2921 -0.5886  1.2913
  119MOL   C13721613   0.931   3.471   7.938  0.1300 -0.2833  0.5691
  119MOL   C13821614   1.044   3.368   7.937 -0.5339 -0.6472 -0.4399
  119MOL   C13921615   0.983   3.614   7.961  0.8134 -0.4565 -0.2076
  119MOL   O14021616   0.954   3.711   7.883 -0.0405 -0.1164 -0.8544
  119MOL   O14121617   1.048   3.631   8.079  0.2219 -0.2652  0.1192
  119MOL   H14221618   0.892   3.465   7.836  0.0470  1.2254  0.4895
  119MOL   H14321619   1.073   3.342   8.039 -1.6200 -3.2584 -0.7375
  119MOL   H14421620   1.008   3.275   7.892 -0.2151 -0.2584 -1.5031
  119MOL   H14521621   1.117   3.395   7.861  0.6447 -1.1458  0.4934
  119MOL   C14621622   1.089   3.762   8.137  0.7745 -0.3528  0.0353
  119MOL   C14721623   0.974   3.824   0.070  0.5042 -0.2006  0.2631
  119MOL   C14821624   1.153   3.863   8.041  0.1730 -0.0861 -0.6173
  119MOL   O14921625   1.127   3.982   8.033 -0.6973 -0.6419 -0.4459
  119MOL   O15021626   1.255   3.811   7.953  0.5131 -0.5811  0.2407
  119MOL   H15121627   1.174   3.743   0.056  0.1648 -0.5205  0.7699
  119MOL   H15221628   1.012   3.908   0.128  1.1207 -0.3443  0.0725
  119MOL   H15321629   0.891   3.865   0.012 -0.1001  0.1128  1.3281
  119MOL   H15421630   0.940   3.750   0.141  0.9845 -2.2798 -1.6167
  119MOL   C15521631   1.315   3.887   7.851  0.2643  0.0048  0.0544
  119MOL   C15621632   1.382   3.782   7.757  0.0629 -0.1610 -0.2207
  119MOL   C15721633   1.427   3.983   7.907  0.4051  0.3431 -0.5409
  119MOL   O15821634   1.513   4.020   7.830 -0.1522  0.4708  0.1601
  119MOL   O15921635   1.431   4.001   8.043  0.0318 -0.2238  0.1057
  119MOL   H16021636   1.250   3.941   7.783  0.3956  0.6279  0.4174
  119MOL   H16121637   1.296   3.740   7.705 -0.4975  0.4819  0.1767
  119MOL   H16221638   1.457   3.814   7.685 -0.4178 -1.8869 -1.5293
  119MOL   H16321639   1.425   3.696   7.809  1.7245 -0.2653 -1.7074
  119MOL   C16421640   1.543   4.047   8.115  0.5852  0.0486 -0.0844
  119MOL   C16521641   1.520   3.989   0.107  0.4831 -0.3527 -0.4531
  119MOL   C16621642   1.545   4.201   8.124 -0.0726 -0.5451 -0.0399
  119MOL   O16721643   1.460   4.283   8.100 -0.1579  0.4176  0.7335
  119MOL   O16821644   1.661   4.229   0.029 -0.2486 -0.0806  0.1345
  119MOL   H16921645   1.631   3.999   8.071 -0.4288 -1.2377 -0.7244
  119MOL   H17021646   1.523   3.880   0.109  0.6459 -0.3397  0.4480
  119MOL   H17121647   1.591   4.022   0.183 -0.8084  1.1840  0.1204
  119MOL   H17221648   1.422   4.026   0.138  0.7343  2.8617 -3.1974
  119MOL   C17321649   1.692   4.356   0.078  0.1071  0.5011 -0.1967
  119MOL   C17421650   1.840   4.354   0.078  0.5798  0.2463  0.4952
  119MOL   C17521651   1.627   4.365   0.220  0.6049 -0.0618  0.1617
  119MOL   O17621652   1.566   4.458   0.271  0.9832  0.2545  0.1349
  119MOL   O17721653   1.660   4.254   0.295  0.6478  0.2709 -0.3897
  119MOL   H17821654   1.662   4.441   0.017  1.1313  0.9083 -0.1405
  119MOL   H17921655   1.887   4.270   0.129 -1.7089 -1.5597 -0.2862
  119MOL   H18021656   1.883   4.340   8.127 -0.9349 -0.3297 -0.0918
  119MOL   H18121657   1.863   4.444   0.135  1.6045 -0.5559  1.3533
  119MOL   H18221658   1.617   4.242   0.378 -1.3142  0.2542 -1.3909
  120MOL     C121659   6.724   2.056   1.353 -0.2292 -0.2089 -0.0674
  120MOL     C221660   6.789   1.933   1.287  0.3189  0.2464  0.0218
  120MOL     C321661   6.669   2.010   1.488 -0.2380  1.0573 -0.3002
  120MOL     O421662   6.740   2.009   1.587 -0.5051  0.1169 -0.2784
  120MOL     O521663   6.547   1.944   1.477 -0.2665  0.5861  0.2323
  120MOL     H621664   6.809   2.124   1.352 -0.3529 -0.0434 -1.8842
  120MOL     H721665   6.864   1.883   1.348 -0.8864 -0.1695  1.1963
  120MOL     H821666   6.717   1.861   1.248  0.3991 -0.6733  1.5573
  120MOL     H921667   6.845   1.962   1.198 -3.0979  3.2457 -1.3054
  120MOL    H1021668   6.644   2.095   1.289  0.0454 -1.9381 -1.5163
  120MOL    C1121669   6.485   1.858   1.584  0.3979  0.0136  1.0321
  120MOL    C1221670   6.497   1.713   1.540  0.0673 -0.0423  0.0361
  120MOL    C1321671   6.344   1.906   1.620 -0.2064  0.3703  0.2310
  120MOL    O1421672   6.249   1.825   1.634  0.2858 -0.2124  0.5838
  120MOL    O1521673   6.336   2.035   1.638 -0.1891  0.7770 -0.1236
  120MOL    H1621674   6.548   1.862   1.673  0.6587 -3.8715  1.0830
  120MOL    H1721675   6.426   1.711   1.458  0.5115  2.5613 -0.4909
  120MOL    H1821676   6.594   1.678   1.504 -0.5315 -4.2136  2.2820
  120MOL    H1921677   6.472   1.650   1.625  1.8877 -3.0312 -1.5908
  120MOL    C2021678   6.212   2.099   1.669 -0.8933  0.6614 -0.0029
  120MOL    C2121679   6.229   2.246   1.650 -0.4732  0.2363 -0.5511
  120MOL    C2221680   6.164   2.060   1.805 -0.0960 -1.6258  0.8078
  120MOL    O2321681   6.070   1.982   1.817  0.1787 -0.2795  0.2917
  120MOL    O2421682   6.222   2.129   1.905  0.1003 -0.1592  0.1066
  120MOL    H2521683   6.136   2.063   1.599 -0.6433 -0.2292  0.1901
  120MOL    H2621684   6.254   2.271   1.547 -0.1661  0.5621 -0.3974
  120MOL    H2721685   6.145   2.310   1.676  0.7411  1.4404  0.4940
  120MOL    H2821686   6.314   2.284   1.707 -0.9199  1.1188 -0.4687
  120MOL    C2921687   6.174   2.122   2.043  0.7805 -0.2527 -0.3369
  120MOL    C3021688   6.216   2.249   2.120  0.3376  0.6223  0.2733
  120MOL    C3121689   6.228   1.984   2.104  1.7631 -0.7584 -0.2785
  120MOL    O3221690   6.300   1.909   2.039 -0.0676  0.8051  0.1285
  120MOL    O3321691   6.185   1.965   2.231 -0.0791 -0.2793  0.4458
  120MOL    H3421692   6.065   2.127   2.039  0.7782  0.7606  0.7762
  120MOL    H3521693   6.181   2.330   2.056 -2.6792 -0.4680  0.4714
  120MOL    H3621694   6.179   2.269   2.221  0.4737  1.4316  0.1694
  120MOL    H3721695   6.325   2.250   2.122  0.3644 -1.3112  1.0266
  120MOL    C3821696   6.196   1.835   2.302  0.8219 -0.7253  0.1430
  120MOL    C3921697   6.103   1.840   2.424 -0.3592 -0.2882  0.1743
  120MOL    C4021698   6.336   1.781   2.328  0.7141 -0.2248 -0.6564
  120MOL    O4121699   6.371   1.679   2.275 -0.1594 -0.7363  0.2639
  120MOL    O4221700   6.411   1.855   2.413 -0.2698 -0.4234  0.4778
  120MOL    H4321701   6.158   1.761   2.232  0.6836  1.3106 -1.9723
  120MOL    H4421702   6.130   1.754   2.486 -0.7170 -0.3081  0.3029
  120MOL    H4521703   6.135   1.930   2.478 -1.3156 -0.1034  0.4390
  120MOL    H4621704   5.999   1.837   2.393 -0.5944 -4.2947  1.1346
  120MOL    C4721705   6.542   1.819   2.450 -1.3381  0.6052  0.1542
  120MOL    C4821706   6.568   1.850   2.592 -0.5204 -0.2226  0.2920
  120MOL    C4921707   6.646   1.870   2.352 -0.5107 -0.5556  0.3407
  120MOL    O5021708   6.747   1.931   2.391 -0.3263 -0.2764  0.4513
  120MOL    O5121709   6.606   1.857   2.227 -0.1167  0.4331  0.4938
  120MOL    H5221710   6.552   1.710   2.450 -0.7399  0.6479  1.5131
  120MOL    H5321711   6.671   1.831   2.624  1.0348  1.7676 -3.2147
  120MOL    H5421712   6.569   1.959   2.588 -2.3183 -0.2464 -1.2821
  120MOL    H5521713   6.491   1.817   2.662  0.8214 -1.4220  1.2420
  120MOL    C5621714   6.695   1.896   2.119  0.0179  0.7665  0.3042
  120MOL    C5721715   6.644   2.021   2.044  0.2463 -0.3261 -0.1385
  120MOL    C5821716   6.716   1.774   2.032  0.3786  0.2371  0.8487
  120MOL    O5921717   6.824   1.761   1.972 -0.1713  0.0247  0.7357
  120MOL    O6021718   6.603   1.701   2.021  0.3197 -0.5494  0.4409
  120MOL    H6121719   6.798   1.916   2.146  0.9817 -0.9323 -2.0546
  120MOL    H6221720   6.719   2.059   1.974  1.7318 -0.4941  1.3365
  120MOL    H6321721   6.555   1.997   1.985  0.2239 -0.1668 -0.1696
  120MOL    H6421722   6.621   2.108   2.106  1.2379  2.1247 -3.0713
  120MOL    C6521723   6.592   1.569   1.964  0.9567 -0.6384  0.4913
  120MOL    C6621724   6.442   1.554   1.922  0.0019 -0.3094 -0.7008
  120MOL    C6721725   6.662   1.468   2.056 -0.4310 -1.4692  0.3415
  120MOL    O6821726   6.755   1.400   2.018 -0.5014 -0.0740  0.1244
  120MOL    O6921727   6.610   1.475   2.185  0.7705 -0.5789  0.4095
  120MOL    H7021728   6.657   1.591   1.879 -1.0161 -0.1616 -0.9342
  120MOL    H7121729   6.433   1.461   1.867  0.4022 -0.6135 -0.2556
  120MOL    H7221730   6.391   1.549   2.018  0.4557 -2.3896 -0.5513
  120MOL    H7321731   6.404   1.642   1.869 -1.0449 -0.2423  0.1528
  120MOL    C7421732   6.657   1.385   2.288 -0.3826  0.3395 -0.1063
  120MOL    C7521733   6.540   1.297   2.350 -0.5102 -0.1107 -0.9364
  120MOL    C7621734   6.728   1.480   2.390  0.2316  0.4301  0.1826
  120MOL    O7721735   6.762   1.595   2.369  0.1921 -0.2668  0.2021
  120MOL    O7821736   6.747   1.412   2.505 -0.3552  0.1377  0.3637
  120MOL    H7921737   6.739   1.320   2.258 -0.7799 -0.2656  0.1047
  120MOL    H8021738   6.561   1.269   2.453 -0.6335  0.3178 -0.7914
  120MOL    H8121739   6.462   1.372   2.368 -0.1731  0.0057  0.0632
  120MOL    H8221740   6.513   1.207   2.294 -0.2203 -0.2155 -0.9088
  120MOL    C8321741   6.789   1.481   2.630  0.5454 -0.4162  0.3791
  120MOL    C8421742   6.929   1.435   2.676 -0.5463 -0.2046 -1.0290
  120MOL    C8521743   6.674   1.453   2.727  0.6234  0.1087 -0.3106
  120MOL    O8621744   6.691   1.377   2.825  0.1035  0.6458 -0.1868
  120MOL    O8721745   6.557   1.505   2.684  0.6585  0.5074  0.7661
  120MOL    H8821746   6.776   1.589   2.624 -1.3613 -0.5628  1.6461
  120MOL    H8921747   6.956   1.346   2.619  1.7347  0.4923 -1.0627
  120MOL    H9021748   6.998   1.517   2.659 -0.1374 -0.3643 -0.1758
  120MOL    H9121749   6.951   1.427   2.782 -1.4144  0.9908 -0.7434
  120MOL    C9221750   6.436   1.494   2.761 -0.5724 -0.5246  0.0832
  120MOL    C9321751   6.299   1.537   2.693  0.4242  0.1568  0.5520
  120MOL    C9421752   6.456   1.565   2.898  0.0020 -0.3594 -0.1842
  120MOL    O9521753   6.474   1.505   3.006 -0.8196 -0.1105 -0.0406
  120MOL    O9621754   6.452   1.701   2.885 -0.0951  0.8164  0.0151
  120MOL    H9721755   6.424   1.389   2.788 -0.3638 -0.4149  0.6033
  120MOL    H9821756   6.326   1.615   2.621  0.9435  1.2402  1.8940
  120MOL    H9921757   6.259   1.446   2.648 -0.9181  1.2032 -0.3810
  120MOL   H10021758   6.225   1.588   2.754  0.6903  1.5839 -0.2983
  120MOL   C10121759   6.516   1.777   2.991 -0.9652  0.1891 -0.4689
  120MOL   C10221760   6.466   1.926   2.984  0.0648  0.2489 -0.0909
  120MOL   C10321761   6.669   1.775   2.977  0.4980  0.6484  0.6108
  120MOL   O10421762   6.725   1.739   2.869 -0.4283 -0.1592  0.0749
  120MOL   O10521763   6.732   1.790   3.091  0.0967  0.4285  0.0385
  120MOL   H10621764   6.483   1.737   3.087  0.1905 -0.0308 -0.1478
  120MOL   H10721765   6.357   1.923   2.992  0.1163 -2.1048  0.3249
  120MOL   H10821766   6.504   1.982   3.070  2.6304 -3.7283  1.5153
  120MOL   H10921767   6.508   1.975   2.897  0.9843  0.5538  0.5103
  120MOL   C11021768   6.867   1.767   3.097 -0.2803 -0.0052 -0.2740
  120MOL   C11121769   6.913   1.783   3.242  0.0844  0.0111  0.3590
  120MOL   C11221770   6.962   1.860   3.005 -0.2437  0.2013  0.1081
  120MOL   O11321771   6.932   1.976   2.979 -0.5062  0.4458 -0.2294
  120MOL   O11421772   7.077   1.791   2.957 -0.5798 -0.0098 -0.0979
  120MOL   H11521773   6.882   1.662   3.074  0.2729  0.1465 -0.6086
  120MOL   H11621774   6.855   1.718   3.307 -1.1331  1.1948  0.4791
  120MOL   H11721775   7.019   1.755   3.245 -0.0603 -0.5266  0.3770
  120MOL   H11821776   6.911   1.889   3.269 -2.0103  0.1049 -0.0671
  120MOL   C11921777   7.171   1.844   2.864 -0.2194  0.0664  0.3878
  120MOL   C12021778   7.276   1.741   2.841 -0.2352 -0.5841  0.5873
  120MOL   C12121779   7.237   1.971   2.906 -0.2341 -0.3893 -0.0854
  120MOL   O12221780   7.265   2.058   2.822  0.6383  0.4371  0.2265
  120MOL   O12321781   7.277   1.969   3.033  0.2987 -0.3273 -0.0608
  120MOL   H12421782   7.113   1.865   2.775 -1.1952  0.0528  1.0108
  120MOL   H12521783   7.229   1.653   2.799 -1.2311  0.1044  0.2628
  120MOL   H12621784   7.346   1.773   2.764 -2.1835  0.6415 -0.6847
  120MOL   H12721785   7.324   1.713   2.935 -0.5017  0.3633  1.0213
  120MOL   C12821786   7.355   2.070   3.092  0.2754  0.0370 -0.5968
  120MOL   C12921787   7.445   2.017   3.210 -0.3265 -0.2684 -0.0073
  120MOL   C13021788   7.263   2.188   3.141  0.3104  0.8465  0.3058
  120MOL   O13121789   7.309   2.273   3.215  0.0454  0.0542  0.0641
  120MOL   O13221790   7.129   2.172   3.123 -0.0474 -0.2610 -0.6824
  120MOL   H13321791   7.422   2.116   3.019  0.6322  1.1295  0.4139
  120MOL   H13421792   7.516   2.087   3.253  0.3696 -0.2433 -1.1793
  120MOL   H13521793   7.390   1.969   3.292  0.6545  0.0686  0.8518
  120MOL   H13621794   7.496   1.928   3.174  0.2091 -0.1904  0.5632
  120MOL   C13721795   7.040   2.275   3.156  0.2321  0.2876  0.5647
  120MOL   C13821796   6.911   2.214   3.200  0.2508  0.1178 -0.7065
  120MOL   C13921797   7.012   2.357   3.026  0.4068 -0.1064  0.1290
  120MOL   O14021798   6.915   2.430   3.008  0.4518 -0.1129 -0.0606
  120MOL   O14121799   7.110   2.337   2.931 -0.0894  0.1435  0.1437
  120MOL   H14221800   7.083   2.345   3.227  0.2470 -0.2795  1.1165
  120MOL   H14321801   6.932   2.152   3.287  0.5410  1.9868  0.5913
  120MOL   H14421802   6.836   2.285   3.236  2.8826  2.2029  0.8422
  120MOL   H14521803   6.857   2.164   3.120 -0.8480 -1.4157  0.9810
  120MOL   C14621804   7.116   2.435   2.828  0.2371  0.1905 -0.8860
  120MOL   C14721805   7.058   2.385   2.702 -0.7312  0.9774  0.1492
  120MOL   C14821806   7.264   2.479   2.804  0.0293  0.1734  0.4432
  120MOL   O14921807   7.300   2.593   2.764  0.4232  0.0714  0.1316
  120MOL   O15021808   7.347   2.374   2.829  0.1644  0.3417 -0.8321
  120MOL   H15121809   7.063   2.529   2.846  1.2835  0.4998  0.6826
  120MOL   H15221810   7.060   2.474   2.639  0.1750  3.2952  3.3628
  120MOL   H15321811   7.110   2.301   2.656 -0.2664  1.7936 -0.8420
  120MOL   H15421812   6.953   2.358   2.713 -0.3549 -0.3457  0.6120
  120MOL   C15521813   7.484   2.396   2.801  0.2560 -0.2719  0.3333
  120MOL   C15621814   7.544   2.257   2.778  0.3333 -0.2599  0.3598
  120MOL   C15721815   7.549   2.481   2.910 -0.4192 -0.2941  0.6131
  120MOL   O15821816   7.603   2.587   2.885  0.9476  0.6454 -0.6253
  120MOL   O15921817   7.568   2.415   3.032 -0.5407 -0.0607 -0.0017
  120MOL   H16021818   7.493   2.443   2.703 -2.2896  0.3377  0.3643
  120MOL   H16121819   7.651   2.261   2.754 -0.3471  1.9900 -2.4746
  120MOL   H16221820   7.532   2.197   2.869 -0.4675 -1.1239 -0.3113
  120MOL   H16321821   7.489   2.205   2.700  0.5881  0.0294 -0.0128
  120MOL   C16421822   7.646   2.477   3.139 -0.2203 -0.6255 -0.2067
  120MOL   C16521823   7.727   2.363   3.197 -0.0918  0.9824  0.3630
  120MOL   C16621824   7.547   2.532   3.244 -0.3839 -0.2638 -0.3824
  120MOL   O16721825   7.520   2.468   3.348  0.6096  0.0270  0.2873
  120MOL   O16821826   7.486   2.646   3.210  0.2245  0.1705 -0.2171
  120MOL   H16921827   7.720   2.550   3.107 -0.6807 -1.0175 -2.2339
  120MOL   H17021828   7.777   2.306   3.118 -0.4535 -0.3731  1.0902
  120MOL   H17121829   7.788   2.390   3.283 -1.6508  2.9621  0.8632
  120MOL   H17221830   7.663   2.277   3.217 -0.0948  1.2709  1.6399
  120MOL   C17321831   7.371   2.701   3.274 -0.2771  0.4824  0.0951
  120MOL   C17421832   7.387   2.731   3.425 -0.2286  0.2939 -0.1797
  120MOL   C17521833   7.249   2.613   3.235 -0.2592 -0.7520  0.0145
  120MOL   O17621834   7.181   2.562   3.324  0.3682  0.4599  0.0869
  120MOL   O17721835   7.228   2.609   3.098  0.6025  0.1260  0.1511
  120MOL   H17821836   7.363   2.799   3.227 -2.1904  0.2866  0.0035
  120MOL   H17921837   7.465   2.803   3.449  1.2048 -0.9830 -0.8899
  120MOL   H18021838   7.295   2.774   3.465 -0.8289 -1.0556 -0.0748
  120MOL   H18121839   7.389   2.639   3.483 -1.1451  1.1766  1.2889
  120MOL   H18221840   7.287   2.668   3.055  0.4977  1.0815  1.2931
  121MOL     C121841   2.973   0.354   5.697  0.0868 -0.3373 -0.2856
  121MOL     C221842   3.014   0.228   5.617 -0.1151 -0.7712 -0.4269
  121MOL     C321843   3.104   0.434   5.734 -0.3054 -0.6564 -0.2159
  121MOL     O421844   3.164   0.407   5.839  0.4220 -0.4847  0.1081
  121MOL     O521845   3.143   0.523   5.642  0.2278 -0.3755 -0.2151
  121MOL     H621846   2.914   0.421   5.636 -0.3001 -0.4990 -0.0881
  121MOL     H721847   2.928   0.206   5.555  1.9108 -0.4328 -3.4560
  121MOL     H821848   3.103   0.241   5.555 -1.0178  2.1492 -1.2185
  121MOL     H921849   3.025   0.135   5.672 -1.5130 -2.5375 -3.0716
  121MOL    H1021850   2.918   0.330   5.788  0.1938 -2.0735 -0.6589
  121MOL    C1121851   3.258   0.600   5.657  0.3575 -0.7040 -0.1825
  121MOL    C1221852   3.228   0.735   5.582  0.5628  0.6484 -0.3023
  121MOL    C1321853   3.381   0.535   5.599  0.2901 -0.9911 -0.3462
  121MOL    O1421854   3.492   0.534   5.658  0.1622 -0.1383  0.5150
  121MOL    O1521855   3.349   0.466   5.485  0.1751  0.0466  0.3883
  121MOL    H1621856   3.276   0.626   5.761  1.6082 -0.3493 -0.4801
  121MOL    H1721857   3.301   0.811   5.610  3.6910 -2.5962  0.7235
  121MOL    H1821858   3.235   0.714   5.475  0.0957 -1.3136  0.0359
  121MOL    H1921859   3.124   0.761   5.600  0.6386 -0.1101  1.2675
  121MOL    C2021860   3.443   0.372   5.424 -0.6966 -0.1283 -0.0366
  121MOL    C2121861   3.387   0.308   5.296 -0.1257  0.2085 -0.3735
  121MOL    C2221862   3.496   0.262   5.515  0.3697  0.5624  0.2623
  121MOL    O2321863   3.617   0.237   5.529  0.0983  0.0386 -0.1686
  121MOL    O2421864   3.396   0.192   5.577 -0.0643  0.3307  0.2099
  121MOL    H2521865   3.527   0.425   5.379  0.6784 -2.0024  0.2576
  121MOL    H2621866   3.449   0.233   5.247  0.6294  0.2516  0.5066
  121MOL    H2721867   3.307   0.250   5.343  2.0244 -0.7024  2.2954
  121MOL    H2821868   3.352   0.376   5.218  2.4613  1.8704 -0.1550
  121MOL    C2921869   3.418   0.087   5.670  0.0737 -0.7888  0.5205
  121MOL    C3021870   3.287   0.020   5.695 -0.2653 -0.5178  0.4924
  121MOL    C3121871   3.472   0.139   5.804  0.8453 -0.6665  0.6584
  121MOL    O3221872   3.555   0.075   5.867  0.1028 -0.0831 -0.4060
  121MOL    O3321873   3.422   0.267   5.838  0.2551  0.1272  0.3927
  121MOL    H3421874   3.489   0.018   5.623  1.8358 -0.5739  2.7689
  121MOL    H3521875   3.293   8.068   5.738  0.2196 -1.2967 -1.3008
  121MOL    H3621876   3.219   0.084   5.751  1.8033  0.6513  1.7171
  121MOL    H3721877   3.232   0.011   5.601 -1.7644  0.3785  1.2690
  121MOL    C3821878   3.453   0.342   5.955 -0.0820  0.7047 -0.2392
  121MOL    C3921879   3.607   0.376   5.955 -0.4258  0.4923  0.2646
  121MOL    C4021880   3.420   0.253   6.080 -0.0472  0.1005  0.7231
  121MOL    O4121881   3.501   0.245   6.167 -0.6145 -0.3152 -0.1293
  121MOL    O4221882   3.293   0.195   6.072 -0.1115 -0.4244 -0.4187
  121MOL    H4321883   3.394   0.433   5.963  0.8355  1.4513 -1.7413
  121MOL    H4421884   3.637   0.427   5.864  0.3583 -1.5225 -0.6221
  121MOL    H4521885   3.646   0.436   6.038  0.6212  2.2308 -1.4445
  121MOL    H4621886   3.667   0.285   5.960 -3.3705 -1.5316  0.2003
  121MOL    C4721887   3.243   0.125   6.191 -0.0946 -0.0584  0.3015
  121MOL    C4821888   3.128   0.036   6.153  0.0983  0.5653 -0.5702
  121MOL    C4921889   3.196   0.233   6.291  0.1571  0.6269  0.7445
  121MOL    O5021890   3.189   0.346   6.241 -0.0907 -0.1188 -0.4076
  121MOL    O5121891   3.157   0.185   6.414 -0.7705 -0.7461 -0.7074
  121MOL    H5221892   3.327   0.062   6.221  1.3678  0.0936 -3.2069
  121MOL    H5321893   3.132   8.136   6.055 -1.4347  0.2234 -0.4683
  121MOL    H5421894   3.123   8.100   6.224 -0.4522  0.2707 -0.9539
  121MOL    H5521895   3.033   0.087   6.165 -0.7709 -1.2061  0.1474
  121MOL    C5621896   3.076   0.266   6.498  0.1371 -0.1250 -0.1101
  121MOL    C5721897   3.097   0.211   6.638  0.2759 -0.7603 -0.5867
  121MOL    C5821898   2.929   0.273   6.445  0.0060 -0.0928  0.1739
  121MOL    O5921899   2.843   0.216   6.511  0.2792 -0.3760  0.5010
  121MOL    O6021900   2.898   0.350   6.334 -0.2509 -0.0457 -0.6149
  121MOL    H6121901   3.126   0.362   6.515 -0.9609  0.2225  1.2543
  121MOL    H6221902   3.203   0.209   6.663 -0.0873  1.7507  1.3818
  121MOL    H6321903   3.039   0.274   6.706  0.8924 -0.0914 -0.6754
  121MOL    H6421904   3.063   0.108   6.648 -1.3681 -0.1176  0.5634
  121MOL    C6521905   2.765   0.387   6.303  0.0947  0.4525  1.3507
  121MOL    C6621906   2.753   0.409   6.145  0.1312 -0.0851 -0.2827
  121MOL    C6721907   2.736   0.517   6.379 -0.1413 -0.2970 -0.6814
  121MOL    O6821908   2.770   0.526   6.496  0.2968 -0.9430  0.3537
  121MOL    O6921909   2.654   0.603   6.317  0.0506 -0.0824  0.0301
  121MOL    H7021910   2.698   0.303   6.325 -1.2602  0.4838 -2.3052
  121MOL    H7121911   2.668   0.459   6.099  0.6128 -0.9415 -2.1492
  121MOL    H7221912   2.841   0.470   6.127 -0.4473  1.4251  1.7830
  121MOL    H7321913   2.765   0.312   6.098 -0.2083 -1.4065  2.2449
  121MOL    C7421914   2.610   0.716   6.377  0.1124 -0.1093 -0.2877
  121MOL    C7521915   2.488   0.776   6.303  0.4352  0.7904  0.2263
  121MOL    C7621916   2.727   0.814   6.390 -0.7880  0.9451 -0.3052
  121MOL    O7721917   2.831   0.807   6.329  0.0465  0.0402  0.7010
  121MOL    O7821918   2.709   0.906   6.490  0.4570 -0.0047  0.3250
  121MOL    H7921919   2.587   0.691   6.480  0.1195 -0.3283 -0.3379
  121MOL    H8021920   2.498   0.783   6.195 -2.3744 -0.8830 -0.1817
  121MOL    H8121921   2.403   0.712   6.326  0.2226  1.3223  0.9313
  121MOL    H8221922   2.458   0.870   6.349  1.3816  1.5486 -0.6748
  121MOL    C8321923   2.804   0.993   6.538 -0.7105 -0.0677  0.5564
  121MOL    C8421924   2.852   1.096   6.427  0.1472 -0.0816 -0.7327
  121MOL    C8521925   2.932   0.924   6.589  0.0371  0.3705  0.9281
  121MOL    O8621926   3.042   0.982   6.580 -0.0854 -0.5314  0.1678
  121MOL    O8721927   2.909   0.815   6.658  0.2883 -0.2383 -0.9493
  121MOL    H8821928   2.764   1.054   6.619  2.4389  1.9080  0.7228
  121MOL    H8921929   2.927   1.050   6.362  0.0493 -0.6896 -0.4252
  121MOL    H9021930   2.768   1.125   6.364 -1.5968 -0.4745  1.3450
  121MOL    H9121931   2.904   1.180   6.473  1.2469  0.2842 -2.5942
  121MOL    C9221932   3.014   0.749   6.722 -0.0887  0.3842  0.2796
  121MOL    C9321933   3.108   0.670   6.628  0.0349 -0.3645  0.1992
  121MOL    C9421934   2.949   0.655   6.827  0.1482  0.0258 -0.2150
  121MOL    O9521935   2.996   0.640   6.941  0.0016 -0.5290 -0.1578
  121MOL    O9621936   2.833   0.592   6.774  0.0047  0.2704 -0.3209
  121MOL    H9721937   3.074   0.818   6.781  0.6365  1.5540 -1.7581
  121MOL    H9821938   3.204   0.721   6.615 -1.3145  2.2932  0.2126
  121MOL    H9921939   3.142   0.581   6.680  0.7625 -0.5292 -0.5435
  121MOL   H10021940   3.063   0.627   6.539  0.9249  0.5966 -0.7367
  121MOL   C10121941   2.744   0.510   6.857 -1.0060 -0.0357  0.8513
  121MOL   C10221942   2.719   0.375   6.778 -0.0153  0.2265  0.7416
  121MOL   C10321943   2.620   0.593   6.888 -0.3313 -0.1740  0.0124
  121MOL   O10421944   2.574   0.606   7.001 -0.8519 -0.7241  0.4709
  121MOL   O10521945   2.566   0.665   6.780  0.2551  0.0952 -0.6448
  121MOL   H10621946   2.797   0.494   6.951  0.2085 -2.7927 -0.2808
  121MOL   H10721947   2.809   0.327   6.740 -0.9957  0.4154 -1.9776
  121MOL   H10821948   2.667   0.302   6.840  0.4733 -0.1712  0.6850
  121MOL   H10921949   2.664   0.403   6.688  0.7295 -0.3300  0.1030
  121MOL   C11021950   2.442   0.735   6.788 -0.3409 -0.1797 -0.7341
  121MOL   C11121951   2.373   0.738   6.658 -0.1335  0.2471 -0.1260
  121MOL   C11221952   2.454   0.874   6.856 -0.9779  0.1577 -0.2947
  121MOL   O11321953   2.562   0.913   6.895  0.2490 -0.1137 -0.3250
  121MOL   O11421954   2.334   0.942   6.855 -0.0406 -0.0365  0.1626
  121MOL   H11521955   2.373   0.679   6.851 -0.0152  1.1518  0.8289
  121MOL   H11621956   2.363   0.642   6.608  0.9573  0.5887 -1.0210
  121MOL   H11721957   2.274   0.781   6.674 -0.3062 -0.1102 -0.2356
  121MOL   H11821958   2.415   0.804   6.583  0.9005  3.7634  3.3629
  121MOL   C11921959   2.324   1.074   6.908 -0.2621  0.1487 -0.3193
  121MOL   C12021960   2.391   1.179   6.820 -0.7121  0.3361 -0.8540
  121MOL   C12121961   2.349   1.087   7.061  1.1820  1.1062  0.0058
  121MOL   O12221962   2.361   0.988   7.142  0.4555  0.1293 -0.4821
  121MOL   O12321963   2.347   1.213   7.101 -0.1833 -0.2440  0.5968
  121MOL   H12421964   2.218   1.096   6.891 -0.0986  1.3367  0.1343
  121MOL   H12521965   2.374   1.279   6.860 -0.4330 -0.5376  1.4965
  121MOL   H12621966   2.500   1.177   6.816 -0.7449  0.3884 -1.8389
  121MOL   H12721967   2.354   1.176   6.718  1.7964 -2.3498 -1.7678
  121MOL   C12821968   2.375   1.249   7.244 -0.0373  1.0425  0.1321
  121MOL   C12921969   2.339   1.396   7.249  0.6478  0.5332  0.2103
  121MOL   C13021970   2.518   1.230   7.290  0.1018  0.0338 -0.5712
  121MOL   O13121971   2.586   1.143   7.234  0.3544 -0.6859  0.6041
  121MOL   O13221972   2.561   1.307   7.395 -0.0922 -0.6453 -0.3024
  121MOL   H13321973   2.311   1.187   7.307  2.5856 -0.5148  1.3115
  121MOL   H13421974   2.321   1.432   7.350 -1.0140  1.2130 -0.3191
  121MOL   H13521975   2.414   1.469   7.218 -0.5735  1.9709  0.6244
  121MOL   H13621976   2.256   1.415   7.182 -1.0410  0.4675  2.2271
  121MOL   C13721977   2.699   1.288   7.444  0.0219  0.2996  0.3209
  121MOL   C13821978   2.708   1.365   7.568  0.2396  0.9117 -0.0827
  121MOL   C13921979   2.792   1.343   7.335  0.1169 -0.0912  0.3557
  121MOL   O14021980   2.904   1.296   7.300 -0.6162 -0.1367 -0.2014
  121MOL   O14121981   2.741   1.454   7.277  0.7341 -0.3069 -0.3395
  121MOL   H14221982   2.721   1.185   7.471 -0.0588  0.0026 -0.7192
  121MOL   H14321983   2.645   1.316   7.642  1.7195  0.2993  0.7834
  121MOL   H14421984   2.807   1.384   7.609 -0.4077  2.6845  0.7548
  121MOL   H14521985   2.665   1.462   7.541  0.7312  1.5735  1.4479
  121MOL   C14621986   2.783   1.503   7.147 -0.5937 -0.3432 -0.2814
  121MOL   C14721987   2.753   1.652   7.133  0.6629  0.5433  0.1994
  121MOL   C14821988   2.726   1.426   7.026  0.0393 -0.2427  0.2076
  121MOL   O14921989   2.611   1.377   7.040  0.1409  0.7821 -0.6459
  121MOL   O15021990   2.806   1.414   6.915 -0.3094  0.5870  0.5253
  121MOL   H15121991   2.890   1.483   7.146 -0.7421 -1.4693  1.9468
  121MOL   H15221992   2.817   1.719   7.191  1.1805 -0.3188  0.6303
  121MOL   H15321993   2.769   1.682   7.029 -2.4110 -0.6778 -0.6682
  121MOL   H15421994   2.652   1.675   7.164  0.6628  1.2055 -0.2779
  121MOL   C15521995   2.761   1.318   6.819 -0.4201  0.3984 -0.7449
  121MOL   C15621996   2.899   1.255   6.779 -0.3197 -0.4121 -0.3211
  121MOL   C15721997   2.671   1.388   6.717 -0.5417 -0.2348  0.3168
  121MOL   O15821998   2.644   1.509   6.716 -0.2084  0.3199 -0.0614
  121MOL   O15921999   2.627   1.293   6.630 -0.7021  0.3448 -0.5165
  121MOL   H16022000   2.704   1.242   6.872 -0.5604 -0.4154 -2.0349
  121MOL   H16122001   2.949   1.296   6.691 -0.8860  1.7144  0.3234
  121MOL   H16222002   2.981   1.260   6.851 -0.0512 -0.5338 -0.6120
  121MOL   H16322003   2.885   1.149   6.755  0.6126 -0.4342 -0.8278
  121MOL   C16422004   2.562   1.335   6.510  0.1949 -0.1181  0.0306
  121MOL   C16522005   2.486   1.223   6.446  0.0280 -0.3767 -0.3454
  121MOL   C16622006   2.654   1.401   6.407 -0.5890 -0.2799 -0.3489
  121MOL   O16722007   2.777   1.404   6.427  0.2420 -0.1909  0.3518
  121MOL   O16822008   2.596   1.453   6.298 -0.4560  0.0581 -0.1485
  121MOL   H16922009   2.481   1.406   6.529  0.6095 -0.3214  2.8211
  121MOL   H17022010   2.558   1.150   6.409  1.0854  0.4098  0.1367
  121MOL   H17122011   2.414   1.175   6.512  0.4200 -2.3226 -1.2973
  121MOL   H17222012   2.434   1.266   6.361  1.8641 -0.1145 -1.3604
  121MOL   C17322013   2.660   1.538   6.207  0.1688  0.5195  0.3841
  121MOL   C17422014   2.646   1.682   6.248 -0.3254 -0.6132  0.4722
  121MOL   C17522015   2.597   1.515   6.071  0.6398  0.0506 -0.0246
  121MOL   O17622016   2.660   1.476   5.974  0.0518  0.2335  0.0173
  121MOL   O17722017   2.457   1.548   6.079 -0.5550 -0.0714 -0.2409
  121MOL   H17822018   2.767   1.517   6.200  0.3821  0.8043  2.4631
  121MOL   H17922019   2.701   1.751   6.184 -1.4213 -1.0312 -0.9597
  121MOL   H18022020   2.543   1.716   6.249 -0.1057  0.0564  0.5121
  121MOL   H18122021   2.680   1.701   6.350 -2.2167  2.0420  0.6596
  121MOL   H18222022   2.429   1.526   5.991 -0.6698 -3.3954  0.5729
  122MOL     C122023   4.231   7.495   4.126  0.1595 -0.2253 -0.3300
  122MOL     C222024   4.227   7.648   4.124  0.0467 -0.0967  0.6095
  122MOL     C322025   4.097   7.435   4.162 -0.4417  0.2752 -0.6455
  122MOL     O422026   4.016   7.401   4.078  0.5319  0.5316 -0.2350
  122MOL     O522027   4.096   7.424   4.303 -0.0100 -0.2865 -0.0556
  122MOL     H622028   4.257   7.452   4.029  0.1830 -1.0935  0.0611
  122MOL     H722029   4.231   7.695   4.222  1.0120 -1.0524  1.0513
  122MOL     H822030   4.307   7.693   4.065 -2.0751  0.3247 -2.0567
  122MOL     H922031   4.140   7.688   4.072 -0.3690 -0.4235  1.0468
  122MOL    H1022032   4.301   7.453   4.198  0.6568 -1.6357 -1.5988
  122MOL    C1122033   3.987   7.371   4.369 -0.3404  0.3022 -1.2225
  122MOL    C1222034   3.982   7.429   4.506  0.3626 -0.7402 -0.3879
  122MOL    C1322035   4.005   7.216   4.368  0.4922  0.0934 -0.4015
  122MOL    O1422036   4.108   7.165   4.320  0.6896 -0.1425  0.4289
  122MOL    O1522037   3.901   7.152   4.439  0.3358  0.1872 -0.2205
  122MOL    H1622038   3.899   7.396   4.309  0.4408 -2.0213 -3.3832
  122MOL    H1722039   3.890   7.399   4.556  1.1296 -1.6419  0.4907
  122MOL    H1822040   4.067   7.394   4.563  0.2459 -0.5211 -0.0743
  122MOL    H1922041   3.988   7.538   4.508  3.7578 -0.9097  0.8070
  122MOL    C2022042   3.896   7.010   4.455 -0.3755  0.5265  0.6370
  122MOL    C2122043   4.007   6.967   4.546  0.1551  0.0779  0.1261
  122MOL    C2222044   3.897   6.934   4.319 -0.6792 -0.0829  0.0732
  122MOL    O2322045   3.993   6.862   4.280  0.2279 -0.3161  0.5614
  122MOL    O2422046   3.780   6.962   4.252 -0.3062  0.0962 -0.4021
  122MOL    H2522047   3.798   6.995   4.500 -1.5472  2.9443 -0.9816
  122MOL    H2622048   3.997   6.863   4.575 -0.6060 -0.2099 -1.1316
  122MOL    H2722049   4.103   6.972   4.494  0.8184  2.3917  1.4963
  122MOL    H2822050   4.024   7.015   4.643  0.3382  0.9925 -0.3475
  122MOL    C2922051   3.743   6.900   4.131  0.3629 -0.3266  0.2626
  122MOL    C3022052   3.617   6.976   4.083 -0.3549 -0.6780 -0.1036
  122MOL    C3122053   3.727   6.747   4.147 -0.2403  0.2234 -0.3225
  122MOL    O3222054   3.816   6.663   4.120  0.2465 -0.6205  0.2058
  122MOL    O3322055   3.602   6.716   4.213 -0.4196 -0.7288 -0.2994
  122MOL    H3422056   3.825   6.910   4.059  0.0169 -0.9491 -0.2102
  122MOL    H3522057   3.630   7.082   4.060  3.2622 -1.3964 -1.6676
  122MOL    H3622058   3.570   6.918   4.003  0.5629 -0.7234 -0.6164
  122MOL    H3722059   3.551   6.975   4.170 -0.0281 -0.8566  0.1458
  122MOL    C3822060   3.557   6.585   4.234 -0.2397 -0.5301 -0.6941
  122MOL    C3922061   3.409   6.581   4.231  0.5228  0.0547 -0.1444
  122MOL    C4022062   3.608   6.533   4.374 -0.1082 -0.1756 -0.1545
  122MOL    O4122063   3.656   6.422   4.398 -0.2380  0.1921 -0.1096
  122MOL    O4222064   3.568   6.624   4.472 -0.3816 -0.6292  0.0765
  122MOL    H4322065   3.600   6.517   4.161  1.6791  0.3503 -0.4242
  122MOL    H4422066   3.375   6.675   4.187  1.6950 -0.5979 -2.5442
  122MOL    H4522067   3.376   6.498   4.170 -1.0761  0.2176  0.4770
  122MOL    H4622068   3.367   6.556   4.329 -0.9808  1.7480 -0.3246
  122MOL    C4722069   3.613   6.595   4.602  0.3345 -0.6431  0.2488
  122MOL    C4822070   3.519   6.673   4.709 -0.0252 -1.3545  0.7405
  122MOL    C4922071   3.762   6.631   4.627 -0.0288  0.2967  0.4172
  122MOL    O5022072   3.828   6.681   4.537  0.1039 -0.6343 -0.0586
  122MOL    O5122073   3.814   6.598   4.741 -0.2036  0.0382  0.5786
  122MOL    H5222074   3.591   6.489   4.613  2.1276 -1.2666 -1.8061
  122MOL    H5322075   3.437   6.620   4.757 -0.1625 -0.4120  1.5455
  122MOL    H5422076   3.578   6.697   4.797 -1.6174  4.5764  0.3549
  122MOL    H5522077   3.482   6.766   4.668 -0.4287 -1.6922  0.3265
  122MOL    C5622078   3.938   6.665   4.790 -0.6021 -0.4331 -0.5718
  122MOL    C5722079   4.003   6.556   4.878 -0.2747 -0.0139  0.4793
  122MOL    C5822080   3.900   6.790   4.877  0.2107  0.2728  0.2042
  122MOL    O5922081   3.935   6.801   4.991 -0.4992 -0.0697  0.4144
  122MOL    O6022082   3.835   6.887   4.805  0.7724  0.1098 -0.2675
  122MOL    H6122083   4.017   6.692   4.720 -0.1016 -0.2240  0.0775
  122MOL    H6222084   4.075   6.592   4.951  2.6532 -0.3982 -2.1441
  122MOL    H6322085   3.933   6.504   4.945  0.1286  0.7117  1.4670
  122MOL    H6422086   4.064   6.482   4.826  0.1477  0.2135  0.6515
  122MOL    C6522087   3.760   6.984   4.879 -0.0526 -0.2356 -0.4538
  122MOL    C6622088   3.667   7.050   4.788 -0.0670 -0.5272  0.4091
  122MOL    C6722089   3.851   7.081   4.952 -0.2379 -0.6504 -0.7239
  122MOL    O6822090   3.845   7.093   5.077  0.3539 -0.3883  0.0838
  122MOL    O6922091   3.938   7.146   4.865  0.3074  0.2267  0.3409
  122MOL    H7022092   3.701   6.941   4.960  0.8331 -1.2922 -0.3658
  122MOL    H7122093   3.615   7.126   4.846 -1.0682 -2.8863  2.7228
  122MOL    H7222094   3.718   7.093   4.702  0.0469 -0.4503  0.5161
  122MOL    H7322095   3.605   6.969   4.748  0.5252 -0.9124  0.2719
  122MOL    C7422096   4.044   7.231   4.913 -0.6774  0.1682  0.6503
  122MOL    C7522097   4.019   7.379   4.880 -0.4521 -0.4412  0.0865
  122MOL    C7622098   4.170   7.178   4.844  0.5052 -0.2081 -0.2519
  122MOL    O7722099   4.216   7.229   4.737  0.3968 -0.0435  0.1415
  122MOL    O7822100   4.220   7.079   4.910 -0.0519  0.4758 -0.3381
  122MOL    H7922101   4.055   7.211   5.019  3.1746 -1.5118  0.0205
  122MOL    H8022102   4.111   7.431   4.908 -0.2322 -1.0184  0.4325
  122MOL    H8122103   3.991   7.404   4.778 -1.1768  0.3662  0.4832
  122MOL    H8222104   3.946   7.422   4.948 -0.8013  0.5421 -0.9036
  122MOL    C8322105   4.338   7.015   4.859 -0.2602  0.1831 -0.1432
  122MOL    C8422106   4.293   6.886   4.775  0.3456 -0.6599 -0.0796
  122MOL    C8522107   4.424   6.973   4.980 -0.1480 -0.3002  0.2767
  122MOL    O8622108   4.533   7.029   4.994 -0.4896  0.8733 -0.2284
  122MOL    O8722109   4.368   6.890   5.065 -1.1762  0.5044 -0.3957
  122MOL    H8822110   4.404   7.082   4.806  0.3059  0.8230  1.3333
  122MOL    H8922111   4.374   6.813   4.777 -0.6237 -1.7111  1.8482
  122MOL    H9022112   4.198   6.846   4.810 -0.2884  2.3327  1.7841
  122MOL    H9122113   4.270   6.903   4.670 -2.9025  0.0670  0.7069
  122MOL    C9222114   4.443   6.843   5.174  0.5109 -0.0817  0.7372
  122MOL    C9322115   4.361   6.727   5.225 -0.2477  0.1468  0.1247
  122MOL    C9422116   4.451   6.951   5.288  1.1571 -0.1150  0.1614
  122MOL    O9522117   4.379   7.051   5.282 -0.7856  0.5342 -0.1840
  122MOL    O9622118   4.541   6.928   5.386 -0.0513  0.5344  0.5996
  122MOL    H9722119   4.541   6.807   5.144  0.7984  0.4124  1.0739
  122MOL    H9822120   4.261   6.766   5.244 -0.4734  0.2647 -1.2009
  122MOL    H9922121   4.362   6.651   5.146 -1.8416 -2.5026  2.5441
  122MOL   H10022122   4.402   6.685   5.316 -3.0655 -0.7891  1.0247
  122MOL   C10122123   4.534   7.006   5.503 -0.0440 -0.0052  0.2040
  122MOL   C10222124   4.684   7.043   5.540  0.0612  0.0026  0.1160
  122MOL   C10322125   4.456   6.931   5.608  0.0583 -0.0527  0.7156
  122MOL   O10422126   4.389   6.828   5.590  0.6555 -0.1027 -0.1011
  122MOL   O10522127   4.467   6.980   5.725 -0.2619  0.1757 -0.4719
  122MOL   H10622128   4.488   7.102   5.483 -0.0922 -0.2910 -1.0985
  122MOL   H10722129   4.695   7.122   5.614  0.0940  0.3985 -0.3112
  122MOL   H10822130   4.744   6.954   5.559 -0.4418 -1.1052 -3.1282
  122MOL   H10922131   4.732   7.079   5.449 -1.0398  0.3450 -0.3465
  122MOL   C11022132   4.405   6.928   5.839  0.4932  0.1477  0.2426
  122MOL   C11122133   4.367   7.039   5.933  0.4696  0.2928  0.0106
  122MOL   C11222134   4.498   6.820   5.907 -0.2619 -0.2137 -0.0715
  122MOL   O11322135   4.614   6.796   5.871  1.0154  0.2444  0.4000
  122MOL   O11422136   4.432   6.756   6.000  0.3920  0.1647 -0.7345
  122MOL   H11522137   4.314   6.874   5.812 -1.0430  2.6435  0.2875
  122MOL   H11622138   4.299   7.103   5.877 -0.4406  0.7665  1.5959
  122MOL   H11722139   4.319   7.006   6.025  0.6790  1.3653  0.5160
  122MOL   H11822140   4.452   7.100   5.964  2.0127 -1.4198 -0.8205
  122MOL   C11922141   4.491   6.682   6.111  0.2719  0.2806  0.2381
  122MOL   C12022142   4.377   6.631   6.199  0.3677 -0.5554  0.3927
  122MOL   C12122143   4.597   6.767   6.190 -0.3476 -0.3749 -0.5948
  122MOL   O12222144   4.569   6.852   6.273 -0.2103 -0.2659 -0.3147
  122MOL   O12322145   4.716   6.756   6.144  0.0310  0.1847  0.3702
  122MOL   H12422146   4.552   6.604   6.066  1.7711 -0.6061  3.6628
  122MOL   H12522147   4.309   6.565   6.146  1.3125 -0.5127 -0.9189
  122MOL   H12622148   4.413   6.562   6.275  1.3156  1.1384  1.5205
  122MOL   H12722149   4.314   6.708   6.243 -0.5312 -0.7636 -0.5111
  122MOL   C12822150   4.827   6.846   6.178 -0.6696 -0.6308 -1.1984
  122MOL   C12922151   4.923   6.851   6.056  0.1978  0.0193  0.7838
  122MOL   C13022152   4.900   6.801   6.303 -0.6987  0.5791 -0.7726
  122MOL   O13122153   4.889   6.871   6.409 -0.3869 -0.0291  0.1099
  122MOL   O13222154   4.978   6.688   6.290  0.2962 -0.2368 -0.1299
  122MOL   H13322155   4.793   6.947   6.200  2.7113  0.4762 -0.8910
  122MOL   H13422156   4.952   6.747   6.042  1.9731  0.9321 -3.1603
  122MOL   H13522157   4.886   6.891   5.962  0.1064 -0.9397  0.4034
  122MOL   H13622158   5.020   6.895   6.081  0.5087  0.3225 -0.8764
  122MOL   C13722159   5.051   6.630   6.404 -0.0982  0.9028  0.3387
  122MOL   C13822160   5.197   6.599   6.356 -0.3124  0.3021  0.3950
  122MOL   C13922161   4.970   6.505   6.444  0.0911 -0.1348  0.4614
  122MOL   O14022162   5.029   6.398   6.467  0.3584 -0.5885 -0.6899
  122MOL   O14122163   4.841   6.519   6.444 -0.3302  1.0199  0.2544
  122MOL   H14222164   5.047   6.698   6.489  0.6746 -1.0190  1.9521
  122MOL   H14322165   5.262   6.572   6.439  1.2840  1.5162 -0.4480
  122MOL   H14422166   5.205   6.511   6.292 -0.1066  0.6178 -0.0131
  122MOL   H14522167   5.233   6.681   6.294  2.4076 -1.5825 -0.6125
  122MOL   C14622168   4.758   6.418   6.489 -0.2726 -1.3869 -0.1490
  122MOL   C14722169   4.623   6.426   6.417 -0.8629  0.0830 -0.1377
  122MOL   C14822170   4.741   6.433   6.642  0.4555 -0.7188 -0.1779
  122MOL   O14922171   4.765   6.332   6.713 -0.0035  0.5234  0.1779
  122MOL   O15022172   4.703   6.557   6.683  0.0301  0.2153 -0.0259
  122MOL   H15122173   4.800   6.319   6.473  1.0266 -0.7899 -0.5045
  122MOL   H15222174   4.566   6.333   6.418 -0.1682 -0.3819 -1.8372
  122MOL   H15322175   4.557   6.506   6.449  1.8837  2.1895  0.4070
  122MOL   H15422176   4.639   6.431   6.309 -1.3728 -2.1867 -0.3482
  122MOL   C15522177   4.716   6.583   6.826 -0.0040  0.3087  0.3932
  122MOL   C15622178   4.642   6.715   6.846 -0.6267  0.8407 -0.0197
  122MOL   C15722179   4.861   6.624   6.855  0.2741  0.7009 -0.9555
  122MOL   O15822180   4.948   6.634   6.772  0.2033 -0.6228 -0.2316
  122MOL   O15922181   4.882   6.642   6.984  0.1263 -0.1729 -0.0535
  122MOL   H16022182   4.680   6.497   6.883 -2.6151  0.3561 -1.1027
  122MOL   H16122183   4.676   6.806   6.795  1.3027  0.0508 -0.1664
  122MOL   H16222184   4.539   6.696   6.816 -0.5315 -1.1812  0.8593
  122MOL   H16322185   4.624   6.724   6.953  0.3219 -2.0292  0.4075
  122MOL   C16422186   4.995   6.705   7.040 -0.4877  0.6342  0.5592
  122MOL   C16522187   5.012   6.668   7.189  0.2842  0.4060  0.0021
  122MOL   C16622188   4.979   6.855   7.023 -0.4633  0.0367  0.2335
  122MOL   O16722189   4.874   6.909   6.985 -0.4590  0.0214 -0.3070
  122MOL   O16822190   5.092   6.925   7.040  0.7117  0.8746 -0.2918
  122MOL   H16922191   5.080   6.683   6.976 -0.9851 -2.0264  0.7289
  122MOL   H17022192   4.912   6.661   7.232 -0.5877 -0.0646 -2.0344
  122MOL   H17122193   5.060   6.569   7.191 -1.0379 -0.2474 -0.0941
  122MOL   H17222194   5.068   6.737   7.251  0.8902  0.0628 -0.1539
  122MOL   C17322195   5.093   7.065   7.037  0.1121 -0.7513 -0.9540
  122MOL   C17422196   5.241   7.087   7.013  0.1499  0.1556 -0.4916
  122MOL   C17522197   5.032   7.128   7.159 -0.9118 -0.4033  0.9133
  122MOL   O17622198   4.919   7.174   7.150  0.2908 -0.2013  0.1067
  122MOL   O17722199   5.105   7.113   7.277  0.4150  0.2794  0.0028
  122MOL   H17822200   5.040   7.109   6.952  0.7784 -0.8934 -1.4537
  122MOL   H17922201   5.272   7.061   6.912  0.0345 -0.0187 -0.4808
  122MOL   H18022202   5.266   7.190   7.040 -1.8703  0.1227  1.7026
  122MOL   H18122203   5.291   7.021   7.083 -0.4400 -0.7401 -0.9149
  122MOL   H18222204   5.058   7.157   7.346 -1.3084 -1.2654 -0.1332
  123MOL     C122205   4.504   2.655   2.359 -0.6217  0.0490 -0.2826
  123MOL     C222206   4.368   2.664   2.297  0.2723 -1.1405  0.0170
  123MOL     C322207   4.612   2.706   2.273 -0.7381 -1.3443  0.4358
  123MOL     O422208   4.676   2.627   2.199  0.8210  0.0206 -0.2212
  123MOL     O522209   4.633   2.842   2.291 -0.3424  0.3422 -0.6495
  123MOL     H622210   4.507   2.723   2.444  2.2019  1.3772 -1.3856
  123MOL     H722211   4.289   2.628   2.363 -0.1168 -1.9813 -0.8982
  123MOL     H822212   4.327   2.765   2.288  1.3758 -0.5614  1.3078
  123MOL     H922213   4.357   2.603   2.207  1.9362  0.4449 -1.2855
  123MOL    H1022214   4.537   2.557   2.393  2.4339  1.3816  0.8276
  123MOL    C1122215   4.736   2.921   2.232  0.3086  0.4303 -0.2318
  123MOL    C1222216   4.733   3.061   2.298 -0.3781 -0.2975 -0.4266
  123MOL    C1322217   4.713   2.939   2.083 -0.1697 -0.0520 -0.8005
  123MOL    O1422218   4.798   2.921   1.994  0.5338  0.2229  0.6319
  123MOL    O1522219   4.586   2.972   2.051  0.2415 -0.1106  0.0441
  123MOL    H1622220   4.837   2.881   2.235  1.0055  2.1277 -0.7890
  123MOL    H1722221   4.632   3.095   2.320 -0.4538 -1.2426  0.7010
  123MOL    H1822222   4.780   3.052   2.396  0.1348  1.6789 -0.4620
  123MOL    H1922223   4.791   3.133   2.239 -1.7755 -0.1670 -1.6570
  123MOL    C2022224   4.538   2.982   1.915  0.5125 -0.4428  0.7370
  123MOL    C2122225   4.440   3.098   1.915 -0.0740  0.2624  0.0835
  123MOL    C2222226   4.463   2.852   1.887 -0.4939 -0.1349  0.9358
  123MOL    O2322227   4.343   2.851   1.890  0.1131 -0.0147  0.1797
  123MOL    O2422228   4.544   2.746   1.873 -0.0417  0.4500 -0.3792
  123MOL    H2522229   4.606   2.981   1.830 -1.5147 -1.1882 -0.8904
  123MOL    H2622230   4.481   3.199   1.919  1.9973 -0.4406 -2.5208
  123MOL    H2722231   4.380   3.099   1.824  0.3189  0.0011 -0.1798
  123MOL    H2822232   4.373   3.089   2.001  0.5247 -1.4567  0.3873
  123MOL    C2922233   4.492   2.617   1.864  1.0330 -0.7410  0.0284
  123MOL    C3022234   4.625   2.531   1.877  0.1747 -0.4251  0.0569
  123MOL    C3122235   4.413   2.599   1.731  0.0696  0.5014 -0.6467
  123MOL    O3222236   4.302   2.552   1.733  0.4827  0.3692 -0.3836
  123MOL    O3322237   4.484   2.632   1.622 -0.2280 -0.5150  0.0865
  123MOL    H3422238   4.433   2.596   1.953  1.6683 -0.2429  0.5697
  123MOL    H3522239   4.664   2.533   1.978 -2.1511 -1.3840  1.0105
  123MOL    H3622240   4.587   2.432   1.855  1.4875 -0.7499 -0.8214
  123MOL    H3722241   4.696   2.568   1.802 -0.5454  0.3297 -0.2710
  123MOL    C3822242   4.426   2.611   1.493 -0.0038  0.0228 -0.2419
  123MOL    C3922243   4.473   2.481   1.437  0.0800  0.5719  0.5356
  123MOL    C4022244   4.459   2.729   1.400  0.3746 -0.5267  0.2922
  123MOL    O4122245   4.479   2.846   1.438  0.0689  1.2638 -0.2540
  123MOL    O4222246   4.449   2.689   1.266  0.2050  0.5534  0.0049
  123MOL    H4322247   4.317   2.605   1.498  0.0439 -1.2907 -0.6042
  123MOL    H4422248   4.471   2.402   1.511 -0.7803 -0.2224 -0.3297
  123MOL    H4522249   4.409   2.452   1.354 -0.7928 -0.0875  1.4400
  123MOL    H4622250   4.577   2.485   1.404  0.0493  0.0005  0.3675
  123MOL    C4722251   4.485   2.775   1.160 -0.0171  0.0789  0.3342
  123MOL    C4822252   4.367   2.778   1.054 -0.3093  0.0400  0.1473
  123MOL    C4922253   4.625   2.728   1.104 -0.0410  0.0010  0.1811
  123MOL    O5022254   4.729   2.798   1.096 -0.2605  0.9375 -0.4469
  123MOL    O5122255   4.618   2.599   1.072  0.0046  0.3941 -0.2406
  123MOL    H5222256   4.506   2.872   1.206  0.5370 -0.5931  1.5218
  123MOL    H5322257   4.382   2.836   0.963  1.2739 -1.6202 -0.6799
  123MOL    H5422258   4.321   2.684   1.024 -1.2004  1.2645 -2.4397
  123MOL    H5522259   4.294   2.843   1.102  1.5043  1.8335  0.5349
  123MOL    C5622260   4.731   2.535   1.005  0.1995  0.2384 -0.2933
  123MOL    C5722261   4.689   2.496   0.856 -0.4364 -0.3665 -0.0981
  123MOL    C5822262   4.753   2.401   1.079 -0.5904 -0.5286  0.2678
  123MOL    O5922263   4.778   2.297   1.020 -0.0314 -0.3691 -0.0140
  123MOL    O6022264   4.761   2.422   1.209  0.1094 -0.0719  0.7547
  123MOL    H6122265   4.825   2.588   1.017  0.7434 -1.1830  2.1192
  123MOL    H6222266   4.657   2.586   0.804 -0.5177  0.0757  0.7022
  123MOL    H6322267   4.779   2.472   0.800 -0.8973 -1.1088 -0.5385
  123MOL    H6422268   4.623   2.409   0.847 -1.1294 -0.1081  2.1918
  123MOL    C6522269   4.814   2.318   1.299  0.4343  0.0272  0.5443
  123MOL    C6622270   4.712   2.199   1.313  0.2714  0.4132  0.4438
  123MOL    C6722271   4.845   2.375   1.431 -0.1947 -0.6304  0.6880
  123MOL    O6822272   4.795   2.481   1.466  0.0405  0.0821  0.6365
  123MOL    O6922273   4.944   2.313   1.492 -0.0537  0.0238  0.4552
  123MOL    H7022274   4.907   2.285   1.252  0.2116  1.3752 -0.8956
  123MOL    H7122275   4.611   2.233   1.336 -0.1148 -1.0296  0.9537
  123MOL    H7222276   4.705   2.135   1.225  1.6508  1.8844 -0.7698
  123MOL    H7322277   4.746   2.135   1.395  3.2713 -1.0162 -1.8199
  123MOL    C7422278   4.992   2.356   1.618  0.3600 -0.2800 -0.5917
  123MOL    C7522279   5.145   2.345   1.633 -0.5979  0.3948  0.2010
  123MOL    C7622280   4.928   2.268   1.734 -0.5347 -0.3749 -0.4088
  123MOL    O7722281   4.876   2.322   1.833 -0.4470 -0.0538 -0.2004
  123MOL    O7822282   4.951   2.139   1.718  0.4220  0.7030  0.6284
  123MOL    H7922283   4.977   2.461   1.642  0.0521  0.3417 -3.2952
  123MOL    H8022284   5.174   2.242   1.610 -2.8609 -0.1998 -0.1302
  123MOL    H8122285   5.203   2.402   1.561 -0.2407 -1.6240 -1.1446
  123MOL    H8222286   5.181   2.387   1.727 -0.0220  1.6917 -0.5872
  123MOL    C8322287   4.905   2.045   1.820 -0.4323  0.0185  0.2228
  123MOL    C8422288   4.986   1.914   1.791 -0.5602  0.7110 -0.4480
  123MOL    C8522289   4.757   2.009   1.804 -0.4530  0.3413  0.1825
  123MOL    O8622290   4.689   2.017   1.909 -0.1122  0.3689 -0.3654
  123MOL    O8722291   4.718   1.964   1.681  0.2217  0.1296  0.4060
  123MOL    H8822292   4.918   2.076   1.923 -1.5985  3.8386 -0.6961
  123MOL    H8922293   5.091   1.934   1.811 -0.4346 -1.6444  1.4565
  123MOL    H9022294   4.949   1.836   1.857 -1.6569  0.4104 -1.4029
  123MOL    H9122295   4.969   1.885   1.687 -0.8673  1.5596 -0.6419
  123MOL    C9222296   4.581   1.932   1.663 -0.1892 -0.8393 -0.5085
  123MOL    C9322297   4.589   1.809   1.572 -0.2754 -0.6984  0.3802
  123MOL    C9422298   4.501   2.051   1.612  0.0383 -0.8538 -0.0137
  123MOL    O9522299   4.564   2.162   1.608 -0.2580 -0.6236 -0.2049
  123MOL    O9622300   4.378   2.027   1.589 -0.2890  0.2755  0.2997
  123MOL    H9722301   4.543   1.896   1.759  2.7538 -1.1762  0.5773
  123MOL    H9822302   4.678   1.827   1.512  0.2142  1.8068  1.7818
  123MOL    H9922303   4.605   1.720   1.632 -0.7943 -1.3623 -0.4641
  123MOL   H10022304   4.493   1.802   1.521  0.2529  1.3418 -0.9847
  123MOL   C10122305   4.294   2.123   1.521 -0.3399  0.4177 -0.0823
  123MOL   C10222306   4.147   2.091   1.551 -0.2383 -0.3650  0.5485
  123MOL   C10322307   4.322   2.128   1.368 -0.2342 -0.2409 -0.3360
  123MOL   O10422308   4.405   2.054   1.320 -0.4303 -0.5479 -0.3729
  123MOL   O10522309   4.245   2.215   1.297 -0.5140  0.4200  0.6193
  123MOL   H10622310   4.307   2.221   1.568  2.5187 -0.0031  0.0799
  123MOL   H10722311   4.112   1.989   1.535 -0.7638 -0.0475 -0.3773
  123MOL   H10822312   4.133   2.101   1.659  0.6103 -0.4066  0.6640
  123MOL   H10922313   4.074   2.148   1.493 -0.7983  1.1829  2.6861
  123MOL   C11022314   4.261   2.217   1.155 -0.3154  0.2321 -0.0305
  123MOL   C11122315   4.211   2.353   1.111  0.2405 -0.6198  0.3797
  123MOL   C11222316   4.182   2.106   1.090  0.3811  0.4280  0.7764
  123MOL   O11322317   4.120   2.024   1.162 -0.1676  0.3883  0.7125
  123MOL   O11422318   4.181   2.112   0.955  0.3012 -0.1408  0.2995
  123MOL   H11522319   4.368   2.209   1.135 -0.1723  1.6408  0.0597
  123MOL   H11622320   4.229   2.370   1.005 -0.9008 -1.2797  0.0729
  123MOL   H11722321   4.104   2.359   1.132  0.3822 -2.3899  1.7830
  123MOL   H11822322   4.255   2.437   1.165 -1.5994 -0.8015  2.2267
  123MOL   C11922323   4.069   2.062   0.880  0.3244  0.3179  0.1125
  123MOL   C12022324   4.055   1.908   0.894 -0.1161  0.4095 -0.2149
  123MOL   C12122325   4.078   2.116   0.731  0.7082  0.6311 -0.5230
  123MOL   O12222326   4.176   2.173   0.686  0.2423 -0.5152  0.1062
  123MOL   O12322327   3.952   2.125   0.673 -0.0114  0.0888  0.2982
  123MOL   H12422328   3.983   2.118   0.918  0.2354  0.4629 -0.3039
  123MOL   H12522329   4.018   1.874   0.990 -0.2294  0.8576 -0.0979
  123MOL   H12622330   3.992   1.877   0.811 -0.8849  0.5192  0.3249
  123MOL   H12722331   4.154   1.864   0.883 -0.3300 -0.0379 -0.3588
  123MOL   C12822332   3.939   2.201   0.554  0.3779  0.6679 -0.7850
  123MOL   C12922333   3.783   2.228   0.549  0.6586 -0.0582 -0.3870
  123MOL   C13022334   3.991   2.134   0.427 -0.1044  0.1351  0.4614
  123MOL   O13122335   4.075   2.197   0.359  0.3159 -0.0132 -0.4253
  123MOL   O13222336   3.948   2.011   0.398  1.0223  0.1504 -0.4485
  123MOL   H13322337   3.991   2.296   0.564  1.1004  0.1370  0.6997
  123MOL   H13422338   3.748   2.233   0.446 -1.8878 -1.7906  0.3634
  123MOL   H13522339   3.718   2.147   0.582  0.3914  1.2176  2.4075
  123MOL   H13622340   3.766   2.324   0.598 -1.0499 -1.0492  1.0372
  123MOL   C13722341   3.987   1.942   0.280  0.4451 -0.7291 -0.5333
  123MOL   C13822342   3.873   1.841   0.254  0.6088 -0.0306  0.4425
  123MOL   C13922343   4.123   1.876   0.295  0.0960  0.4594 -0.0895
  123MOL   O14022344   4.218   1.917   0.228  0.2180 -0.0204  0.9507
  123MOL   O14122345   4.123   1.778   0.386  0.7780  0.3938 -0.3391
  123MOL   H14222346   3.991   2.014   0.199  1.4116  0.9650  0.9876
  123MOL   H14322347   3.824   1.797   0.341 -0.1409 -1.1514 -0.5343
  123MOL   H14422348   3.797   1.896   0.200 -0.0967  0.5826  2.0202
  123MOL   H14522349   3.901   1.751   0.201  0.4434 -0.7154  1.5009
  123MOL   C14622350   4.245   1.723   0.427  0.7657 -0.4792  0.1941
  123MOL   C14722351   4.225   1.573   0.408  0.3645 -0.4333 -0.3467
  123MOL   C14822352   4.284   1.765   0.570 -0.2004  0.4252  0.6859
  123MOL   O14922353   4.222   1.850   0.638 -0.0977  0.7027 -0.0611
  123MOL   O15022354   4.390   1.704   0.606 -0.3884  0.7165 -0.3692
  123MOL   H15122355   4.332   1.743   0.364  0.0881 -1.2919 -1.0246
  123MOL   H15222356   4.322   1.528   0.430  0.0256 -0.7786  0.4613
  123MOL   H15322357   4.150   1.533   0.476 -1.8475  2.3721 -1.0250
  123MOL   H15422358   4.206   1.535   0.308  0.8294  0.4666 -0.7825
  123MOL   C15522359   4.454   1.729   0.732  0.9743 -0.1352  0.2863
  123MOL   C15622360   4.599   1.679   0.708  0.2495 -0.2572  0.4331
  123MOL   C15722361   4.383   1.666   0.851 -0.4002  0.2524 -0.9480
  123MOL   O15822362   4.306   1.576   0.842 -0.0415 -0.5276 -0.5711
  123MOL   O15922363   4.423   1.727   0.968  0.0669 -0.1359 -0.4129
  123MOL   H16022364   4.459   1.837   0.744 -2.1689  0.2413 -1.1999
  123MOL   H16122365   4.653   1.682   0.803 -0.2936  0.7573  0.7201
  123MOL   H16222366   4.601   1.579   0.666  0.9055  1.3308 -3.4786
  123MOL   H16322367   4.658   1.740   0.641 -0.2569  1.5268  1.5609
  123MOL   C16422368   4.405   1.659   1.097  0.2286 -0.2199  0.1568
  123MOL   C16522369   4.406   1.760   1.204  0.6248 -1.2658  0.1266
  123MOL   C16622370   4.510   1.546   1.105 -0.4374 -0.3165  0.9415
  123MOL   O16722371   4.494   1.460   1.182 -0.4820  0.5784 -1.0083
  123MOL   O16822372   4.620   1.561   1.019  0.2067 -0.0337  0.1517
  123MOL   H16922373   4.305   1.618   1.112  0.3204  0.0562  1.6567
  123MOL   H17022374   4.320   1.825   1.190 -0.2570 -2.0365  1.8232
  123MOL   H17122375   4.401   1.721   1.306  0.0181 -0.6179  0.3481
  123MOL   H17222376   4.484   1.837   1.206 -0.1956 -0.3543 -1.5707
  123MOL   C17322377   4.719   1.468   0.991  0.8605 -0.1510  0.1089
  123MOL   C17422378   4.848   1.535   0.935  0.4100 -0.5567 -0.5007
  123MOL   C17522379   4.673   1.369   0.887 -1.0884  0.2636 -0.6514
  123MOL   O17622380   4.718   1.352   0.770  0.1356  0.7020 -0.0086
  123MOL   O17722381   4.574   1.288   0.940  0.3937  0.3358  0.1200
  123MOL   H17822382   4.752   1.414   1.080 -1.5290  0.9045  1.6951
  123MOL   H17922383   4.834   1.577   0.836 -0.7173 -0.2100 -0.2059
  123MOL   H18022384   4.886   1.605   1.010  0.2333 -1.1882  0.1867
  123MOL   H18122385   4.922   1.457   0.917 -0.1472 -0.6112 -2.6641
  123MOL   H18222386   4.552   1.224   0.874 -0.3565 -0.9990  1.6365
  124MOL     C122387   6.766   3.664   1.434 -0.4565  0.4573  0.5737
  124MOL     C222388   6.725   3.520   1.463  0.5271  0.3748 -0.1804
  124MOL     C322389   6.661   3.753   1.364  0.1612  0.3162  0.2507
  124MOL     O422390   6.590   3.830   1.426 -0.0237 -0.3388  0.0283
  124MOL     O522391   6.644   3.742   1.230 -0.3298  0.1215  0.2175
  124MOL     H622392   6.780   3.714   1.530  0.7242 -2.3031  1.8617
  124MOL     H722393   6.627   3.517   1.510  1.2377 -0.9651  1.2841
  124MOL     H822394   6.713   3.471   1.366  2.2019 -1.8010  0.6627
  124MOL     H922395   6.792   3.477   1.538 -0.9251 -1.8068 -0.0788
  124MOL    H1022396   6.870   3.669   1.402 -0.4885 -0.8470  0.2460
  124MOL    C1122397   6.540   3.807   1.160 -0.6557  0.2719  0.4943
  124MOL    C1222398   6.410   3.720   1.148  0.8839 -0.9999  0.0936
  124MOL    C1322399   6.596   3.845   1.025  0.4961 -0.4187 -0.1849
  124MOL    O1422400   6.640   3.958   1.000 -0.5113 -0.2734 -0.1687
  124MOL    O1522401   6.610   3.738   0.944 -0.4105  0.0607  0.5156
  124MOL    H1622402   6.528   3.909   1.198 -0.9846 -0.0047  1.1406
  124MOL    H1722403   6.361   3.711   1.244 -1.0191  0.7063 -0.6959
  124MOL    H1822404   6.343   3.774   1.081 -1.1228 -0.4725  2.4717
  124MOL    H1922405   6.444   3.620   1.121 -0.0862 -1.5540  0.8891
  124MOL    C2022406   6.675   3.755   0.821 -0.0042  0.2600  0.3889
  124MOL    C2122407   6.602   3.670   0.713  0.3905 -0.2275 -0.5096
  124MOL    C2222408   6.819   3.695   0.843  0.2634  0.2098  0.1782
  124MOL    O2322409   6.915   3.771   0.830  0.1961 -0.0563  0.6488
  124MOL    O2422410   6.825   3.566   0.872 -0.6858 -0.1474  0.0556
  124MOL    H2522411   6.696   3.858   0.791  0.1294 -0.0398 -0.5878
  124MOL    H2622412   6.563   3.575   0.750 -0.6321  0.1021 -0.7477
  124MOL    H2722413   6.516   3.719   0.668  0.1250 -1.4301 -1.3110
  124MOL    H2822414   6.666   3.655   0.626  1.2996 -0.5428  0.2044
  124MOL    C2922415   6.941   3.504   0.929  0.2171  0.1381 -0.2094
  124MOL    C3022416   6.906   3.361   0.953 -0.5258 -0.3549 -0.5556
  124MOL    C3122417   6.980   3.573   1.059  0.3017 -0.0522 -0.2214
  124MOL    O3222418   6.902   3.584   1.157 -1.0578 -0.2592 -0.2901
  124MOL    O3322419   7.107   3.619   1.044  0.1666  0.0739 -0.2493
  124MOL    H3422420   7.026   3.529   0.865  0.6603  1.2248  0.7906
  124MOL    H3522421   6.860   3.329   1.047  1.7930  0.0272  0.7452
  124MOL    H3622422   6.847   3.319   0.872 -2.0332 -0.4193  0.5356
  124MOL    H3722423   7.006   3.319   0.959 -0.9817 -1.2121  1.9172
  124MOL    C3822424   7.178   3.693   1.142  0.6023 -0.3068 -0.3731
  124MOL    C3922425   7.279   3.792   1.077 -0.0695 -0.9760  0.7969
  124MOL    C4022426   7.236   3.586   1.250 -0.9886 -0.0244 -0.2882
  124MOL    O4122427   7.248   3.461   1.227  0.1932 -0.5423  0.3624
  124MOL    O4222428   7.264   3.645   1.364  0.6208 -0.0282 -0.3692
  124MOL    H4322429   7.103   3.759   1.187  1.4478  1.1744 -1.0793
  124MOL    H4422430   7.346   3.735   1.013  1.0741  2.5806 -1.3266
  124MOL    H4522431   7.231   3.876   1.028  1.3122  0.8655  2.4792
  124MOL    H4622432   7.342   3.840   1.152 -0.1701  0.5958 -0.1093
  124MOL    C4722433   7.336   3.575   1.468 -0.6127  0.3960  0.4886
  124MOL    C4822434   7.320   3.655   1.599  0.2629 -0.4254  0.1140
  124MOL    C4922435   7.490   3.574   1.430  0.0401  0.6891 -0.1041
  124MOL    O5022436   7.538   3.643   1.336  0.4401 -0.3383 -0.5213
  124MOL    O5122437   7.558   3.491   1.510 -0.5537 -0.4941 -0.0001
  124MOL    H5222438   7.294   3.475   1.477  0.7134 -0.4165 -1.7002
  124MOL    H5322439   7.366   3.609   1.687 -0.2137 -0.0218  0.5802
  124MOL    H5422440   7.357   3.756   1.586 -1.3027 -0.1769 -2.7366
  124MOL    H5522441   7.212   3.650   1.617 -0.3772  1.5578 -2.7612
  124MOL    C5622442   7.694   3.468   1.497 -0.7566 -0.4096 -0.1974
  124MOL    C5722443   7.751   3.366   1.595 -0.4737  0.5842 -0.2811
  124MOL    C5822444   7.779   3.600   1.510 -0.1617 -0.6701  0.0600
  124MOL    O5922445   7.862   3.635   1.426 -0.1457  0.5157  0.3192
  124MOL    O6022446   7.742   3.667   1.621 -0.8047 -0.3340 -0.5878
  124MOL    H6122447   7.707   3.423   1.399 -0.7888  1.1360 -0.9390
  124MOL    H6222448   7.733   3.261   1.575  0.3343  0.3357  0.2531
  124MOL    H6322449   7.855   3.369   1.630 -0.2257  0.4462 -0.9992
  124MOL    H6422450   7.721   3.381   1.699 -0.1036  1.6701 -0.3235
  124MOL    C6522451   7.819   3.783   1.660 -0.1145  0.8606 -0.3796
  124MOL    C6622452   7.847   3.768   1.810 -0.5617  0.1614 -0.5591
  124MOL    C6722453   7.746   3.917   1.626  0.0569  0.5637 -0.4449
  124MOL    O6822454   7.648   3.910   1.550  0.1508  0.1310 -0.8279
  124MOL    O6922455   7.805   4.027   1.669 -0.0790 -0.6301  0.2525
  124MOL    H7022456   7.912   3.793   1.604 -1.1527  0.0905 -2.2630
  124MOL    H7122457   7.923   3.837   1.848  0.4316 -0.8698 -0.6656
  124MOL    H7222458   7.756   3.783   1.868  0.7078  1.3527  1.1787
  124MOL    H7322459   7.880   3.666   1.829 -1.4430 -0.3691 -1.8271
  124MOL    C7422460   7.748   4.161   1.656  0.9755  0.9983  0.0933
  124MOL    C7522461   7.864   4.263   1.642 -0.0372  0.4576  0.0015
  124MOL    C7622462   7.653   4.195   1.768  0.3399 -0.0071 -0.6089
  124MOL    O7722463   7.683   4.266   1.866  0.6072 -0.3531 -0.1947
  124MOL    O7822464   7.537   4.132   1.747 -0.0624  0.1893  0.2667
  124MOL    H7922465   7.697   4.157   1.560 -0.9597 -1.3914  1.1644
  124MOL    H8022466   7.936   4.257   1.724  0.9873  1.0557 -0.8455
  124MOL    H8122467   7.907   4.263   1.542 -1.4575  0.2782 -0.6032
  124MOL    H8222468   7.824   4.363   1.659 -0.5449  0.3321 -0.4851
  124MOL    C8322469   7.424   4.154   1.824 -0.2723 -0.5495 -0.8723
  124MOL    C8422470   7.332   4.029   1.804 -0.5490 -0.0068  0.0781
  124MOL    C8522471   7.348   4.289   1.783 -0.2786  0.2972  0.3143
  124MOL    O8622472   7.415   4.388   1.741  0.9662  0.0950  0.2250
  124MOL    O8722473   7.222   4.284   1.808  0.0337  0.0521 -0.2948
  124MOL    H8822474   7.450   4.165   1.930  0.0421  1.9112 -1.1593
  124MOL    H8922475   7.377   3.931   1.815 -1.3108 -0.4004 -0.2851
  124MOL    H9022476   7.242   4.042   1.864  0.2527  0.5033  1.1891
  124MOL    H9122477   7.292   4.028   1.702  0.4307 -1.3789 -0.3019
  124MOL    C9222478   7.141   4.404   1.803 -0.2836 -0.5845 -0.8096
  124MOL    C9322479   7.009   4.363   1.862 -0.6414  0.0367  0.3991
  124MOL    C9422480   7.107   4.446   1.659 -0.1692 -0.5475 -0.1904
  124MOL    O9522481   7.127   4.369   1.559  0.7795 -0.0646 -0.3584
  124MOL    O9622482   7.067   4.571   1.647 -0.1623  0.5592 -0.0992
  124MOL    H9722483   7.187   4.485   1.860  1.1444 -0.6828 -1.7920
  124MOL    H9822484   6.954   4.457   1.870 -0.5365  0.4558 -2.8696
  124MOL    H9922485   6.949   4.304   1.792 -0.4491  0.4514 -0.1200
  124MOL   H10022486   7.014   4.320   1.962  1.9307  1.3220  0.8528
  124MOL   C10122487   7.061   4.633   1.515  0.4755 -0.2064  0.3169
  124MOL   C10222488   7.064   4.788   1.534 -0.2331 -0.3485  0.3417
  124MOL   C10322489   6.933   4.587   1.440 -0.7774 -0.3666  0.3887
  124MOL   O10422490   6.848   4.523   1.492 -1.3656  0.2954  0.4176
  124MOL   O10522491   6.943   4.641   1.314 -0.1071 -0.0289 -0.3291
  124MOL   H10622492   7.143   4.602   1.451  0.5998  0.1461  0.3040
  124MOL   H10722493   6.975   4.816   1.590  0.6693  2.0675  0.6025
  124MOL   H10822494   7.156   4.807   1.588  0.2974 -2.3301  0.1992
  124MOL   H10922495   7.069   4.851   1.445 -0.4342  0.4854  0.9242
  124MOL   C11022496   6.826   4.633   1.232 -0.0074  0.7356 -0.1158
  124MOL   C11122497   6.876   4.639   1.088 -0.3902  0.4173  0.4302
  124MOL   C11222498   6.723   4.743   1.266  0.2526  0.4153  0.2080
  124MOL   O11322499   6.751   4.825   1.355 -0.4651  0.2304 -0.7437
  124MOL   O11422500   6.609   4.740   1.200  0.4988 -0.2063 -0.4580
  124MOL   H11522501   6.784   4.534   1.249  0.6263  0.4034 -0.5017
  124MOL   H11622502   6.794   4.640   1.017 -1.4669  0.6745  1.6411
  124MOL   H11722503   6.923   4.736   1.074 -1.1534  0.7702  0.2986
  124MOL   H11822504   6.945   4.557   1.065 -1.8221 -0.5887 -0.3323
  124MOL   C11922505   6.492   4.818   1.247 -0.2073  0.0954 -0.0865
  124MOL   C12022506   6.397   4.725   1.322 -0.8520  0.5892  0.4002
  124MOL   C12122507   6.438   4.877   1.118 -0.1854 -1.0038  0.4202
  124MOL   O12222508   6.336   4.835   1.066 -0.5939  0.1199 -0.2418
  124MOL   O12322509   6.520   4.970   1.059 -0.6450 -0.0909 -0.5166
  124MOL   H12422510   6.533   4.902   1.305  2.2305 -1.1350  0.0637
  124MOL   H12522511   6.379   4.627   1.277  0.4126  0.0471  1.0632
  124MOL   H12622512   6.418   4.719   1.429 -0.2394 -1.7530  0.1809
  124MOL   H12722513   6.298   4.770   1.327 -0.9053  0.3008  2.8188
  124MOL   C12822514   6.484   5.025   0.932  0.2694 -0.1683 -0.8100
  124MOL   C12922515   6.609   5.084   0.865 -0.1815  0.1699  0.1180
  124MOL   C13022516   6.374   5.134   0.946  0.4626  0.2976 -1.1375
  124MOL   O13122517   6.262   5.120   0.901 -0.3713  0.0580 -0.0082
  124MOL   O13222518   6.406   5.243   1.032 -0.3999 -0.1951  0.4041
  124MOL   H13322519   6.432   4.954   0.867 -1.0708  0.8596 -0.8701
  124MOL   H13422520   6.676   5.002   0.840 -2.5045 -2.1736  1.2764
  124MOL   H13522521   6.580   5.154   0.786  0.3710 -0.1308 -0.3502
  124MOL   H13622522   6.666   5.141   0.938 -2.4515  1.8941  0.6184
  124MOL   C13722523   6.307   5.342   1.074 -0.4460  0.4853  0.3740
  124MOL   C13822524   6.359   5.474   1.140  0.0181  0.4154 -0.1176
  124MOL   C13922525   6.199   5.280   1.171  0.6027 -0.6477 -0.0462
  124MOL   O14022526   6.199   5.314   1.291  0.3452  0.8831 -0.4054
  124MOL   O14122527   6.106   5.200   1.114 -0.3105 -0.3597  0.3753
  124MOL   H14222528   6.256   5.377   0.984 -1.8136 -2.0634  0.1014
  124MOL   H14322529   6.285   5.549   1.168 -0.4892 -0.3792  0.6781
  124MOL   H14422530   6.414   5.447   1.230 -0.6807  2.2116  0.8778
  124MOL   H14522531   6.438   5.515   1.077  0.0366  0.3132 -0.1602
  124MOL   C14622532   6.018   5.115   1.186 -0.3099  0.1824 -0.3201
  124MOL   C14722533   5.948   5.031   1.078 -0.3196  0.1098 -0.2319
  124MOL   C14822534   5.922   5.193   1.276  0.1348 -1.1459 -0.2493
  124MOL   O14922535   5.928   5.185   1.397 -0.5700  0.0118  0.0559
  124MOL   O15022536   5.831   5.264   1.212 -0.0902  0.2470 -0.5564
  124MOL   H15122537   6.080   5.051   1.248  2.1566  0.8653 -1.9764
  124MOL   H15222538   6.021   4.963   1.036  1.4814  0.4785  2.2032
  124MOL   H15322539   5.872   4.963   1.119 -0.4389  1.7648  2.4217
  124MOL   H15422540   5.922   5.080   0.984 -0.4181  1.0461  0.2855
  124MOL   C15522541   5.737   5.351   1.278  0.4704  0.4388  0.0828
  124MOL   C15622542   5.603   5.353   1.214 -0.1861 -0.3484  0.1361
  124MOL   C15722543   5.791   5.492   1.300 -0.3105 -0.0645 -0.1193
  124MOL   O15822544   5.746   5.587   1.237 -0.7144 -0.3756  0.4403
  124MOL   O15922545   5.892   5.497   1.390  0.2682 -0.4609  0.3415
  124MOL   H16022546   5.725   5.305   1.376 -0.3994 -1.0044 -0.6865
  124MOL   H16122547   5.620   5.398   1.116 -0.2377 -0.2257  0.1835
  124MOL   H16222548   5.580   5.246   1.206 -0.2020 -0.5243  2.2968
  124MOL   H16322549   5.530   5.409   1.272  0.2766 -1.0094  1.4002
  124MOL   C16422550   5.944   5.629   1.430 -0.1372 -0.0975  0.5677
  124MOL   C16522551   6.096   5.603   1.458  1.0816 -0.0423  0.4049
  124MOL   C16622552   5.870   5.675   1.552 -0.2292 -0.4904 -0.2868
  124MOL   O16722553   5.766   5.738   1.541  0.4168 -0.3305 -0.9349
  124MOL   O16822554   5.902   5.622   1.671 -0.4422 -0.4368 -0.7171
  124MOL   H16922555   5.939   5.699   1.347 -1.7018  0.8562  1.4522
  124MOL   H17022556   6.103   5.508   1.510 -1.7751 -0.2528  0.4479
  124MOL   H17122557   6.150   5.598   1.363  2.4053  1.9202  1.0243
  124MOL   H17222558   6.158   5.671   1.516 -0.3405 -0.0914  2.0092
  124MOL   C17322559   5.852   5.690   1.792  0.2365 -0.4466  0.3181
  124MOL   C17422560   5.969   5.691   1.892 -0.7447  0.1911  0.0671
  124MOL   C17522561   5.721   5.628   1.852  0.2997  0.6258 -0.0574
  124MOL   O17622562   5.722   5.572   1.963 -0.5106 -0.1649  0.4017
  124MOL   O17722563   5.613   5.648   1.776  0.4525 -0.2846  0.0136
  124MOL   H17822564   5.839   5.798   1.782  1.0148 -0.1869  1.9603
  124MOL   H17922565   6.049   5.759   1.864  1.5320 -2.3398  0.1157
  124MOL   H18022566   5.944   5.715   1.995 -0.8656  0.0675  0.0658
  124MOL   H18122567   6.011   5.590   1.896  3.0100  1.6045 -1.1500
  124MOL   H18222568   5.651   5.691   1.700  0.8095  0.6689  0.7262
  125MOL     C122569   0.123   3.338   6.061 -0.2425  0.1170  0.0143
  125MOL     C222570   0.183   3.212   6.113 -0.3291 -0.4691 -0.5757
  125MOL     C322571   0.225   3.447   6.036 -0.4799  0.2770 -0.4171
  125MOL     O422572   0.343   3.426   6.031 -0.9436  0.5693  0.0392
  125MOL     O522573   0.173   3.568   6.025 -0.3835 -0.1417  0.1364
  125MOL     H622574   0.085   3.307   5.963  0.2918  0.0475 -0.1688
  125MOL     H722575   0.270   3.176   6.058 -0.2935 -0.1503 -0.7309
  125MOL     H822576   0.212   3.223   6.218  1.3665 -1.1136 -0.9499
  125MOL     H922577   0.103   3.139   6.100 -0.9205  0.4322 -2.1924
  125MOL    H1022578   0.033   3.384   6.103 -1.1887 -0.1701 -1.6230
  125MOL    C1122579   0.252   3.684   6.003 -0.0600 -0.4371 -0.1404
  125MOL    C1222580   0.170   3.795   6.059 -1.3018 -0.2296  0.1542
  125MOL    C1322581   0.300   3.690   5.858  0.9936 -0.5571  0.6163
  125MOL    O1422582   0.406   3.734   5.817 -0.2453 -0.6522  0.2937
  125MOL    O1522583   0.206   3.649   5.769 -0.2776 -0.1381 -0.1758
  125MOL    H1622584   0.342   3.679   6.064 -0.2766 -0.5539  0.1685
  125MOL    H1722585   0.091   3.811   5.986 -1.9353  0.9072  1.0864
  125MOL    H1822586   0.116   3.772   6.151 -0.1703 -1.0111  0.6401
  125MOL    H1922587   0.230   3.886   6.056 -1.6498  0.0151  0.5009
  125MOL    C2022588   0.232   3.638   5.628 -0.6040  0.3802 -0.6129
  125MOL    C2122589   0.102   3.610   5.563  0.1869  0.2763  0.3742
  125MOL    C2222590   0.338   3.530   5.598  0.4132  0.3736  0.3020
  125MOL    O2322591   0.447   3.553   5.540 -0.0359  0.2756  0.8404
  125MOL    O2422592   0.289   3.409   5.628  0.1266 -0.4443 -0.2721
  125MOL    H2522593   0.270   3.734   5.594  0.4821 -0.7606 -2.7109
  125MOL    H2622594   0.113   3.560   5.467 -4.2013  1.3847 -0.8382
  125MOL    H2722595   0.025   3.554   5.616 -0.1794  0.7075  0.3010
  125MOL    H2822596   0.064   3.707   5.530  0.4534 -0.5159 -2.4053
  125MOL    C2922597   0.356   3.282   5.608 -0.2795 -0.3316 -0.8552
  125MOL    C3022598   0.269   3.180   5.670  0.1965 -0.4421 -0.3749
  125MOL    C3122599   0.501   3.285   5.659 -0.3553  0.6213  0.3565
  125MOL    O3222600   0.589   3.264   5.574 -0.1029  0.0664  0.0772
  125MOL    O3322601   0.511   3.302   5.796 -0.3552  0.2690  0.3805
  125MOL    H3422602   0.351   3.259   5.502 -0.1995  0.5216 -1.0546
  125MOL    H3522603   0.254   3.192   5.777 -0.8925 -0.0971 -0.5585
  125MOL    H3622604   0.167   3.164   5.636  0.0628 -1.3502  0.4296
  125MOL    H3722605   0.306   3.078   5.663  0.8077 -0.2203 -0.4103
  125MOL    C3822606   0.635   3.296   5.862  0.7062  0.5473  0.2583
  125MOL    C3922607   0.615   3.231   6.004  0.3414 -0.8251  0.1331
  125MOL    C4022608   0.688   3.445   5.874  0.7553 -0.1377  0.4938
  125MOL    O4122609   0.649   3.534   5.802 -0.1259 -0.3443  0.3618
  125MOL    O4222610   0.776   3.466   5.974 -0.2459  0.5667  0.0933
  125MOL    H4322611   0.699   3.228   5.805 -0.5277  1.6518 -2.4900
  125MOL    H4422612   0.542   3.151   5.993 -1.9371  1.1661  0.3548
  125MOL    H4522613   0.713   3.197   6.037  1.0938  2.0914  1.0414
  125MOL    H4622614   0.578   3.301   6.078  0.3918 -1.8881  1.1820
  125MOL    C4722615   0.807   3.597   6.029  0.3650  0.5149 -0.0541
  125MOL    C4822616   0.907   3.567   6.143  0.6112 -0.3829 -0.0321
  125MOL    C4922617   0.688   3.668   6.089  0.3539  0.7094 -0.2185
  125MOL    O5022618   0.584   3.605   6.114  1.2118 -0.2489 -0.0995
  125MOL    O5122619   0.716   3.794   6.120 -0.0305  0.2089 -0.0199
  125MOL    H5222620   0.849   3.655   5.947  0.3411  0.0828 -0.3725
  125MOL    H5322621   0.989   3.521   6.088 -1.1244 -1.6869 -1.6008
  125MOL    H5422622   0.942   3.649   6.205  0.0908  0.4076 -0.7686
  125MOL    H5522623   0.861   3.486   6.200 -1.4741 -0.6357 -2.0137
  125MOL    C5622624   0.615   3.884   6.174  0.3273  0.5897 -0.3079
  125MOL    C5722625   0.613   4.005   6.083  0.0741  0.2245  0.1504
  125MOL    C5822626   0.642   3.912   6.321  0.5474 -0.1729 -0.2154
  125MOL    O5922627   0.560   3.979   6.396  0.4219 -0.6199  0.3393
  125MOL    O6022628   0.746   3.844   6.368  0.4981  0.2509 -0.4316
  125MOL    H6122629   0.517   3.837   6.164  0.3292 -0.4096  3.5808
  125MOL    H6222630   0.538   4.075   6.121  1.6244  1.0950  1.6903
  125MOL    H6322631   0.709   4.057   6.078 -0.0869  0.3577 -1.8105
  125MOL    H6422632   0.573   3.981   5.984  0.5312 -0.5317  0.1442
  125MOL    C6522633   0.769   3.813   6.505 -0.4505  0.4361  0.2276
  125MOL    C6622634   0.916   3.784   6.511 -0.6365  0.4405  0.3251
  125MOL    C6722635   0.681   3.699   6.554  0.3378 -0.8777 -0.1371
  125MOL    O6822636   0.654   3.692   6.673  0.4195  0.1527  0.2544
  125MOL    O6922637   0.644   3.605   6.454  0.0941 -0.2628  0.5366
  125MOL    H7022638   0.752   3.898   6.570  0.8847  0.1600  0.9585
  125MOL    H7122639   0.956   3.773   6.611  1.1940 -0.8365 -0.5205
  125MOL    H7222640   0.946   3.693   6.459  1.6293  1.4607 -0.2139
  125MOL    H7322641   0.974   3.865   6.465  2.1087 -1.8158 -0.3130
  125MOL    C7422642   0.581   3.488   6.497  0.4879  0.6916 -0.5392
  125MOL    C7522643   0.660   3.376   6.423  0.1243  0.0365  0.5338
  125MOL    C7622644   0.435   3.492   6.452  0.3707  0.4475 -0.0699
  125MOL    O7722645   0.371   3.392   6.415  0.1806  0.8693  0.4218
  125MOL    O7822646   0.388   3.617   6.450  0.1164  0.5502 -0.1470
  125MOL    H7922647   0.586   3.470   6.605  1.6300  0.8917 -0.5439
  125MOL    H8022648   0.623   3.275   6.443  1.0813 -0.0194  2.1220
  125MOL    H8122649   0.655   3.379   6.314 -3.3208  0.0308  0.6289
  125MOL    H8222650   0.766   3.377   6.446 -0.0737 -1.2119  1.5697
  125MOL    C8322651   0.266   3.659   6.393  0.6966  0.4946 -0.6602
  125MOL    C8422652   0.265   3.811   6.405 -0.3856 -0.2202 -0.0517
  125MOL    C8522653   0.142   3.613   6.468 -0.1565 -0.5569  0.1476
  125MOL    O8622654   0.140   3.605   6.590 -0.1982 -0.1086  0.5692
  125MOL    O8722655   0.045   3.570   6.377  0.0010  0.5306 -0.5035
  125MOL    H8822656   0.254   3.617   6.294  1.1443 -0.4703 -0.3083
  125MOL    H8922657   0.260   3.839   6.510  1.4707 -1.9528  0.5322
  125MOL    H9022658   0.362   3.844   6.366  0.3026 -0.5263  1.3888
  125MOL    H9122659   0.185   3.861   6.350 -2.8458 -2.1716  1.6792
  125MOL    C9222660   8.067   3.508   6.421 -0.4138 -0.0123 -0.5972
  125MOL    C9322661   8.088   3.356   6.440 -0.1765 -1.0244 -0.6281
  125MOL    C9422662   7.959   3.544   6.319  0.1613  0.6114 -0.7838
  125MOL    O9522663   7.846   3.577   6.359 -0.0928 -0.7690  0.2634
  125MOL    O9622664   8.001   3.534   6.195  0.3109  0.5245  0.1434
  125MOL    H9722665   8.058   3.560   6.517  1.6343  0.8161 -0.8112
  125MOL    H9822666   7.990   3.307   6.439 -1.5050  1.5423 -0.5707
  125MOL    H9922667   8.147   3.307   6.363 -0.0155  0.5430 -1.5204
  125MOL   H10022668   8.133   3.321   6.533 -1.3133 -0.0568  0.3100
  125MOL   C10122669   7.919   3.572   6.083 -0.3445 -0.4297  0.3287
  125MOL   C10222670   8.000   3.538   5.954  0.5232 -0.1556  0.1125
  125MOL   C10322671   7.882   3.719   6.084 -0.1005  0.4562  0.3959
  125MOL   O10422672   7.782   3.755   6.027  0.3257  0.2511  0.2484
  125MOL   O10522673   7.977   3.798   6.124  0.8613 -0.2874  0.3964
  125MOL   H10622674   7.827   3.514   6.089 -0.2585 -0.7443 -1.2228
  125MOL   H10722675   8.023   3.432   5.964 -1.5055 -0.5762  0.5699
  125MOL   H10822676   7.924   3.539   5.875 -0.6907 -1.0853  1.2482
  125MOL   H10922677   8.075   3.615   5.937 -0.5418  0.5720 -1.3569
  125MOL   C11022678   7.951   3.938   6.110 -0.4975  0.4630 -0.7491
  125MOL   C11122679   8.080   4.016   6.088  0.5322  0.6290  0.4929
  125MOL   C11222680   7.895   3.989   6.245  0.3807  0.0296  0.6753
  125MOL   O11322681   7.810   4.083   6.245  0.1382 -0.1358  0.7049
  125MOL   O11422682   7.940   3.920   6.358 -0.5211 -0.6284  0.2680
  125MOL   H11522683   7.888   3.961   6.024 -0.4749 -0.5505 -1.0449
  125MOL   H11622684   8.143   3.980   6.169  0.4275 -0.3774  0.1452
  125MOL   H11722685   8.130   4.005   5.992  0.3233 -0.0428  0.4552
  125MOL   H11822686   8.056   4.120   6.106  2.7209  1.3669 -0.6675
  125MOL   C11922687   7.901   3.948   6.489 -0.5722 -0.4499  0.0476
  125MOL   C12022688   8.016   3.933   6.588  0.0770  0.0258  0.2348
  125MOL   C12122689   7.783   3.856   6.534  0.1344  0.2763  0.1208
  125MOL   O12222690   7.778   3.800   6.641 -0.5745  0.3391 -0.4676
  125MOL   O12322691   7.688   3.849   6.436 -0.0964 -0.1669 -0.2016
  125MOL   H12422692   7.865   4.051   6.491  2.0953  0.5059  0.5819
  125MOL   H12522693   7.978   3.966   6.684 -0.5887  0.2906 -0.1158
  125MOL   H12622694   8.041   3.827   6.596 -2.3233 -0.5491  0.4266
  125MOL   H12722695   8.105   3.982   6.549  0.3508 -0.2939  0.4573
  125MOL   C12822696   7.562   3.788   6.455 -0.2571 -0.8599  0.1222
  125MOL   C12922697   7.502   3.735   6.320  0.0706  0.0715 -0.6131
  125MOL   C13022698   7.469   3.878   6.524 -0.4224 -0.2990 -0.3826
  125MOL   O13122699   7.489   3.999   6.516  0.3616  0.6750  0.4563
  125MOL   O13222700   7.361   3.824   6.579 -0.1939 -0.0550 -0.4325
  125MOL   H13322701   7.579   3.702   6.519 -0.4850 -1.2969 -0.4013
  125MOL   H13422702   7.578   3.676   6.269  1.5106 -0.5249  2.1258
  125MOL   H13522703   7.413   3.673   6.328 -0.9704  1.5746 -0.4057
  125MOL   H13622704   7.479   3.821   6.257  0.9715  1.7400  1.2603
  125MOL   C13722705   7.267   3.903   6.643  0.1786  0.5925  0.2819
  125MOL   C13822706   7.225   3.829   6.768  0.4162 -0.5621 -0.9291
  125MOL   C13922707   7.145   3.909   6.551  0.2481 -0.4474 -0.0347
  125MOL   O14022708   7.159   3.886   6.430  0.5039  0.6977 -0.0653
  125MOL   O14122709   7.020   3.933   6.606  0.1658  0.2317  0.3354
  125MOL   H14222710   7.307   3.999   6.675  0.8074  0.9735 -1.5902
  125MOL   H14322711   7.205   3.723   6.749 -0.1174 -1.3016  3.3278
  125MOL   H14422712   7.309   3.827   6.838 -0.6033  2.8178  0.4502
  125MOL   H14522713   7.147   3.878   6.826  1.6897  0.5823 -0.1386
  125MOL   C14622714   6.901   3.955   6.527 -0.6762 -0.0744  0.3363
  125MOL   C14722715   6.814   4.051   6.618 -0.0942  0.1768 -0.0864
  125MOL   C14822716   6.831   3.824   6.496 -0.2071 -0.3004  0.6060
  125MOL   O14922717   6.881   3.712   6.516  0.5867 -0.2134 -0.2297
  125MOL   O15022718   6.712   3.848   6.436 -0.0019  0.3218  0.3567
  125MOL   H15122719   6.924   4.002   6.431 -2.0738  1.1870  0.5951
  125MOL   H15222720   6.712   4.061   6.582 -0.5066 -3.6050 -0.1704
  125MOL   H15322721   6.817   4.017   6.721 -0.8683 -1.0712 -0.4617
  125MOL   H15422722   6.866   4.147   6.621  0.6659 -0.2605  0.8544
  125MOL   C15522723   6.635   3.735   6.403  0.5284 -0.0851  0.9968
  125MOL   C15622724   6.526   3.763   6.304  0.5995 -0.2070  0.7590
  125MOL   C15722725   6.574   3.674   6.534  0.3789 -0.1661  0.1161
  125MOL   O15822726   6.535   3.744   6.626 -0.2017  0.1248  0.5936
  125MOL   O15922727   6.560   3.542   6.521  0.0602 -0.4894 -0.7158
  125MOL   H16022728   6.697   3.665   6.348  0.5822 -0.0823  1.0530
  125MOL   H16122729   6.457   3.679   6.294  1.4967 -0.9628  0.7761
  125MOL   H16222730   6.472   3.849   6.343 -0.2125  0.1377 -1.0625
  125MOL   H16322731   6.564   3.789   6.205  0.7348 -2.2787  0.2432
  125MOL   C16422732   6.530   3.464   6.641  0.7886 -0.1267  0.1625
  125MOL   C16522733   6.656   3.430   6.709 -0.3815 -0.0706  0.2404
  125MOL   C16622734   6.451   3.347   6.584 -0.1154  0.5244 -0.4243
  125MOL   O16722735   6.500   3.239   6.550  0.1720  0.2823 -0.2571
  125MOL   O16822736   6.329   3.383   6.577 -0.6006  0.0886  0.1545
  125MOL   H16922737   6.471   3.523   6.711 -0.2401  0.3543 -1.0870
  125MOL   H17022738   6.631   3.401   6.811 -0.4348 -1.9884 -0.3152
  125MOL   H17122739   6.704   3.342   6.666  2.5308  1.1741  0.8420
  125MOL   H17222740   6.726   3.514   6.709  0.2645 -0.5950 -0.9222
  125MOL   C17322741   6.227   3.293   6.545 -0.6849  0.4413 -0.0562
  125MOL   C17422742   6.112   3.372   6.484  0.4583  0.5374  0.3444
  125MOL   C17522743   6.171   3.209   6.665 -0.1382  0.1360  0.2188
  125MOL   O17622744   6.168   3.085   6.664 -0.1890 -0.0406  0.0210
  125MOL   O17722745   6.112   3.285   6.759  0.0720  0.1483 -0.1479
  125MOL   H17822746   6.267   3.227   6.468  0.2351 -1.4050  1.9495
  125MOL   H17922747   6.031   3.300   6.471  1.1647 -0.0295 -1.0939
  125MOL   H18022748   6.083   3.453   6.550 -1.7715 -1.1954  1.5474
  125MOL   H18122749   6.131   3.415   6.385 -1.1560 -1.1044 -0.7287
  125MOL   H18222750   6.084   3.230   6.831 -1.2860  1.0286  0.0191
  126MOL     C122751   1.729   7.216   6.864 -0.4162 -0.1665 -0.9221
  126MOL     C222752   1.653   7.348   6.831  0.4725 -0.3891 -0.9918
  126MOL     C322753   1.860   7.232   6.939  0.3504 -0.1629 -0.1273
  126MOL     O422754   1.953   7.305   6.896 -0.0374 -0.3022 -0.3147
  126MOL     O522755   1.860   7.161   7.045 -0.2974 -0.7723  0.2842
  126MOL     H622756   1.670   7.139   6.914  0.0232  0.9580  1.4036
  126MOL     H722757   1.547   7.325   6.826  0.6845 -1.2126 -2.0528
  126MOL     H822758   1.670   7.428   6.903  0.0195 -1.4388  0.2989
  126MOL     H922759   1.686   7.380   6.732 -0.1678 -1.4665 -1.5738
  126MOL    H1022760   1.751   7.174   6.766 -1.1483 -0.2256 -1.0630
  126MOL    C1122761   1.968   7.138   7.129 -0.0106  0.8384  0.0669
  126MOL    C1222762   1.913   7.054   7.240  0.1541  0.1896 -0.2322
  126MOL    C1322763   2.011   7.271   7.201  0.5429 -0.1935  0.5922
  126MOL    O1422764   1.932   7.348   7.254  0.1702  0.1194 -0.4253
  126MOL    O1522765   2.145   7.293   7.189 -0.3372 -0.1185  0.4069
  126MOL    H1622766   2.045   7.084   7.076 -1.1944  1.3821 -2.2601
  126MOL    H1722767   1.840   7.106   7.303  0.3026 -1.3424  1.2488
  126MOL    H1822768   1.866   6.957   7.220  1.4720 -0.8540  1.5546
  126MOL    H1922769   1.998   7.015   7.297 -2.1620 -2.8900  1.3040
  126MOL    C2022770   2.212   7.415   7.232 -0.0045 -0.5640  0.1304
  126MOL    C2122771   2.357   7.416   7.212 -0.0160 -1.0396  0.1092
  126MOL    C2222772   2.173   7.458   7.377 -0.0400 -1.1631  0.5430
  126MOL    O2322773   2.155   7.368   7.458 -0.0048 -0.3189  0.5068
  126MOL    O2422774   2.160   7.586   7.394  0.1536 -0.2605 -0.6709
  126MOL    H2522775   2.182   7.495   7.165 -0.8611 -0.8993  0.1030
  126MOL    H2622776   2.407   7.361   7.291 -0.4315 -0.1939  0.9806
  126MOL    H2722777   2.391   7.375   7.117 -0.8882  0.9556 -1.1199
  126MOL    H2822778   2.401   7.516   7.216  0.5779 -1.3383  1.0463
  126MOL    C2922779   2.103   7.635   7.517 -0.0537  0.0078 -0.4640
  126MOL    C3022780   1.994   7.740   7.488 -0.3861  0.0872 -0.1636
  126MOL    C3122781   2.218   7.695   7.602  0.0311  0.4534 -0.0411
  126MOL    O3222782   2.198   7.698   7.722 -0.0001 -0.4400 -1.0220
  126MOL    O3322783   2.316   7.761   7.540  0.0009  0.0893 -0.0686
  126MOL    H3422784   2.058   7.555   7.575  0.6387  0.8739  1.2845
  126MOL    H3522785   2.044   7.825   7.443 -0.1099  0.2572  0.4620
  126MOL    H3622786   1.922   7.704   7.414  1.4060 -0.5049 -1.6673
  126MOL    H3722787   1.943   7.775   7.578 -0.4690  1.4702 -0.7372
  126MOL    C3822788   2.385   7.861   7.607 -0.1392  0.5713 -0.0935
  126MOL    C3922789   2.462   7.944   7.499 -0.7665  0.4334  0.0552
  126MOL    C4022790   2.482   7.799   7.706  0.6621 -0.5133  0.5348
  126MOL    O4122791   2.484   7.837   7.820  0.3470  0.1874  0.0895
  126MOL    O4222792   2.579   7.714   7.662  0.4655 -0.2648 -0.5407
  126MOL    H4322793   2.314   7.917   7.668  0.7380 -0.6873  2.1323
  126MOL    H4422794   2.531   7.877   7.448 -0.8080  2.0848 -2.2952
  126MOL    H4522795   2.393   7.989   7.426 -2.2432 -1.7886  0.0522
  126MOL    H4622796   2.530   8.021   7.535  0.4753 -0.9741  0.7367
  126MOL    C4722797   2.673   7.656   7.752  0.2717 -0.1825  0.3865
  126MOL    C4822798   2.813   7.702   7.711  0.1838 -0.5715  0.2037
  126MOL    C4922799   2.660   7.507   7.742  0.5159  0.0739 -0.5506
  126MOL    O5022800   2.571   7.453   7.680 -0.1680  0.1439  0.7440
  126MOL    O5122801   2.748   7.434   7.808 -0.0010  0.1066  0.3408
  126MOL    H5222802   2.664   7.693   7.854  0.0745 -0.4091  0.4481
  126MOL    H5322803   2.825   7.679   7.605 -1.9241 -0.7457 -0.0286
  126MOL    H5422804   2.829   7.808   7.735  2.2133 -0.9163  0.4269
  126MOL    H5522805   2.886   7.647   7.770  1.8584 -0.2546 -1.5141
  126MOL    C5622806   2.728   7.292   7.830 -0.7376 -0.1991 -0.2030
  126MOL    C5722807   2.806   7.264   7.959  0.2881 -0.2568  0.7626
  126MOL    C5822808   2.789   7.216   7.714 -0.3971 -0.5195  0.4055
  126MOL    O5922809   2.740   7.114   7.665 -0.1593 -0.6653 -0.5997
  126MOL    O6022810   2.896   7.284   7.666 -0.3302 -0.6680  0.8470
  126MOL    H6122811   2.624   7.263   7.842 -0.4032 -0.8029  1.4590
  126MOL    H6222812   2.759   7.320   8.039 -2.3566  1.5514 -1.9548
  126MOL    H6322813   2.803   7.160   7.994  0.8536  0.0829  1.8361
  126MOL    H6422814   2.912   7.291   7.950  0.0338  1.0040  1.4991
  126MOL    C6522815   2.958   7.237   7.542 -0.5089 -0.1263  0.2944
  126MOL    C6622816   3.081   7.159   7.579  0.1438  0.1728  0.6311
  126MOL    C6722817   2.984   7.355   7.444  0.2172 -0.0985  0.5524
  126MOL    O6822818   3.096   7.386   7.405  0.2359  0.3943 -0.2685
  126MOL    O6922819   2.868   7.408   7.406  0.2514 -0.2156  0.1852
  126MOL    H7022820   2.893   7.168   7.487  0.3113 -1.0286  0.4558
  126MOL    H7122821   3.146   7.215   7.646  3.1092 -3.0148  0.6126
  126MOL    H7222822   3.054   7.061   7.620 -0.7219  0.1195 -0.0496
  126MOL    H7322823   3.140   7.150   7.488 -2.7684  2.3091 -1.5646
  126MOL    C7422824   2.856   7.512   7.302 -0.1814  0.0669  0.4968
  126MOL    C7522825   2.701   7.556   7.302 -0.3455  0.1998 -0.1825
  126MOL    C7622826   2.916   7.455   7.173 -0.2957  0.3359  0.0565
  126MOL    O7722827   3.010   7.508   7.113 -0.1654 -0.6478  0.3090
  126MOL    O7822828   2.859   7.337   7.147  0.6394 -0.0855  0.6860
  126MOL    H7922829   2.919   7.595   7.332  0.5284  0.0300 -0.8779
  126MOL    H8022830   2.696   7.665   7.299  1.4097  0.2455 -1.7779
  126MOL    H8122831   2.650   7.511   7.217  0.9335 -1.8548  0.1162
  126MOL    H8222832   2.644   7.516   7.387  0.9170 -0.4492  0.3746
  126MOL    C8322833   2.864   7.272   7.019  0.1162  0.1425 -0.2761
  126MOL    C8422834   2.786   7.138   7.044  0.3005 -0.1215  0.1967
  126MOL    C8522835   3.011   7.239   6.982  0.9237  0.7978 -0.0472
  126MOL    O8622836   3.077   7.159   7.049  0.1202 -0.6895  0.2340
  126MOL    O8722837   3.052   7.295   6.869 -0.6600  0.6843  0.0876
  126MOL    H8822838   2.804   7.319   6.941 -0.1346 -0.6638 -0.5692
  126MOL    H8922839   2.792   7.073   6.957 -1.2738 -0.5357  0.3865
  126MOL    H9022840   2.836   7.082   7.123 -1.4827 -0.4189  1.1498
  126MOL    H9122841   2.680   7.160   7.054  0.1457 -0.3823 -0.7634
  126MOL    C9222842   3.177   7.264   6.806 -1.3289 -0.1386  0.2196
  126MOL    C9322843   3.195   7.370   6.698  0.3497 -0.6908  0.0083
  126MOL    C9422844   3.177   7.124   6.747  0.9849  0.0357  0.4129
  126MOL    O9522845   3.276   7.049   6.740  0.5322  0.0977 -0.0648
  126MOL    O9622846   3.051   7.090   6.718 -0.3189  0.3809 -0.2671
  126MOL    H9722847   3.250   7.260   6.887 -0.6843 -1.5817 -0.4126
  126MOL    H9822848   3.284   7.351   6.637  0.9257 -3.6673  1.6682
  126MOL    H9922849   3.108   7.393   6.637 -0.0605 -1.5210  0.2759
  126MOL   H10022850   3.211   7.466   6.748 -1.2705 -0.2128 -0.3720
  126MOL   C10122851   3.019   6.958   6.661 -0.2443 -0.6791 -0.9499
  126MOL   C10222852   2.880   6.961   6.602 -0.1451 -0.0672 -0.2705
  126MOL   C10322853   3.041   6.845   6.764  0.9931  0.3783  0.5557
  126MOL   O10422854   3.128   6.755   6.748 -0.1467 -0.6107 -0.0323
  126MOL   O10522855   2.961   6.853   6.873 -0.0148  0.0583  0.1873
  126MOL   H10622856   3.086   6.927   6.581  2.4789  2.5300 -0.0212
  126MOL   H10722857   2.868   7.030   6.518  1.4154  1.9141  1.0673
  126MOL   H10822858   2.856   6.862   6.563 -2.7843 -0.7243  2.7862
  126MOL   H10922859   2.807   6.995   6.676  0.5343  0.4023  0.1892
  126MOL   C11022860   2.971   6.760   6.987  0.4756  0.3483 -0.8016
  126MOL   C11122861   2.826   6.744   7.044  0.0112  0.1441 -0.2116
  126MOL   C11222862   3.064   6.819   7.096  0.9183  0.3998  0.5823
  126MOL   O11322863   3.020   6.872   7.200 -0.2073  0.1078  0.5202
  126MOL   O11422864   3.189   6.806   7.054  0.4077 -0.5938  0.2432
  126MOL   H11522865   3.010   6.664   6.955 -0.4544 -0.0804 -0.6751
  126MOL   H11622866   2.828   6.666   7.120  0.1368 -0.6727 -1.0339
  126MOL   H11722867   2.786   6.834   7.089 -0.2933  0.2353 -0.6608
  126MOL   H11822868   2.746   6.708   6.978  0.1873  1.7787 -1.3497
  126MOL   C11922869   3.293   6.836   7.137 -0.3982 -0.4631 -0.0023
  126MOL   C12022870   3.414   6.856   7.048 -0.7688  0.0883 -0.7629
  126MOL   C12122871   3.318   6.726   7.234 -0.0193 -0.6992 -0.1854
  126MOL   O12222872   3.262   6.722   7.342 -0.2499 -0.1784  0.0320
  126MOL   O12322873   3.412   6.633   7.185 -0.0051  0.4782 -0.0416
  126MOL   H12422874   3.267   6.925   7.194 -0.2684 -0.7946  0.5794
  126MOL   H12522875   3.434   6.771   6.982 -0.5201 -1.7116  1.5480
  126MOL   H12622876   3.409   6.947   6.989  2.1269  2.3678  2.3214
  126MOL   H12722877   3.499   6.866   7.116 -0.8287 -3.2407 -0.0937
  126MOL   C12822878   3.460   6.529   7.270 -0.1381  0.4021 -0.7522
  126MOL   C12922879   3.595   6.481   7.216  0.2130  0.5633 -0.1713
  126MOL   C13022880   3.358   6.414   7.284  0.5577  0.1700  0.4177
  126MOL   O13122881   3.305   6.381   7.389  0.3155 -0.7177  0.1279
  126MOL   O13222882   3.330   6.349   7.165  0.3374  0.5675  0.0813
  126MOL   H13322883   3.469   6.571   7.370 -0.6170 -0.2733 -0.4160
  126MOL   H13422884   3.593   6.468   7.108 -0.4605  1.9150 -0.3342
  126MOL   H13522885   3.679   6.545   7.241  0.7955  0.1025 -0.9562
  126MOL   H13622886   3.629   6.388   7.262  0.7375  1.5942  1.5579
  126MOL   C13722887   3.205   6.274   7.153  0.4871 -0.6377 -0.1251
  126MOL   C13822888   3.227   6.180   7.030  0.2988 -0.7772 -0.5987
  126MOL   C13922889   3.076   6.356   7.128  0.0857 -0.3766 -0.3282
  126MOL   O14022890   3.079   6.480   7.112  0.0356 -0.2124  0.1640
  126MOL   O14122891   2.969   6.276   7.113  0.4492 -0.2895 -0.4720
  126MOL   H14222892   3.188   6.205   7.236 -0.0202 -0.4828 -0.1012
  126MOL   H14322893   3.318   6.122   7.042  1.1791  0.7768  0.4081
  126MOL   H14422894   3.143   6.113   7.013  0.3516 -0.4114 -2.4498
  126MOL   H14522895   3.241   6.237   6.938  0.4183  0.3570  0.1042
  126MOL   C14622896   2.853   6.328   7.048 -0.9543 -0.4383  0.6542
  126MOL   C14722897   2.751   6.216   7.070  0.6597  0.0536  0.1583
  126MOL   C14822898   2.878   6.356   6.897 -0.4245 -0.0201 -0.0050
  126MOL   O14922899   2.970   6.296   6.841  0.9207  0.4380  0.1491
  126MOL   O15022900   2.801   6.449   6.832  0.1526 -0.0297  0.6031
  126MOL   H15122901   2.810   6.415   7.097 -0.4272  0.5590 -0.6606
  126MOL   H15222902   2.785   6.133   7.008  1.2744  0.9804 -0.7576
  126MOL   H15322903   2.750   6.155   7.161 -0.1349 -1.3669 -0.7790
  126MOL   H15422904   2.654   6.253   7.038  0.3281  0.6122  1.7551
  126MOL   C15522905   2.847   6.501   6.702  0.2798  0.2694 -0.2098
  126MOL   C15622906   2.744   6.618   6.684  0.5479  0.2904  0.4254
  126MOL   C15722907   2.832   6.396   6.586 -0.1944  0.1583 -0.2229
  126MOL   O15822908   2.905   6.407   6.486 -0.1955  0.8716  0.0595
  126MOL   O15922909   2.732   6.307   6.610 -0.2033 -0.3367  0.9790
  126MOL   H16022910   2.943   6.551   6.712 -0.3464  1.8372 -1.6614
  126MOL   H16122911   2.770   6.702   6.749 -2.7064  0.4939  1.5555
  126MOL   H16222912   2.736   6.651   6.580  3.1927  2.1257  0.7430
  126MOL   H16322913   2.644   6.584   6.709  0.9904 -1.6778 -0.4316
  126MOL   C16422914   2.697   6.203   6.511  0.0773 -0.3376  0.0600
  126MOL   C16522915   2.580   6.124   6.571  0.4088  0.5087 -0.3654
  126MOL   C16622916   2.816   6.107   6.479 -0.0030  0.6224 -0.1423
  126MOL   O16722917   2.917   6.085   6.549  0.4209 -0.0816  0.4437
  126MOL   O16822918   2.789   6.046   6.364  0.0211  0.1344 -0.2822
  126MOL   H16922919   2.667   6.244   6.415 -2.5467 -1.8435  0.1812
  126MOL   H17022920   2.561   6.033   6.513  1.1331  1.0164 -1.3998
  126MOL   H17122921   2.596   6.093   6.675 -1.5945 -0.6369 -0.3542
  126MOL   H17222922   2.486   6.179   6.570  0.2283  0.2804  1.4945
  126MOL   C17322923   2.833   5.917   6.335 -0.0673 -0.3692  0.2129
  126MOL   C17422924   2.936   5.933   6.218 -0.3412  0.1058  0.6321
  126MOL   C17522925   2.709   5.829   6.310 -0.6447  0.0731  0.7718
  126MOL   O17622926   2.676   5.781   6.198  0.1312 -0.2048 -0.4499
  126MOL   O17722927   2.634   5.822   6.420  0.3111  0.7305  0.0313
  126MOL   H17822928   2.886   5.883   6.423  1.3075  1.7242  0.2318
  126MOL   H17922929   3.032   5.976   6.244 -0.7863  0.1217  2.2824
  126MOL   H18022930   2.959   5.827   6.202  1.5614  1.0380 -3.3346
  126MOL   H18122931   2.895   5.983   6.131 -2.6125 -0.3859  1.3758
  126MOL   H18222932   2.545   5.792   6.412  1.1261 -1.9843  0.5500
  127MOL     C122933   4.055   0.055   1.980  1.0696 -0.0132  0.2829
  127MOL     C222934   4.155   0.062   2.096  0.5915 -0.5878  0.1685
  127MOL     C322935   4.024   8.060   1.919  0.1837 -0.4038 -0.6850
  127MOL     O422936   3.905   8.020   1.930 -0.4385  0.1917 -0.0677
  127MOL     O522937   4.123   7.997   1.857  0.6140  0.3096  0.6285
  127MOL     H622938   3.961   0.107   2.001  2.2476  1.9728  0.7796
  127MOL     H722939   4.164   0.159   2.145  0.0043  0.7387 -2.2915
  127MOL     H822940   4.118   8.139   2.170 -1.8614  0.4366 -0.0572
  127MOL     H922941   4.253   0.042   2.053  0.2068 -1.0740 -0.4854
  127MOL    H1022942   4.101   0.108   1.897 -1.5150  2.1244  0.1477
  127MOL    C1122943   4.104   7.865   1.805 -0.3624 -0.1521 -0.1966
  127MOL    C1222944   4.235   7.790   1.792  0.3047  0.1831 -0.1252
  127MOL    C1322945   4.030   7.868   1.675  0.6401 -0.0150  0.0769
  127MOL    O1422946   4.011   7.970   1.612 -0.4194  0.3907 -0.1857
  127MOL    O1522947   4.011   7.750   1.634 -0.4949 -0.7974  0.8993
  127MOL    H1622948   4.052   7.807   1.880  2.9401 -1.9716  0.7899
  127MOL    H1722949   4.286   7.783   1.888  1.3988  0.3253 -0.6973
  127MOL    H1822950   4.210   7.690   1.757  0.8155  0.1666 -0.4470
  127MOL    H1922951   4.304   7.834   1.720 -0.5725 -0.9298 -1.6611
  127MOL    C2022952   3.963   7.714   1.496  0.2499 -0.0381 -0.2440
  127MOL    C2122953   3.946   7.560   1.490 -0.2435  0.0873  0.8337
  127MOL    C2222954   4.081   7.745   1.400  0.3025 -0.3796  0.2929
  127MOL    O2322955   4.170   7.661   1.373 -0.1501 -0.9035  0.5885
  127MOL    O2422956   4.062   7.870   1.355 -0.2037 -0.0969  0.2646
  127MOL    H2522957   3.872   7.770   1.474  0.5690 -1.1455 -4.9699
  127MOL    H2622958   3.886   7.521   1.408  0.6775  0.0336  0.1695
  127MOL    H2722959   4.039   7.503   1.490  0.4463  1.1416  3.5979
  127MOL    H2822960   3.886   7.548   1.580 -1.3608 -0.0428  0.0712
  127MOL    C2922961   4.167   7.934   1.279  0.3178 -0.2527  0.2622
  127MOL    C3022962   4.256   8.027   1.370  0.5414  0.0602  0.0530
  127MOL    C3122963   4.116   7.990   1.143  0.9474 -0.3705  0.5687
  127MOL    O3222964   4.030   7.928   1.085  0.2891 -0.0847  0.4461
  127MOL    O3322965   4.185   8.097   1.109  1.0709  0.4957  0.6509
  127MOL    H3422966   4.246   7.867   1.245  0.2376 -1.6078  2.6682
  127MOL    H3522967   4.346   8.074   1.330  1.8974 -1.3645  1.3865
  127MOL    H3622968   4.196   8.114   1.397  0.8660 -0.1881  1.5808
  127MOL    H3722969   4.282   7.984   1.466  1.0796 -0.1117 -0.1692
  127MOL    C3822970   4.171   8.146   0.979  0.3307  0.0363  0.3388
  127MOL    C3922971   4.271   0.122   0.962 -0.6861 -0.1754 -0.6471
  127MOL    C4022972   4.029   0.048   0.949  0.3611 -0.3697 -0.1141
  127MOL    O4122973   3.950   0.089   1.030  0.7319  0.1651 -0.4388
  127MOL    O4222974   4.008   0.065   0.812  0.1025  0.2382  0.0984
  127MOL    H4322975   4.208   8.077   0.903  0.2510  0.5682 -0.1955
  127MOL    H4422976   4.374   0.089   0.977 -0.3861  0.6071 -0.9867
  127MOL    H4522977   4.259   0.162   0.861  3.1455 -1.3928 -1.6620
  127MOL    H4622978   4.251   0.201   1.033  1.7249 -0.2488  0.1389
  127MOL    C4722979   3.889   0.128   0.767 -0.1366 -0.0391  0.2774
  127MOL    C4822980   3.881   0.067   0.629  0.3843 -0.3005  0.2112
  127MOL    C4922981   3.901   0.282   0.757  0.6859  0.6766  0.1405
  127MOL    O5022982   4.008   0.330   0.786  0.1699  0.0118 -0.1685
  127MOL    O5122983   3.796   0.350   0.721 -0.0478  0.1453 -1.0484
  127MOL    H5222984   3.799   0.097   0.820  0.5006 -2.3068  0.0747
  127MOL    H5322985   3.892   8.106   0.635  2.9486 -0.1050 -0.3251
  127MOL    H5422986   3.780   0.086   0.591  0.6695 -1.4004 -1.1584
  127MOL    H5522987   3.957   0.102   0.559 -0.0404 -1.5571 -0.9097
  127MOL    C5622988   3.800   0.496   0.711 -1.0587  0.6357  0.4881
  127MOL    C5722989   3.778   0.561   0.854 -0.3144 -0.4545  0.0587
  127MOL    C5822990   3.694   0.542   0.602 -0.1640 -0.0101 -0.3943
  127MOL    O5922991   3.631   0.457   0.537  0.5701 -0.1980 -0.1575
  127MOL    O6022992   3.678   0.676   0.584 -0.2861 -0.1562 -0.2622
  127MOL    H6122993   3.896   0.521   0.665 -0.2397 -4.3514 -0.8352
  127MOL    H6222994   3.866   0.535   0.913 -0.9892 -1.6322  0.5516
  127MOL    H6322995   3.784   0.670   0.853  1.8667 -0.5520  0.0933
  127MOL    H6422996   3.682   0.541   0.900  0.9129 -1.6861  2.1485
  127MOL    C6522997   3.574   0.734   0.501  0.5545 -0.5501 -0.0854
  127MOL    C6622998   3.606   0.882   0.458  0.7048 -0.0356 -0.0448
  127MOL    C6722999   3.436   0.721   0.557  0.4397  0.0535 -0.1418
  127MOL    O6823000   3.423   0.688   0.673 -0.2229  0.0200 -0.6280
  127MOL    O6923001   3.340   0.731   0.469  0.3351 -0.3025  0.4789
  127MOL    H7023002   3.578   0.679   0.407  1.6048 -2.1298  0.8621
  127MOL    H7123003   3.638   0.938   0.546  0.7301 -0.0075 -0.0719
  127MOL    H7223004   3.692   0.893   0.392  0.4665  0.5220 -0.2680
  127MOL    H7323005   3.523   0.928   0.404  0.2931 -2.9991 -2.0544
  127MOL    C7423006   3.208   0.701   0.505  0.0863  0.8491  0.5324
  127MOL    C7523007   3.163   0.590   0.409 -0.5515 -0.4007  0.0343
  127MOL    C7623008   3.132   0.825   0.476  0.0070 -0.1669  0.5170
  127MOL    O7723009   3.173   0.904   0.393  0.1102 -0.4216  0.0900
  127MOL    O7823010   3.023   0.839   0.549  0.4693 -0.0751 -0.0002
  127MOL    H7923011   3.203   0.668   0.609  0.7830 -0.1221  0.2712
  127MOL    H8023012   3.230   0.508   0.386 -1.0483 -0.9299  0.4378
  127MOL    H8123013   3.070   0.545   0.444  0.5974 -1.4441  1.8448
  127MOL    H8223014   3.145   0.628   0.309  0.1502  2.7811  1.0672
  127MOL    C8323015   2.945   0.957   0.519 -0.3717 -0.0600  0.2085
  127MOL    C8423016   2.869   1.005   0.644  0.0723 -0.0947 -0.3912
  127MOL    C8523017   2.852   0.931   0.395  0.3069  0.0370 -0.4151
  127MOL    O8623018   2.880   0.855   0.303 -0.0546 -0.4423  0.0783
  127MOL    O8723019   2.750   1.010   0.401  0.0006  0.9409  0.1160
  127MOL    H8823020   3.001   1.046   0.492 -1.0734  1.5449  3.6500
  127MOL    H8923021   2.829   1.105   0.628  2.7118  0.9974 -0.5210
  127MOL    H9023022   2.810   0.927   0.693  1.3984 -0.9466 -0.1063
  127MOL    H9123023   2.943   1.026   0.722  0.4283  0.9068 -0.9808
  127MOL    C9223024   2.654   1.030   0.289 -0.3167  0.5338 -0.2774
  127MOL    C9323025   2.705   1.143   0.206 -0.5292 -0.4877  0.4269
  127MOL    C9423026   2.513   1.059   0.336 -0.3983  0.0502 -0.1807
  127MOL    O9523027   2.457   1.162   0.295 -0.5666 -0.8598  0.0631
  127MOL    O9623028   2.454   0.964   0.411  0.0982  0.5442  0.5637
  127MOL    H9723029   2.648   0.941   0.227  0.3811  0.5112 -0.3246
  127MOL    H9823030   2.644   1.142   0.116  0.9589 -0.6133 -0.5947
  127MOL    H9923031   2.698   1.239   0.256 -0.7456  1.2724 -2.8363
  127MOL   H10023032   2.810   1.125   0.182 -0.8465  1.0032 -2.3040
  127MOL   C10123033   2.325   0.986   0.461 -0.2300 -0.4901  0.1729
  127MOL   C10223034   2.309   0.902   0.590 -0.1685  0.7061  0.1082
  127MOL   C10323035   2.217   0.961   0.354  0.6117  0.8963  0.1339
  127MOL   O10423036   2.127   1.045   0.317  0.3027 -0.0376 -0.3197
  127MOL   O10523037   2.220   0.824   0.315  0.3320  0.2333  0.3524
  127MOL   H10623038   2.315   1.089   0.493  0.1213 -0.3264 -0.2431
  127MOL   H10723039   2.384   0.928   0.664  0.3742 -0.6433  0.0389
  127MOL   H10823040   2.212   0.923   0.635  0.6350  1.7582  1.3864
  127MOL   H10923041   2.316   0.795   0.568  1.3722  0.6189  0.9844
  127MOL   C11023042   2.109   0.777   0.229  1.1185  0.2587 -0.1668
  127MOL   C11123043   2.105   0.623   0.248  0.1911 -0.6235  0.4064
  127MOL   C11223044   2.133   0.812   0.077  0.8051 -0.3166  0.4857
  127MOL   O11323045   2.240   0.837   0.032  0.0969  0.2604 -0.1009
  127MOL   O11423046   2.017   0.792   8.144  0.3018  0.5107  0.2793
  127MOL   H11523047   2.011   0.819   0.251  1.2010  0.1400  0.4388
  127MOL   H11623048   2.199   0.581   0.214 -0.6124 -1.5537 -0.6939
  127MOL   H11723049   2.076   0.603   0.351  0.4832  0.4811  0.7107
  127MOL   H11823050   2.023   0.577   0.193 -1.0678 -0.4735  2.1266
  127MOL   C11923051   2.035   0.798   8.002  0.2531  0.1922  0.1790
  127MOL   C12023052   1.903   0.829   7.932 -0.6336  0.5233 -0.6190
  127MOL   C12123053   2.090   0.668   7.949  0.1826  0.1257  0.2195
  127MOL   O12223054   2.117   0.574   8.025 -0.0636 -0.2819 -0.3953
  127MOL   O12323055   2.105   0.664   7.816  0.2770 -0.0347 -0.5771
  127MOL   H12423056   2.104   0.876   7.969 -0.7478  0.0147 -2.5272
  127MOL   H12523057   1.836   0.904   7.975 -0.3131 -0.1046  1.0179
  127MOL   H12623058   1.912   0.851   7.826  1.1185 -1.4314 -0.9117
  127MOL   H12723059   1.841   0.740   7.946  0.4309 -0.3059 -1.0932
  127MOL   C12823060   2.141   0.545   7.747  0.4513  0.1360 -0.2116
  127MOL   C12923061   2.183   0.583   7.599  0.0739 -0.0532  0.1456
  127MOL   C13023062   2.029   0.438   7.748  0.2616  0.4676 -0.2011
  127MOL   O13123063   2.048   0.327   7.782 -0.2166 -0.1872  0.1129
  127MOL   O13223064   1.910   0.485   7.700 -0.1093 -0.7473  0.0727
  127MOL   H13323065   2.232   0.510   7.796 -0.7107 -0.3400  1.6515
  127MOL   H13423066   2.274   0.643   7.594 -1.4450  2.3037 -0.0117
  127MOL   H13523067   2.212   0.491   7.549 -0.1678 -2.0680  3.5110
  127MOL   H13623068   2.108   0.646   7.552 -0.2192  0.9678  1.9145
  127MOL   C13723069   1.784   0.409   7.720  0.2205 -0.2042 -0.3990
  127MOL   C13823070   1.695   0.439   7.598  0.3017  0.3608  0.1511
  127MOL   C13923071   1.728   0.456   7.855 -1.1643  0.2091 -0.1581
  127MOL   O14023072   1.642   0.544   7.866 -0.5439 -0.0206  0.6682
  127MOL   O14123073   1.771   0.380   7.954 -0.0990 -0.2363 -0.1419
  127MOL   H14223074   1.793   0.300   7.717 -2.2213 -0.4306 -0.8819
  127MOL   H14323075   1.677   0.545   7.579  2.9287  1.0942  1.4943
  127MOL   H14423076   1.729   0.393   7.505  2.2832  1.8091  0.1260
  127MOL   H14523077   1.599   0.390   7.615 -0.1278  0.3289 -2.1317
  127MOL   C14623078   1.737   0.413   8.091 -0.2446 -0.5863  0.3975
  127MOL   C14723079   1.857   0.389   0.032 -0.2012  0.3384 -0.8697
  127MOL   C14823080   1.618   0.327   8.123  0.3842  0.1226 -0.0739
  127MOL   O14923081   1.529   0.370   0.048  0.2571  0.4344  0.3173
  127MOL   O15023082   1.620   0.209   8.067 -0.5369 -0.3824 -0.0087
  127MOL   H15123083   1.703   0.516   8.104  1.5404  0.2967 -1.5516
  127MOL   H15223084   1.849   0.437   0.129  2.9786  1.2101 -0.9921
  127MOL   H15323085   1.870   0.281   0.046 -0.1153  0.5933  1.1043
  127MOL   H15423086   1.945   0.440   8.141  0.5641  0.7154  1.3065
  127MOL   C15523087   1.504   0.127   8.043 -0.6008  0.6070 -0.1369
  127MOL   C15623088   1.559   8.134   8.048 -0.1055 -0.2282  0.0558
  127MOL   C15723089   1.432   0.168   7.910  0.3294  0.4894 -0.1572
  127MOL   O15823090   1.420   0.279   7.867 -0.4336 -1.0534  0.3575
  127MOL   O15923091   1.367   0.063   7.858 -0.2561  0.0929  0.5535
  127MOL   H16023092   1.436   0.130   8.129 -2.7178  0.6553 -1.7759
  127MOL   H16123093   1.488   8.062   8.087 -0.5332  0.8606  1.3016
  127MOL   H16223094   1.594   8.094   7.952 -2.1713 -1.0938 -0.3542
  127MOL   H16323095   1.644   8.127   8.116 -1.6551  1.2575  2.1997
  127MOL   C16423096   1.291   0.073   7.736 -0.0559  0.1501  0.1071
  127MOL   C16523097   1.234   8.076   7.717  0.1009  0.8155  0.2931
  127MOL   C16623098   1.374   0.105   7.607 -0.2666 -0.9389  0.2526
  127MOL   O16723099   1.499   0.103   7.609 -0.2558 -0.0905 -0.7877
  127MOL   O16823100   1.299   0.129   7.498  0.0608  0.0515  0.3208
  127MOL   H16923101   1.216   0.149   7.757 -0.4106  0.1461 -1.1120
  127MOL   H17023102   1.317   8.005   7.712 -1.5006 -1.1291  0.6468
  127MOL   H17123103   1.185   8.048   7.811  1.2401  0.5787  0.8239
  127MOL   H17223104   1.167   8.058   7.633 -0.7501  1.7696  0.7529
  127MOL   C17323105   1.363   0.174   7.381  0.4315  0.4464 -0.3575
  127MOL   C17423106   1.260   0.238   7.291 -0.5212  0.0379  0.1230
  127MOL   C17523107   1.439   0.061   7.306 -0.2000  0.3218  0.5256
  127MOL   O17623108   1.554   0.074   7.274  0.5780 -0.3249  0.3888
  127MOL   O17723109   1.358   8.106   7.267  0.6468  0.4092 -0.3420
  127MOL   H17823110   1.439   0.246   7.411  0.8681  0.4340 -1.3982
  127MOL   H17923111   1.216   0.317   7.350 -0.0573 -0.0888  0.6464
  127MOL   H18023112   1.292   0.292   7.201 -0.8838  2.1648  1.2478
  127MOL   H18123113   1.188   0.168   7.249 -0.8289  0.1652  0.4379
  127MOL   H18223114   1.269   8.110   7.298  0.3562 -0.6490 -1.0119
  128MOL     C123115   2.078   6.259   4.860 -0.7862  0.2635  0.3046
  128MOL     C223116   2.158   6.317   4.988 -0.3037  0.0167  0.0871
  128MOL     C323117   2.023   6.117   4.884  0.0972  0.1670  0.4061
  128MOL     O423118   2.072   6.028   4.815 -0.2864  0.1149 -0.3420
  128MOL     O523119   1.940   6.111   4.989  0.0989  0.3250 -0.5333
  128MOL     H623120   1.998   6.331   4.844 -0.8136  0.1009 -0.2981
  128MOL     H723121   2.224   6.240   5.029  2.6389  1.4148 -1.8416
  128MOL     H823122   2.223   6.402   4.969  0.3035 -0.5166 -0.2646
  128MOL     H923123   2.088   6.341   5.067 -2.0143 -0.5810 -1.2191
  128MOL    H1023124   2.139   6.247   4.770 -1.0725 -1.0659  0.2762
  128MOL    C1123125   1.905   5.989   5.045  0.0104  0.3248 -0.2151
  128MOL    C1223126   1.760   5.967   5.025 -0.2247  0.3862 -0.1993
  128MOL    C1323127   1.957   5.988   5.195  0.0162  0.7701  0.2241
  128MOL    O1423128   2.054   6.052   5.226  0.1084 -0.8427 -0.5547
  128MOL    O1523129   1.881   5.908   5.276  0.3986  0.4939  0.1683
  128MOL    H1623130   1.948   5.900   4.998  1.0799  0.5922  0.2496
  128MOL    H1723131   1.716   5.885   5.081  3.4020 -0.2768  1.7740
  128MOL    H1823132   1.722   6.066   5.051 -1.1750  0.1205 -0.5280
  128MOL    H1923133   1.741   5.936   4.922  0.6251  2.9060 -1.1643
  128MOL    C2023134   1.916   5.895   5.415  0.0075 -0.4275  0.5026
  128MOL    C2123135   1.826   5.784   5.479  0.2829  0.1044 -0.1802
  128MOL    C2223136   1.874   6.029   5.488  1.1002  0.3416  0.5725
  128MOL    O2323137   1.850   6.131   5.421 -0.3258  0.3665 -0.2073
  128MOL    O2423138   1.861   6.006   5.623  0.5346  0.4004 -0.4191
  128MOL    H2523139   2.024   5.880   5.420  0.0230 -0.8273 -0.8326
  128MOL    H2623140   1.837   5.698   5.413  2.8807 -0.7399  1.2719
  128MOL    H2723141   1.863   5.749   5.576  1.7655  2.6898  0.2405
  128MOL    H2823142   1.719   5.806   5.476  0.1736 -0.0100  1.8388
  128MOL    C2923143   1.834   6.107   5.713 -0.1006 -0.5575  0.5897
  128MOL    C3023144   1.884   6.075   5.851  0.6467 -0.1744 -0.2357
  128MOL    C3123145   1.683   6.138   5.719 -0.1148  0.1517 -0.0173
  128MOL    O3223146   1.595   6.051   5.704  0.1345  0.4481  0.2828
  128MOL    O3323147   1.663   6.266   5.747 -0.0765 -0.2088 -0.2709
  128MOL    H3423148   1.884   6.197   5.676  1.7519 -0.6602  2.7588
  128MOL    H3523149   1.984   6.116   5.864  0.1829  0.9039 -0.0184
  128MOL    H3623150   1.818   6.119   5.926 -0.7464  1.0845 -2.1599
  128MOL    H3723151   1.878   5.966   5.861 -2.5164 -0.0270  0.0713
  128MOL    C3823152   1.534   6.329   5.766  0.1099  0.2506  0.0431
  128MOL    C3923153   1.542   6.472   5.704 -0.0588  0.8383 -0.1209
  128MOL    C4023154   1.519   6.340   5.917 -0.4515 -0.1529 -0.7581
  128MOL    O4123155   1.420   6.295   5.971  0.6638 -0.4630 -0.7662
  128MOL    O4223156   1.616   6.413   5.971 -0.6419  0.3664  0.0105
  128MOL    H4323157   1.455   6.266   5.727  1.2141 -0.5532 -0.9344
  128MOL    H4423158   1.529   6.456   5.597  0.0953 -0.0876 -0.0105
  128MOL    H4523159   1.472   6.546   5.743  0.8740  2.3485 -1.2901
  128MOL    H4623160   1.640   6.516   5.716 -0.1294  0.3147  2.6671
  128MOL    C4723161   1.620   6.454   6.108 -0.5963  0.2008 -0.5216
  128MOL    C4823162   1.709   6.573   6.126 -0.5951  0.5329 -0.4676
  128MOL    C4923163   1.654   6.334   6.205 -0.1811  0.1122  0.0732
  128MOL    O5023164   1.691   6.229   6.156 -0.4111  0.0807 -0.6699
  128MOL    O5123165   1.642   6.351   6.333  0.0668 -0.3297 -0.1276
  128MOL    H5223166   1.521   6.491   6.136 -1.1167 -0.0878 -1.9658
  128MOL    H5323167   1.723   6.591   6.233  1.4583 -1.6452 -0.3188
  128MOL    H5423168   1.808   6.551   6.088 -0.8132 -0.6372 -0.3932
  128MOL    H5523169   1.666   6.656   6.070 -2.0176 -0.5889 -1.0628
  128MOL    C5623170   1.677   6.256   6.430  0.0825 -0.2227 -0.2914
  128MOL    C5723171   1.571   6.265   6.542  0.4254  0.4403 -0.3887
  128MOL    C5823172   1.818   6.291   6.478 -0.5484  0.0749 -0.1002
  128MOL    O5923173   1.868   6.404   6.468 -0.1996  0.4646  0.0037
  128MOL    O6023174   1.880   6.183   6.525  0.7913 -0.3556 -0.5057
  128MOL    H6123175   1.685   6.155   6.389 -1.6227  0.3895 -2.2410
  128MOL    H6223176   1.591   6.355   6.601  1.8864 -1.0549  1.4655
  128MOL    H6323177   1.474   6.281   6.495 -0.0790 -0.7394  0.2230
  128MOL    H6423178   1.573   6.191   6.622  1.5673  1.1395  0.2396
  128MOL    C6523179   2.017   6.181   6.539 -0.1911  0.7494 -0.7740
  128MOL    C6623180   2.070   6.035   6.515  0.2967  0.1609 -0.1162
  128MOL    C6723181   2.055   6.245   6.680  0.3098 -0.5037  0.4717
  128MOL    O6823182   1.968   6.261   6.763 -0.1822  0.3894 -0.3957
  128MOL    O6923183   2.179   6.282   6.690  0.2139 -0.0555  0.0586
  128MOL    H7023184   2.059   6.242   6.459 -0.3953  0.1967 -1.3013
  128MOL    H7123185   2.176   6.019   6.534  0.1206 -2.0159 -0.8509
  128MOL    H7223186   2.028   5.971   6.593  1.5588  2.5581  2.6006
  128MOL    H7323187   2.036   5.988   6.423 -0.7166  1.3275 -0.3576
  128MOL    C7423188   2.243   6.308   6.814 -0.4794 -0.4963 -0.0236
  128MOL    C7523189   2.368   6.397   6.797 -0.8467 -0.4764  0.0232
  128MOL    C7623190   2.278   6.174   6.882 -1.3029 -0.1192 -0.0519
  128MOL    O7723191   2.272   6.168   7.008  0.1582 -0.1784  0.1068
  128MOL    O7823192   2.327   6.072   6.792  0.1762 -0.1641 -0.1881
  128MOL    H7923193   2.186   6.368   6.885 -0.6771 -1.9288  1.0433
  128MOL    H8023194   2.405   6.450   6.885 -0.3469  0.9454 -1.0112
  128MOL    H8123195   2.447   6.347   6.742 -0.7873 -0.3622  0.0041
  128MOL    H8223196   2.335   6.470   6.722 -1.1715 -0.6539 -0.0044
  128MOL    C8323197   2.349   5.943   6.830  0.1238  0.9394 -0.4618
  128MOL    C8423198   2.398   5.850   6.724  0.1700 -0.1833  0.2060
  128MOL    C8523199   2.228   5.886   6.905  0.3725  0.3746  0.2463
  128MOL    O8623200   2.118   5.882   6.854  0.0964 -0.1546 -0.1964
  128MOL    O8723201   2.256   5.850   7.033  0.1817  0.2722  0.0312
  128MOL    H8823202   2.432   5.947   6.900 -1.2676  0.4107  1.2605
  128MOL    H8923203   2.500   5.882   6.704  1.2596 -2.9362  1.2082
  128MOL    H9023204   2.405   5.748   6.762  1.0323  0.7567  2.6672
  128MOL    H9123205   2.326   5.845   6.642  0.8097  1.1719 -0.4545
  128MOL    C9223206   2.158   5.804   7.122 -0.2519  0.1803 -0.3926
  128MOL    C9323207   2.132   5.904   7.241  0.1992  1.1713  0.5688
  128MOL    C9423208   2.212   5.669   7.176 -0.5055  0.1620  0.1542
  128MOL    O9523209   2.303   5.663   7.261  0.5004  0.1120  0.1442
  128MOL    O9623210   2.155   5.571   7.111  0.1293 -0.3865  0.6109
  128MOL    H9723211   2.063   5.785   7.074  0.3666 -2.2780 -0.6907
  128MOL    H9823212   2.136   6.002   7.193 -0.5397  0.7887 -0.2933
  128MOL    H9923213   2.034   5.887   7.283 -0.0483 -0.7940 -0.7124
  128MOL   H10023214   2.212   5.895   7.314 -0.3356  0.9638  1.1246
  128MOL   C10123215   2.198   5.434   7.137  0.7140 -0.0165  0.2579
  128MOL   C10223216   2.167   5.365   7.001  0.2682 -0.0650 -0.3851
  128MOL   C10323217   2.105   5.374   7.246 -0.1207 -0.0437  0.2590
  128MOL   O10423218   2.158   5.301   7.332 -1.2757  0.0756 -0.1984
  128MOL   O10523219   1.974   5.418   7.236 -0.1209 -0.1218  0.1180
  128MOL   H10623220   2.305   5.421   7.147  0.5759 -0.9033  0.6412
  128MOL   H10723221   2.196   5.260   7.007  1.0353  0.2006  0.6790
  128MOL   H10823222   2.065   5.365   6.963  0.2408 -0.4398 -0.3147
  128MOL   H10923223   2.234   5.408   6.927 -0.2430  1.2388 -0.0921
  128MOL   C11023224   1.871   5.368   7.323  0.3956 -0.7694 -0.3866
  128MOL   C11123225   1.738   5.354   7.240  0.3438 -0.2704  0.6732
  128MOL   C11223226   1.855   5.457   7.440  0.4239  0.5840 -0.2924
  128MOL   O11323227   1.741   5.474   7.492  0.1930 -0.9247  0.5761
  128MOL   O11423228   1.970   5.516   7.481  0.5976  0.0557  0.2024
  128MOL   H11523229   1.897   5.265   7.349  0.8139 -0.2308  1.3488
  128MOL   H11623230   1.660   5.322   7.310 -2.5191  4.2055 -0.2387
  128MOL   H11723231   1.712   5.450   7.195  2.4052 -0.4859 -1.0498
  128MOL   H11823232   1.758   5.277   7.165 -0.1528  0.5523 -0.3178
  128MOL   C11923233   1.971   5.594   7.599 -0.1888 -0.7627  0.2557
  128MOL   C12023234   2.101   5.676   7.581 -0.2741 -0.1200 -0.9059
  128MOL   C12123235   1.972   5.519   7.732 -0.0860 -0.6253  0.1686
  128MOL   O12223236   1.947   5.399   7.748  0.4643  0.1233  0.3506
  128MOL   O12323237   1.997   5.601   7.841  0.3814  0.2656 -0.0601
  128MOL   H12423238   1.890   5.667   7.597  1.3354  0.9351 -1.1713
  128MOL   H12523239   2.097   5.748   7.499 -0.6411  1.2191  0.2664
  128MOL   H12623240   2.123   5.742   7.664  0.2593 -4.1285  2.2984
  128MOL   H12723241   2.184   5.606   7.571 -0.3596 -0.9523  3.4877
  128MOL   C12823242   1.981   5.558   7.978 -0.3865 -0.2403  0.2347
  128MOL   C12923243   1.946   5.687   8.054  0.0811  0.1012  0.2833
  128MOL   C13023244   2.122   5.498   8.022 -0.2380  0.0231  0.1905
  128MOL   O13123245   2.138   5.377   8.039 -0.0386 -0.0439 -0.1383
  128MOL   O13223246   2.212   5.586   8.032 -0.0127  0.2364  0.1822
  128MOL   H13323247   1.901   5.490   8.006  0.8038 -0.6644  2.7870
  128MOL   H13423248   1.903   5.658   0.003  2.7519 -2.6489  0.7264
  128MOL   H13523249   2.025   5.759   8.073 -0.3876  0.9536 -0.9638
  128MOL   H13623250   1.864   5.741   8.007 -0.8738 -1.1293  0.5036
  128MOL   C13723251   2.337   5.562   8.086 -0.3787 -0.1258  0.0120
  128MOL   C13823252   2.322   5.585   0.087  0.0214  0.3655  0.3286
  128MOL   C13923253   2.445   5.646   8.017 -0.0978 -0.1505  0.2975
  128MOL   O14023254   2.422   5.725   7.922 -0.0411  0.4670 -0.9146
  128MOL   O14123255   2.566   5.613   8.060 -0.5593 -0.0971  0.8731
  128MOL   H14223256   2.362   5.457   8.073  1.0557  0.5807 -3.5637
  128MOL   H14323257   2.276   5.684   0.095 -0.5796  0.1704 -0.5738
  128MOL   H14423258   2.253   5.521   0.142 -1.8212  1.3947 -0.7323
  128MOL   H14523259   2.423   5.588   0.127 -0.2898 -0.5249  1.2113
  128MOL   C14623260   2.683   5.685   8.024  0.0252  0.1391  0.3716
  128MOL   C14723261   2.805   5.599   8.069  0.2765 -0.2748 -0.0696
  128MOL   C14823262   2.686   5.826   8.089  0.0577 -0.1211  0.0473
  128MOL   O14923263   2.596   5.870   0.014  0.5087  0.5417  0.3591
  128MOL   O15023264   2.794   5.893   8.047 -0.2112 -0.3386  0.0954
  128MOL   H15123265   2.688   5.697   7.915  1.5160 -3.3277 -0.0203
  128MOL   H15223266   2.827   5.622   0.026  1.3559 -1.1626 -0.0987
  128MOL   H15323267   2.788   5.493   8.053 -2.4191  0.0644  0.2998
  128MOL   H15423268   2.894   5.608   8.008  0.0340 -1.9037 -0.6814
  128MOL   C15523269   2.812   6.034   8.052 -0.0249 -0.0479 -0.1040
  128MOL   C15623270   2.843   6.089   0.046  0.3919  0.2881 -0.4844
  128MOL   C15723271   2.697   6.112   7.984  0.7039  0.0924  0.9590
  128MOL   O15823272   2.654   6.071   7.876  0.4789 -0.5510 -0.2883
  128MOL   O15923273   2.650   6.218   8.055 -0.0670  0.1013  0.9269
  128MOL   H16023274   2.904   6.052   7.997 -0.3752 -2.3648 -1.5205
  128MOL   H16123275   2.867   6.194   0.030  2.7009 -0.3480 -1.3033
  128MOL   H16223276   2.769   6.065   0.122  0.6816 -1.3948 -0.7183
  128MOL   H16323277   2.932   6.045   0.091  0.1578  2.0308  1.7782
  128MOL   C16423278   2.551   6.303   8.006  0.0105 -0.3288  1.0895
  128MOL   C16523279   2.560   6.429   8.085  1.0702  0.1607  0.1230
  128MOL   C16623280   2.410   6.241   8.023  0.7897  0.2683  0.4958
  128MOL   O16723281   2.334   6.228   7.932 -0.3250  1.0203  0.3139
  128MOL   O16823282   2.384   6.208   0.005 -0.0239 -0.5370  0.1593
  128MOL   H16923283   2.568   6.339   7.905  1.1428 -0.4778  1.2216
  128MOL   H17023284   2.516   6.509   8.025  1.2300 -0.8708 -1.4045
  128MOL   H17123285   2.513   6.436   0.035 -2.1864  2.9627 -1.5365
  128MOL   H17223286   2.663   6.462   8.095  1.7746 -1.9664  0.2446
  128MOL   C17323287   2.259   6.141   0.043  0.1498 -0.3134  0.1684
  128MOL   C17423288   2.184   6.214   0.155 -0.4934  0.5396 -0.3977
  128MOL   C17523289   2.293   5.997   0.068  0.8618 -0.7434 -0.0317
  128MOL   O17623290   2.250   5.902   0.006 -0.1498 -0.3707  0.1790
  128MOL   O17723291   2.386   5.992   0.173 -0.6638 -0.0828 -0.1891
  128MOL   H17823292   2.187   6.144   8.109  2.1635  0.0885 -1.6130
  128MOL   H17923293   2.177   6.322   0.139 -0.8666  0.7243  0.8785
  128MOL   H18023294   2.083   6.173   0.164 -1.0161  1.7905 -0.4690
  128MOL   H18123295   2.225   6.196   0.254  0.1666  1.2660 -0.5352
  128MOL   H18223296   2.419   5.904   0.185 -0.1819 -0.0662 -1.3383
  129MOL     C123297   7.729   3.242   0.120  0.4802  0.0021 -0.8006
  129MOL     C223298   7.583   3.285   0.121 -0.1500 -0.3678 -0.4492
  129MOL     C323299   7.800   3.233   8.131  0.1599 -1.0740  0.9226
  129MOL     O423300   7.748   3.276   8.027 -0.3034  0.1047 -0.3740
  129MOL     O523301   7.922   3.193   0.002 -0.2103 -0.2985  0.5015
  129MOL     H623302   7.798   3.296   0.185  0.9997  2.0984 -3.0062
  129MOL     H723303   7.519   3.238   0.046 -0.4115 -1.3211  0.3752
  129MOL     H823304   7.533   3.279   0.217 -1.1856 -0.3568 -0.9835
  129MOL     H923305   7.588   3.390   0.090  1.1759 -0.6078 -1.1068
  129MOL    H1023306   7.727   3.141   0.161  0.6730 -0.0083 -0.8156
  129MOL    C1123307   7.999   3.164   8.032 -0.3171 -0.0711 -0.7460
  129MOL    C1223308   7.946   3.050   7.939 -0.1044 -0.0160 -0.2456
  129MOL    C1323309   8.147   3.146   8.077  0.2810  0.1554 -0.6335
  129MOL    O1423310   0.068   3.039   8.066  0.6845 -0.0944  1.0320
  129MOL    O1523311   0.041   3.247   0.001 -0.2194  0.3172  0.2523
  129MOL    H1623312   8.007   3.247   7.961  0.6235 -0.8606 -1.5725
  129MOL    H1723313   7.906   2.970   8.001 -0.3077  1.4521  1.5689
  129MOL    H1823314   7.868   3.082   7.871  1.6551  0.2872 -2.1782
  129MOL    H1923315   8.034   3.006   7.891 -0.8312 -0.8457 -0.8324
  129MOL    C2023316   0.157   3.246   0.080 -0.2735  0.1682  0.0445
  129MOL    C2123317   0.157   3.330   0.203  0.3714 -0.2483 -0.2176
  129MOL    C2223318   0.267   3.284   8.128  0.0249  0.1848  0.3354
  129MOL    O2323319   0.372   3.234   8.141  0.3421  0.3279  0.2632
  129MOL    O2423320   0.228   3.378   8.037 -0.0517  0.3803 -0.4490
  129MOL    H2523321   0.167   3.147   0.126  1.9780  0.3573  0.0149
  129MOL    H2623322   0.159   3.438   0.190  0.4213 -0.1127  0.9104
  129MOL    H2723323   0.078   3.296   0.269  1.0843 -0.8431  0.3323
  129MOL    H2823324   0.255   3.316   0.248  0.0864  0.3226  0.5975
  129MOL    C2923325   0.311   3.412   7.923  0.0742 -0.2259 -0.1465
  129MOL    C3023326   0.234   3.510   7.836  0.7430 -0.0905  0.4571
  129MOL    C3123327   0.362   3.289   7.847 -0.4884  0.2739  0.3639
  129MOL    O3223328   0.289   3.213   7.785 -0.3547  0.0907  0.0240
  129MOL    O3323329   0.502   3.283   7.843 -0.5735  0.4754  0.8256
  129MOL    H3423330   0.395   3.466   7.967 -0.9089  2.0220 -0.9617
  129MOL    H3523331   0.211   3.611   7.871 -1.5796 -0.2360 -0.5489
  129MOL    H3623332   0.298   3.526   7.749  1.3872  1.1702  1.1407
  129MOL    H3723333   0.147   3.461   7.793  1.3318 -0.7553  0.0179
  129MOL    C3823334   0.555   3.186   7.750 -0.3812  0.4858  0.6074
  129MOL    C3923335   0.676   3.114   7.821 -0.4204  0.3120  0.2723
  129MOL    C4023336   0.598   3.265   7.624 -0.4968  0.2671  0.0401
  129MOL    O4123337   0.524   3.343   7.563  0.0120 -0.1607 -0.8360
  129MOL    O4223338   0.727   3.243   7.592 -0.3542  0.0405  0.1586
  129MOL    H4323339   0.496   3.105   7.708 -0.1561  0.6835 -0.0957
  129MOL    H4423340   0.736   3.188   7.873 -0.4228  0.3491  0.2233
  129MOL    H4523341   0.630   3.047   7.894 -4.0835 -0.5419 -2.6572
  129MOL    H4623342   0.737   3.056   7.751  1.3790  1.7905  0.5851
  129MOL    C4723343   0.784   3.307   7.482 -0.3123  0.0454  0.2157
  129MOL    C4823344   0.894   3.209   7.421  0.4078 -0.3896  0.5255
  129MOL    C4923345   0.837   3.442   7.525  0.5133  0.1149 -0.4083
  129MOL    O5023346   0.956   3.454   7.551 -0.1890  0.0814 -0.4762
  129MOL    O5123347   0.741   3.530   7.530  0.0723 -0.0826 -0.0747
  129MOL    H5223348   0.717   3.300   7.397  0.0977  0.2804 -0.1327
  129MOL    H5323349   0.843   3.113   7.423 -0.4407  0.0342 -0.5372
  129MOL    H5423350   0.924   3.241   7.321  1.4035  1.2516  1.3251
  129MOL    H5523351   0.981   3.210   7.487  0.6062  0.0948  0.2607
  129MOL    C5623352   0.754   3.643   7.612  0.2474 -0.4408  0.4513
  129MOL    C5723353   0.607   3.682   7.653 -0.8070  0.7655  0.1740
  129MOL    C5823354   0.827   3.761   7.531 -0.4739  0.6445  0.1852
  129MOL    O5923355   0.840   3.871   7.586 -0.1533 -0.5392  0.0888
  129MOL    O6023356   0.874   3.732   7.412 -0.4977 -0.4087  0.0241
  129MOL    H6123357   0.810   3.630   7.704 -2.5299 -1.8967  1.9997
  129MOL    H6223358   0.604   3.777   7.707 -0.2203  1.6783 -1.3783
  129MOL    H6323359   0.545   3.711   7.569 -1.8786 -0.0624  0.6676
  129MOL    H6423360   0.581   3.596   7.716  1.0627 -0.1104 -0.2067
  129MOL    C6523361   0.975   3.815   7.350  0.8749 -0.0277  0.6449
  129MOL    C6623362   0.991   3.761   7.203 -0.2674  0.1944  0.3757
  129MOL    C6723363   1.116   3.803   7.419 -0.4033  0.7106 -0.4952
  129MOL    O6823364   1.140   3.738   7.518  0.0017  0.3650 -0.0249
  129MOL    O6923365   1.213   3.881   7.359  0.5756 -0.7339 -0.0538
  129MOL    H7023366   0.952   3.921   7.355  2.1454  0.4069 -1.8680
  129MOL    H7123367   1.034   3.661   7.201  2.0062  1.1258 -0.3453
  129MOL    H7223368   0.895   3.761   7.152  0.2691  2.2124 -0.7263
  129MOL    H7323369   1.057   3.823   7.141  1.0633  0.1925  1.7489
  129MOL    C7423370   1.352   3.880   7.390  0.2387 -0.5146 -0.1794
  129MOL    C7523371   1.410   4.012   7.378  0.0717 -0.0671  0.6109
  129MOL    C7623372   1.434   3.777   7.304 -0.2581 -0.0394 -0.2771
  129MOL    O7723373   1.528   3.712   7.354 -0.0766  0.2482 -0.1928
  129MOL    O7823374   1.381   3.767   7.182  0.2699 -0.0540 -0.2590
  129MOL    H7923375   1.357   3.849   7.494 -2.3954  0.7536  0.3518
  129MOL    H8023376   1.515   4.005   7.403  0.2895  0.5558 -0.0980
  129MOL    H8123377   1.399   4.051   7.276  1.4889  0.2253  0.5695
  129MOL    H8223378   1.359   4.091   7.432  0.7888  1.0553 -0.3323
  129MOL    C8323379   1.413   3.664   7.093  0.8531  0.1158 -0.2654
  129MOL    C8423380   1.414   3.731   6.956  0.3733 -0.1340  0.5064
  129MOL    C8523381   1.322   3.547   7.122  0.1689 -0.5094 -0.8713
  129MOL    O8623382   1.250   3.543   7.224  0.1421  0.1668  0.0167
  129MOL    O8723383   1.342   3.444   7.034 -0.9383  0.2453 -0.2110
  129MOL    H8823384   1.516   3.629   7.108  0.8838  0.3705  0.1301
  129MOL    H8923385   1.485   3.813   6.943 -2.0068  2.0502  1.0491
  129MOL    H9023386   1.436   3.655   6.881 -0.9437 -0.4119  0.3977
  129MOL    H9123387   1.319   3.780   6.935  0.0533 -0.8108  0.3803
  129MOL    C9223388   1.278   3.317   7.054 -0.6163 -0.2740 -0.8837
  129MOL    C9323389   1.333   3.204   6.962  0.5072  0.3942 -0.4696
  129MOL    C9423390   1.126   3.332   7.035  0.6027 -0.1950  0.3394
  129MOL    O9523391   1.042   3.325   7.122  0.0285 -0.5669  0.6413
  129MOL    O9623392   1.092   3.346   6.903 -0.6177 -0.2842  0.0271
  129MOL    H9723393   1.307   3.284   7.153 -1.1428 -2.7974 -1.5379
  129MOL    H9823394   1.344   3.113   7.021 -0.0923  0.4078 -0.3350
  129MOL    H9923395   1.273   3.196   6.871 -0.0928 -1.5476  0.0612
  129MOL   H10023396   1.437   3.230   6.942  0.9595 -1.8509 -1.1774
  129MOL   C10123397   0.958   3.349   6.856  0.0954  0.6512 -0.0216
  129MOL   C10223398   0.951   3.364   6.703 -0.2674 -0.7507 -0.6816
  129MOL   C10323399   0.882   3.465   6.921 -0.8332 -0.2420  0.2073
  129MOL   O10423400   0.914   3.584   6.909 -0.5499 -0.4786  0.2464
  129MOL   O10523401   0.770   3.423   6.985 -0.2851 -1.0601 -0.2493
  129MOL   H10623402   0.914   3.255   6.887 -1.7169  1.1570 -0.9264
  129MOL   H10723403   0.863   3.307   6.675 -1.3985  1.4642 -1.8032
  129MOL   H10823404   0.947   3.471   6.680 -2.0689 -0.5636  0.3541
  129MOL   H10923405   1.038   3.327   6.649 -0.5103 -1.5691 -0.5124
  129MOL   C11023406   0.674   3.511   7.030  0.4421 -0.2478  0.9105
  129MOL   C11123407   0.626   3.480   7.177  0.2356  0.0681  0.5214
  129MOL   C11223408   0.552   3.502   6.944  0.1169 -0.2802  0.6128
  129MOL   O11323409   0.509   3.393   6.897  0.3591 -0.2660 -0.3509
  129MOL   O11423410   0.483   3.612   6.942  0.1754  0.1877  0.1518
  129MOL   H11523411   0.715   3.612   7.038 -0.0077 -0.0481  0.7286
  129MOL   H11623412   0.567   3.388   7.176  2.0897 -1.1316  0.3658
  129MOL   H11723413   0.708   3.469   7.249 -0.9348 -0.4759  1.8114
  129MOL   H11823414   0.563   3.561   7.214  1.2424  0.3220  1.7021
  129MOL   C11923415   0.368   3.632   6.863  0.6677  0.6660  0.2562
  129MOL   C12023416   0.346   3.781   6.840  0.7218 -0.1569 -0.5526
  129MOL   C12123417   0.242   3.564   6.934 -0.0745 -0.3031 -0.2317
  129MOL   O12223418   0.174   3.623   7.019 -0.0822 -0.0360 -0.3357
  129MOL   O12323419   0.210   3.447   6.888  0.1999 -0.2454  0.0519
  129MOL   H12423420   0.371   3.587   6.764  0.0262  0.4484  0.3302
  129MOL   H12523421   0.422   3.817   6.771  2.5876 -3.2604 -0.1637
  129MOL   H12623422   0.248   3.795   6.793  1.0536  3.2303 -0.3981
  129MOL   H12723423   0.350   3.849   6.926 -3.0165 -0.6621  0.0975
  129MOL   C12823424   0.105   3.369   6.946 -0.2847 -0.2740  0.3572
  129MOL   C12923425   0.147   3.224   6.909  0.1952 -0.1345 -0.0754
  129MOL   C13023426   8.121   3.404   6.883  0.4385 -1.1585  0.6914
  129MOL   O13123427   8.096   3.382   6.763  0.5029  0.4174 -0.0076
  129MOL   O13223428   8.043   3.470   6.966  0.4870 -0.0448 -0.0049
  129MOL   H13323429   0.097   3.373   7.055 -2.2709  3.1201  0.1357
  129MOL   H13423430   0.252   3.200   6.930  0.7449  1.4135 -0.9422
  129MOL   H13523431   0.073   3.165   6.963 -1.1724 -0.3413 -2.1311
  129MOL   H13623432   0.129   3.197   6.805 -0.9512  1.3341 -0.2655
  129MOL   C13723433   7.941   3.553   6.915 -0.6189  0.1600  0.7775
  129MOL   C13823434   8.008   3.685   6.879 -0.2071 -0.0376  0.1675
  129MOL   C13923435   7.828   3.579   7.014 -0.8247 -0.1570 -0.0756
  129MOL   O14023436   7.802   3.694   7.053  0.1201 -0.0841 -0.2287
  129MOL   O14123437   7.755   3.469   7.048  0.0799 -0.1611 -0.3213
  129MOL   H14223438   7.887   3.505   6.832  0.1690  1.0586 -0.2622
  129MOL   H14323439   7.938   3.754   6.831 -1.1650  1.0035  2.9467
  129MOL   H14423440   8.040   3.735   6.970 -0.7686 -1.4005  1.1209
  129MOL   H14523441   8.098   3.671   6.820  1.5460  0.1669  2.7550
  129MOL   C14623442   7.640   3.475   7.135  0.0511 -0.3495 -0.1958
  129MOL   C14723443   7.599   3.337   7.183  0.1122  0.4249  0.9458
  129MOL   C14823444   7.521   3.540   7.066 -1.0349  0.5041 -0.2205
  129MOL   O14923445   7.521   3.545   6.944  0.2260  0.8245  0.0724
  129MOL   O15023446   7.426   3.582   7.148  0.0443  0.1928 -0.2745
  129MOL   H15123447   7.663   3.532   7.225 -2.7773  0.0610  0.3182
  129MOL   H15223448   7.491   3.333   7.170  0.3709 -0.0613 -1.4084
  129MOL   H15323449   7.652   3.263   7.122  0.3055  1.2234  0.1211
  129MOL   H15423450   7.628   3.311   7.285 -1.8415  0.7347  1.5956
  129MOL   C15523451   7.297   3.624   7.089 -0.1274 -0.0451  0.3196
  129MOL   C15623452   7.212   3.698   7.195  0.8679 -0.0076 -0.2557
  129MOL   C15723453   7.211   3.507   7.032 -0.3912 -0.0864 -0.0478
  129MOL   O15823454   7.232   3.392   7.081  0.0903  0.1534  0.9044
  129MOL   O15923455   7.129   3.538   6.938  0.4002 -0.2628 -0.0265
  129MOL   H16023456   7.318   3.688   7.004  0.6879 -1.4862 -0.5701
  129MOL   H16123457   7.173   3.635   7.275 -0.9029 -1.7548 -2.4401
  129MOL   H16223458   7.257   3.790   7.232  2.1216 -0.3224 -0.9569
  129MOL   H16323459   7.121   3.717   7.139 -0.2033  0.7754  1.7137
  129MOL   C16423460   7.070   3.439   6.849  0.2108 -0.6736 -0.0670
  129MOL   C16523461   7.023   3.510   6.713  0.0347 -0.6799  0.2437
  129MOL   C16623462   6.961   3.377   6.933 -0.2539 -0.9754  0.0441
  129MOL   O16723463   6.866   3.438   6.973  0.0981  0.2335  0.0144
  129MOL   O16823464   6.985   3.245   6.954  0.8486 -0.5084  0.8533
  129MOL   H16923465   7.149   3.368   6.826  0.4116 -0.1745 -0.9314
  129MOL   H17023466   6.959   3.440   6.659 -1.3607 -0.3046  1.3721
  129MOL   H17123467   6.968   3.600   6.744 -0.0435  0.4789 -3.1067
  129MOL   H17223468   7.101   3.548   6.648  0.6391 -0.4584  1.0877
  129MOL   C17323469   6.916   3.174   7.059  0.6345 -0.1625  0.3406
  129MOL   C17423470   6.997   3.041   7.095 -0.5117 -0.2422  0.5978
  129MOL   C17523471   6.770   3.140   7.017  0.3044  0.0511  0.5006
  129MOL   O17623472   6.729   3.022   7.022  0.3158 -0.1429 -0.3468
  129MOL   O17723473   6.695   3.244   6.994  0.5606  0.1347  0.2002
  129MOL   H17823474   6.916   3.226   7.155  0.4791 -1.6041  1.1386
  129MOL   H17923475   6.939   2.965   7.147 -1.9121  0.5836  0.2794
  129MOL   H18023476   7.043   2.990   7.011 -0.1956 -0.6911  1.0454
  129MOL   H18123477   7.083   3.071   7.154 -0.5135  2.0274 -0.4588
  129MOL   H18223478   6.725   3.333   7.007  2.1081 -0.7413  3.0308
  130MOL     C123479   7.502   4.913   1.648 -0.0471 -0.5546 -0.2740
  130MOL     C223480   7.438   4.829   1.534 -0.0374 -0.0177  0.0294
  130MOL     C323481   7.614   5.007   1.605  0.7471  0.2779 -0.1249
  130MOL     O423482   7.731   4.985   1.632  0.0489 -1.2882  0.2161
  130MOL     O523483   7.569   5.117   1.537  0.1228 -0.3143  0.0668
  130MOL     H623484   7.430   4.972   1.705 -0.3452 -1.1714 -0.0010
  130MOL     H723485   7.369   4.901   1.489  1.5760  0.4897 -1.6850
  130MOL     H823486   7.503   4.806   1.451  0.1167  2.0141 -0.4272
  130MOL     H923487   7.371   4.755   1.579 -1.9056  1.7484  0.2507
  130MOL    H1023488   7.543   4.841   1.718 -1.7083  0.1901  1.5315
  130MOL    C1123489   7.671   5.203   1.487  0.0381 -0.1024  0.4688
  130MOL    C1223490   7.605   5.333   1.443  0.1319 -0.1162 -0.0127
  130MOL    C1323491   7.749   5.144   1.366  0.3199 -0.3921 -0.2413
  130MOL    O1423492   7.693   5.058   1.299 -0.6359 -0.2675  0.1230
  130MOL    O1523493   7.869   5.215   1.339 -0.7439 -0.4825  0.5524
  130MOL    H1623494   7.732   5.227   1.574 -1.8049 -3.5094  2.8040
  130MOL    H1723495   7.520   5.315   1.376  0.7462  0.3594 -0.9211
  130MOL    H1823496   7.556   5.389   1.523  0.5369  0.4435 -0.1581
  130MOL    H1923497   7.676   5.402   1.398  0.7548 -0.8551 -0.1677
  130MOL    C2023498   7.952   5.171   1.232  0.1563  0.2595 -1.0929
  130MOL    C2123499   8.072   5.279   1.223 -0.3437  0.3613 -0.1903
  130MOL    C2223500   7.885   5.179   1.094 -0.1874  0.6810 -0.1769
  130MOL    O2323501   7.874   5.081   1.026  0.2326  0.0747  0.2257
  130MOL    O2423502   7.850   5.303   1.066 -0.0030 -0.0805 -0.2025
  130MOL    H2523503   7.996   5.074   1.256 -1.7825  0.6585  4.9526
  130MOL    H2623504   8.131   5.263   1.313  2.3348 -0.6005 -2.0169
  130MOL    H2723505   8.146   5.254   1.146  1.0589  2.2531  0.4895
  130MOL    H2823506   8.028   5.378   1.218  0.1446  0.4681 -4.0085
  130MOL    C2923507   7.743   5.320   0.957 -0.7611 -0.2008  0.3162
  130MOL    C3023508   7.812   5.367   0.827 -0.2267  0.1032 -0.2668
  130MOL    C3123509   7.661   5.433   1.016 -0.2441 -0.2521  0.0079
  130MOL    O3223510   7.544   5.408   1.038 -0.0680 -0.2847  0.3489
  130MOL    O3323511   7.728   5.535   1.074  0.0480 -0.0022  0.0060
  130MOL    H3423512   7.689   5.227   0.940  0.9121 -1.3990  1.4046
  130MOL    H3523513   7.895   5.298   0.811 -0.9323 -0.2073 -2.7676
  130MOL    H3623514   7.740   5.352   0.746 -0.6615  0.7763 -0.0067
  130MOL    H3723515   7.861   5.464   0.825 -0.9078  0.4386 -0.7142
  130MOL    C3823516   7.658   5.641   1.148 -0.1318  0.0155 -0.1702
  130MOL    C3923517   7.584   5.745   1.058  0.1825  0.5315 -0.0305
  130MOL    C4023518   7.761   5.708   1.246 -0.4570  0.3432 -0.8501
  130MOL    O4123519   7.776   5.826   1.243  0.1822 -0.0409  0.6314
  130MOL    O4223520   7.825   5.625   1.322 -0.3624  0.0507 -0.1983
  130MOL    H4323521   7.578   5.603   1.212 -0.6435  0.9160 -0.2582
  130MOL    H4423522   7.495   5.781   1.109  0.4351 -2.4556  2.7044
  130MOL    H4523523   7.644   5.833   1.036 -0.5087  1.4032  1.4859
  130MOL    H4623524   7.540   5.706   0.967  1.1912  3.4424 -1.8310
  130MOL    C4723525   7.914   5.667   1.426 -0.3946  0.6481 -0.4700
  130MOL    C4823526   8.012   5.554   1.457  0.5245  0.8813  0.0777
  130MOL    C4923527   7.831   5.699   1.557 -0.1948  0.1997  1.2644
  130MOL    O5023528   7.802   5.820   1.577 -0.3186  0.2734 -0.1738
  130MOL    O5123529   7.799   5.586   1.633 -0.4911  0.5071  0.1818
  130MOL    H5223530   7.969   5.757   1.397 -1.4212  1.3060 -0.4325
  130MOL    H5323531   8.098   5.558   1.390  0.6563 -0.0835  0.1731
  130MOL    H5423532   8.048   5.560   1.560  1.0905 -3.1643  0.2301
  130MOL    H5523533   7.972   5.453   1.450 -0.6452  1.4169 -1.0072
  130MOL    C5623534   7.729   5.594   1.755 -0.6509 -0.2592 -0.2883
  130MOL    C5723535   7.739   5.459   1.827  0.2121  0.1657 -0.6449
  130MOL    C5823536   7.587   5.643   1.737 -0.2506 -1.0621 -0.3532
  130MOL    O5923537   7.553   5.744   1.786 -1.0264 -0.0311  0.6441
  130MOL    O6023538   7.517   5.569   1.660 -0.8129 -0.1849 -0.1189
  130MOL    H6123539   7.783   5.663   1.821 -0.0896 -0.9474 -0.0164
  130MOL    H6223540   7.846   5.439   1.827  0.3392  0.5055  2.8969
  130MOL    H6323541   7.702   5.456   1.929  1.3838 -0.4175 -0.2283
  130MOL    H6423542   7.682   5.380   1.778  0.3531  0.4683 -1.3006
  130MOL    C6523543   7.378   5.608   1.633 -0.1418 -0.1844 -0.8046
  130MOL    C6623544   7.282   5.482   1.648 -0.4563  0.0568 -0.3136
  130MOL    C6723545   7.370   5.669   1.494  0.0896  0.8795  0.7153
  130MOL    O6823546   7.471   5.694   1.423  0.4416 -0.1042 -0.2813
  130MOL    O6923547   7.245   5.697   1.463  0.3501 -0.0335  0.9115
  130MOL    H7023548   7.335   5.680   1.703  3.8168  2.5304 -1.0517
  130MOL    H7123549   7.299   5.406   1.572  1.4800 -0.9812  1.0933
  130MOL    H7223550   7.303   5.445   1.749  0.8103  0.1431 -0.5302
  130MOL    H7323551   7.178   5.514   1.638 -0.7104 -0.8469 -0.5660
  130MOL    C7423552   7.213   5.736   1.330  0.1670  0.6007  0.0537
  130MOL    C7523553   7.094   5.839   1.347  0.0579  0.2198 -0.9851
  130MOL    C7623554   7.172   5.605   1.254 -0.5914  0.0504 -0.1255
  130MOL    O7723555   7.148   5.503   1.321  0.1671 -0.5614 -0.7259
  130MOL    O7823556   7.150   5.625   1.122  0.0569  0.9091  0.0571
  130MOL    H7923557   7.293   5.772   1.266  1.4088 -1.1790  0.5660
  130MOL    H8023558   7.120   5.935   1.392 -0.8285 -0.0505  0.1059
  130MOL    H8123559   7.050   5.857   1.249 -2.9861 -0.1018  0.2716
  130MOL    H8223560   7.015   5.794   1.408 -0.1638  0.8250 -0.8292
  130MOL    C8323561   7.063   5.542   1.053  0.7526 -0.2781 -0.0718
  130MOL    C8423562   7.099   5.540   0.901  0.7144 -0.0232 -0.1429
  130MOL    C8523563   6.910   5.584   1.065  0.7181  0.4705 -0.3715
  130MOL    O8623564   6.822   5.501   1.037 -0.3910 -0.4618 -0.0595
  130MOL    O8723565   6.895   5.712   1.094 -0.5053  0.8418  0.0998
  130MOL    H8823566   7.081   5.444   1.097 -0.9286 -0.6506 -0.2051
  130MOL    H8923567   7.192   5.486   0.882  0.7547 -1.3593  3.6511
  130MOL    H9023568   7.021   5.488   0.846  1.0312 -1.2640  0.5713
  130MOL    H9123569   7.107   5.641   0.860  0.0338  0.1392  0.1260
  130MOL    C9223570   6.769   5.770   1.096  0.3319 -0.0647 -0.7965
  130MOL    C9323571   6.788   5.913   1.051 -0.4029  0.5512  0.3332
  130MOL    C9423572   6.724   5.771   1.244  0.3314 -0.0340 -0.4338
  130MOL    O9523573   6.794   5.747   1.343  0.1923  0.6951 -0.4544
  130MOL    O9623574   6.595   5.807   1.250 -0.0009  0.0361 -0.3750
  130MOL    H9723575   6.710   5.719   1.020 -3.6800  1.6698  0.9827
  130MOL    H9823576   6.844   5.925   0.958 -0.9846  1.1109  0.0559
  130MOL    H9923577   6.703   5.981   1.058 -0.6473  0.5484 -2.0862
  130MOL   H10023578   6.867   5.945   1.120  0.1219  0.0672 -0.0357
  130MOL   C10123579   6.534   5.842   1.377 -0.9136  0.5783  0.3694
  130MOL   C10223580   6.383   5.802   1.359 -0.3271  0.0226 -0.2403
  130MOL   C10323581   6.550   5.996   1.401  0.2151 -0.6511 -1.5354
  130MOL   O10423582   6.549   6.075   1.308 -0.2848  0.4719 -0.0811
  130MOL   O10523583   6.561   6.032   1.530  0.2992 -0.2722 -0.1342
  130MOL   H10623584   6.582   5.788   1.458  2.2372  1.0913 -1.0569
  130MOL   H10723585   6.338   5.869   1.285 -1.5084 -0.8604 -0.3474
  130MOL   H10823586   6.399   5.702   1.318  3.8959  0.9879 -1.0759
  130MOL   H10923587   6.327   5.805   1.452  2.1235  0.0096  1.2525
  130MOL   C11023588   6.559   6.161   1.576  0.2729 -0.9563 -0.4421
  130MOL   C11123589   6.618   6.176   1.722  0.4542  0.0694  0.0444
  130MOL   C11223590   6.417   6.223   1.565  0.3801 -0.4459  0.4180
  130MOL   O11323591   6.392   6.336   1.534  0.6729  0.0716 -0.0867
  130MOL   O11423592   6.327   6.130   1.605  0.4781  0.1028 -0.5840
  130MOL   H11523593   6.622   6.224   1.513  1.0294  0.0995  1.3325
  130MOL   H11623594   6.586   6.276   1.752  0.8451 -0.0528  0.8702
  130MOL   H11723595   6.588   6.099   1.793  2.0687  0.0765  0.7419
  130MOL   H11823596   6.726   6.167   1.720  0.2714 -2.5795 -0.7014
  130MOL   C11923597   6.183   6.158   1.608 -0.2199 -0.2820 -0.6369
  130MOL   C12023598   6.119   6.063   1.708 -0.1673 -0.2974 -0.4841
  130MOL   C12123599   6.119   6.144   1.469 -0.0383  0.3322 -0.0137
  130MOL   O12223600   6.155   6.058   1.391 -0.5278  0.6796  0.3171
  130MOL   O12323601   6.017   6.225   1.451  0.1036  0.0021 -0.5865
  130MOL   H12423602   6.155   6.259   1.638  0.4799 -0.7734  1.7153
  130MOL   H12523603   6.144   6.086   1.811  2.0699  2.6252 -1.5932
  130MOL   H12623604   6.011   6.064   1.689 -0.0851  1.6126 -1.0022
  130MOL   H12723605   6.162   5.968   1.678  0.3085 -0.1034 -0.4224
  130MOL   C12823606   5.916   6.204   1.346 -0.2191  0.3995 -0.1764
  130MOL   C12923607   5.805   6.308   1.372 -0.5396  0.3952 -0.6164
  130MOL   C13023608   5.847   6.070   1.370 -0.4073  0.2366 -0.5719
  130MOL   O13123609   5.872   6.001   1.471  0.0366  0.0902 -0.1401
  130MOL   O13223610   5.783   6.033   1.260 -0.3099 -0.1418 -0.6095
  130MOL   H13323611   5.967   6.228   1.253 -0.7509 -0.6631 -0.7450
  130MOL   H13423612   5.840   6.409   1.352  1.5351 -0.0588  0.4780
  130MOL   H13523613   5.733   6.292   1.292  0.8653  1.6104 -2.1672
  130MOL   H13623614   5.759   6.307   1.470  0.6578 -2.5049 -0.0281
  130MOL   C13723615   5.706   5.915   1.255  0.6901 -0.2128  0.0749
  130MOL   C13823616   5.707   5.870   1.116  0.4309  0.2144  0.1901
  130MOL   C13923617   5.565   5.939   1.316 -0.4511 -0.3912  0.9999
  130MOL   O14023618   5.521   6.056   1.322  0.0233  0.1415  0.0533
  130MOL   O14123619   5.514   5.823   1.338 -0.7325  0.4968  0.0669
  130MOL   H14223620   5.746   5.829   1.308 -0.5066  0.6125  2.3708
  130MOL   H14323621   5.796   5.814   1.087 -0.4121 -1.8589  1.4677
  130MOL   H14423622   5.620   5.806   1.103  0.4112  0.4172 -0.6922
  130MOL   H14523623   5.682   5.945   1.041  0.8390  0.3454  0.1818
  130MOL   C14623624   5.393   5.797   1.400  0.1850  0.4344  0.2970
  130MOL   C14723625   5.418   5.675   1.492 -0.3008 -0.2244 -0.1284
  130MOL   C14823626   5.295   5.769   1.288 -0.1457  0.3627 -0.8627
  130MOL   O14923627   5.191   5.712   1.311 -0.3405 -0.2050  0.1711
  130MOL   O15023628   5.328   5.828   1.173  0.5798  0.8935 -0.3460
  130MOL   H15123629   5.345   5.878   1.454 -0.2763  0.6671 -0.4618
  130MOL   H15223630   5.326   5.667   1.549 -0.6838 -1.3670 -0.8895
  130MOL   H15323631   5.420   5.579   1.440  1.9733 -0.3637  0.1628
  130MOL   H15423632   5.501   5.684   1.562  0.9451  2.3168 -1.8515
  130MOL   C15523633   5.238   5.840   1.063 -0.7257  0.2229  0.4768
  130MOL   C15623634   5.316   5.889   0.933 -0.1874  0.1342 -0.0139
  130MOL   C15723635   5.127   5.943   1.093  0.0061 -0.9740 -0.7269
  130MOL   O15823636   5.136   6.033   1.181 -0.4126 -0.1887 -0.5476
  130MOL   O15923637   5.016   5.918   1.013  0.2859  0.1256  0.5419
  130MOL   H16023638   5.196   5.741   1.044 -0.0506 -0.1806  1.0523
  130MOL   H16123639   5.342   5.994   0.941  0.7581 -0.0361 -0.8785
  130MOL   H16223640   5.402   5.831   0.902 -0.2236 -1.0788  2.0558
  130MOL   H16323641   5.255   5.878   0.844  1.0129 -0.8416 -0.7299
  130MOL   C16423642   4.898   5.997   1.031  0.4203  0.1044 -0.4815
  130MOL   C16523643   4.795   5.889   1.008  0.4069 -0.3447 -0.2158
  130MOL   C16623644   4.905   6.114   0.927  0.0814  0.3920 -0.1870
  130MOL   O16723645   4.889   6.230   0.971  0.1595  0.6222  0.3511
  130MOL   O16823646   4.930   6.074   0.806 -0.0449  0.0069 -0.1056
  130MOL   H16923647   4.891   6.036   1.132  1.0199 -1.3999  0.1588
  130MOL   H17023648   4.803   5.845   0.909 -0.5130 -1.4935  0.2082
  130MOL   H17123649   4.792   5.814   1.087 -0.0261 -0.5625 -0.4331
  130MOL   H17223650   4.693   5.928   1.008 -0.1532 -1.6835 -2.7574
  130MOL   C17323651   4.955   6.166   0.706 -0.2176 -0.0145 -0.2745
  130MOL   C17423652   4.878   6.104   0.587 -0.2842  0.2908  0.4688
  130MOL   C17523653   5.105   6.166   0.668 -0.4721 -0.1804 -0.0460
  130MOL   O17623654   5.143   6.163   0.547 -0.3352 -0.1180  0.0052
  130MOL   O17723655   5.200   6.169   0.767  0.6259  0.3328  0.0806
  130MOL   H17823656   4.924   6.269   0.727  0.7049 -0.4090  3.4851
  130MOL   H17923657   4.776   6.076   0.614 -0.3968 -1.8403 -2.0067
  130MOL   H18023658   4.877   6.178   0.506  1.8125  1.8291  1.7913
  130MOL   H18123659   4.930   6.012   0.561  0.3538  0.4375  1.2161
  130MOL   H18223660   5.285   6.166   0.725  1.4464  1.3741  1.6182
  131MOL     C123661   2.368   6.908   4.423  0.2295  0.1070  0.3151
  131MOL     C223662   2.413   6.813   4.533 -0.1714 -0.7901  0.1686
  131MOL     C323663   2.353   6.847   4.276  0.9167 -0.3651 -0.2308
  131MOL     O423664   2.367   6.916   4.175 -0.0787 -0.0958  0.0087
  131MOL     O523665   2.317   6.719   4.277  0.5560 -0.2942  0.1849
  131MOL     H623666   2.279   6.966   4.444 -0.0689 -0.5019  0.7228
  131MOL     H723667   2.338   6.734   4.531  0.0265 -0.9727 -0.2744
  131MOL     H823668   2.502   6.762   4.496 -1.5297 -1.2036 -2.6487
  131MOL     H923669   2.429   6.853   4.633  2.4691 -1.1694 -0.0684
  131MOL    H1023670   2.441   6.989   4.416 -0.0933  0.3305 -0.5373
  131MOL    C1123671   2.287   6.655   4.156  0.2501 -0.6374 -0.0124
  131MOL    C1223672   2.185   6.548   4.174 -0.3609  0.2121 -0.6507
  131MOL    C1323673   2.420   6.581   4.115 -0.1116 -0.1349  0.6415
  131MOL    O1423674   2.521   6.570   4.189  0.7071 -0.1944 -0.7933
  131MOL    O1523675   2.397   6.518   3.988  0.2410  0.7260 -0.8701
  131MOL    H1623676   2.251   6.710   4.069  0.9057 -0.9642 -0.4957
  131MOL    H1723677   2.227   6.476   4.245 -1.4971  1.3056  1.1783
  131MOL    H1823678   2.102   6.599   4.224 -0.3366 -0.7030  0.3480
  131MOL    H1923679   2.143   6.504   4.084  1.5824 -1.0810 -0.9480
  131MOL    C2023680   2.507   6.462   3.932 -0.3122  0.2021  0.2581
  131MOL    C2123681   2.476   6.446   3.787 -0.6289  0.1261  0.1813
  131MOL    C2223682   2.539   6.319   3.989  0.2645 -0.0090  0.3397
  131MOL    O2323683   2.655   6.271   3.987  0.3026  0.2677 -0.2487
  131MOL    O2423684   2.433   6.252   4.019 -0.6464  0.2598  0.0963
  131MOL    H2523685   2.595   6.521   3.956  0.7466 -1.3949  0.3776
  131MOL    H2623686   2.431   6.538   3.748 -1.7991 -1.2264 -1.7647
  131MOL    H2723687   2.565   6.426   3.729 -1.0651  0.2887 -0.5563
  131MOL    H2823688   2.403   6.369   3.762  0.3498 -0.8189  0.2115
  131MOL    C2923689   2.445   6.133   4.099 -0.3504  0.4541 -0.4712
  131MOL    C3023690   2.436   6.012   4.019 -0.1760  0.6759  0.1395
  131MOL    C3123691   2.332   6.140   4.201 -0.2664 -0.4213  0.5482
  131MOL    O3223692   2.229   6.200   4.173  0.2157 -0.1331  0.6161
  131MOL    O3323693   2.364   6.083   4.312  0.2286 -0.4741 -0.5750
  131MOL    H3423694   2.538   6.130   4.157  0.2804 -4.7211 -1.5156
  131MOL    H3523695   2.441   5.926   4.086  0.5677  1.2852  0.8750
  131MOL    H3623696   2.352   6.010   3.949  1.1539 -1.3062 -1.4415
  131MOL    H3723697   2.521   5.997   3.954 -0.3816  2.9110 -0.6895
  131MOL    C3823698   2.259   6.060   4.406 -0.0937 -0.4518  0.2978
  131MOL    C3923699   2.321   6.026   4.539  0.0593  0.3473  0.4669
  131MOL    C4023700   2.171   5.939   4.357  0.0117 -0.2480 -0.5872
  131MOL    O4123701   2.054   5.945   4.334 -0.4046  0.4606  0.1769
  131MOL    O4223702   2.240   5.815   4.337 -0.1144  0.6788 -0.0197
  131MOL    H4323703   2.186   6.139   4.418 -0.6597 -0.0396 -4.6005
  131MOL    H4423704   2.241   6.019   4.612 -0.2032 -0.7190  0.0835
  131MOL    H4523705   2.367   5.927   4.531  1.6015  1.1519 -1.1648
  131MOL    H4623706   2.398   6.095   4.575 -0.3992  0.6080  0.9468
  131MOL    C4723707   2.172   5.703   4.285  0.5549  0.5037 -0.1817
  131MOL    C4823708   2.244   5.575   4.322  0.3733 -0.1592 -0.3389
  131MOL    C4923709   2.162   5.720   4.130 -0.2192 -0.3848 -0.3026
  131MOL    O5023710   2.208   5.811   4.066 -0.0805 -0.2009 -0.6061
  131MOL    O5123711   2.100   5.606   4.084 -0.0577  0.2395  0.3011
  131MOL    H5223712   2.071   5.703   4.327  0.5135  1.6177 -0.2830
  131MOL    H5323713   2.350   5.571   4.297  0.5837 -0.6051  0.5919
  131MOL    H5423714   2.241   5.573   4.431  0.0850 -0.4899 -0.3525
  131MOL    H5523715   2.183   5.495   4.279 -0.3143 -0.0862  0.4885
  131MOL    C5623716   2.096   5.587   3.943  0.0792  0.0830 -0.9235
  131MOL    C5723717   1.980   5.491   3.916 -0.2807 -0.1401  0.2316
  131MOL    C5823718   2.230   5.538   3.888 -0.3056  0.3673  1.0393
  131MOL    O5923719   2.293   5.604   3.801 -0.0544 -0.5094 -0.0422
  131MOL    O6023720   2.276   5.423   3.954  0.4343  0.2173  0.7026
  131MOL    H6123721   2.076   5.682   3.894  0.0745  0.6746  0.2007
  131MOL    H6223722   2.015   5.390   3.937  1.4269  0.5265  0.6704
  131MOL    H6323723   1.886   5.509   3.967 -0.8487 -1.3522 -0.3459
  131MOL    H6423724   1.954   5.491   3.810 -0.2506 -1.5589  0.2054
  131MOL    C6523725   2.410   5.377   3.947  1.0432 -0.3407  0.3675
  131MOL    C6623726   2.433   5.247   4.019  0.0086  0.1741 -0.1855
  131MOL    C6723727   2.508   5.488   3.988 -0.0188  0.1138 -0.7458
  131MOL    O6823728   2.476   5.575   4.067 -0.3305  0.5353  0.5640
  131MOL    O6923729   2.630   5.477   3.937 -0.8949 -0.1114  0.2797
  131MOL    H7023730   2.432   5.370   3.840 -1.7098 -1.4338 -0.1813
  131MOL    H7123731   2.421   5.261   4.127 -1.5169 -2.5348  0.0362
  131MOL    H7223732   2.357   5.172   3.999 -1.4345  1.5110  0.1600
  131MOL    H7323733   2.529   5.204   3.992  0.2526  0.0606  0.8165
  131MOL    C7423734   2.730   5.567   3.987 -0.3762 -0.0439 -0.0387
  131MOL    C7523735   2.737   5.683   3.890  0.0392 -0.4506  0.0242
  131MOL    C7623736   2.870   5.494   3.990  0.1241 -0.0074  0.3053
  131MOL    O7723737   2.896   5.388   3.937 -0.0064  0.0653 -0.0355
  131MOL    O7823738   2.969   5.571   4.051  0.5102  0.3491  0.1912
  131MOL    H7923739   2.712   5.619   4.081 -1.3687  1.7244 -1.1865
  131MOL    H8023740   2.765   5.652   3.789  0.0144  0.0889 -0.1477
  131MOL    H8123741   2.647   5.744   3.894  0.3155 -0.0301 -0.2059
  131MOL    H8223742   2.819   5.749   3.919  0.8655 -0.8646 -1.2849
  131MOL    C8323743   3.110   5.542   4.053  0.5610  0.0762 -0.3150
  131MOL    C8423744   3.175   5.669   4.115  0.3211  0.1798  0.4996
  131MOL    C8523745   3.175   5.510   3.917  0.2749  0.1608 -0.3073
  131MOL    O8623746   3.230   5.400   3.894 -0.3307 -0.2684 -0.1736
  131MOL    O8723747   3.145   5.605   3.825  0.6814  0.5494 -0.2392
  131MOL    H8823748   3.122   5.456   4.119 -1.6097  0.1937  0.2567
  131MOL    H8923749   3.122   5.696   4.207 -0.4579 -0.9121  0.3790
  131MOL    H9023750   3.274   5.646   4.154  0.2577 -0.3511  0.3539
  131MOL    H9123751   3.187   5.753   4.047 -2.3449 -0.1947 -0.4802
  131MOL    C9223752   3.199   5.607   3.695 -0.9199 -0.5754 -0.1813
  131MOL    C9323753   3.343   5.665   3.700  0.3349 -0.1509 -0.0470
  131MOL    C9423754   3.109   5.697   3.604 -0.7273 -0.1781  0.5550
  131MOL    O9523755   3.004   5.750   3.652  0.8533 -0.1814  0.2495
  131MOL    O9623756   3.148   5.722   3.472  0.3098 -0.2824  0.2334
  131MOL    H9723757   3.195   5.508   3.650 -0.8438 -0.5250 -0.2982
  131MOL    H9823758   3.416   5.613   3.762  1.3990  1.9344  0.4805
  131MOL    H9923759   3.375   5.665   3.596 -1.1561  0.8857 -0.5028
  131MOL   H10023760   3.351   5.769   3.729 -1.2580 -0.5352  1.8143
  131MOL   C10123761   3.074   5.809   3.381  0.3002 -0.8651 -0.1843
  131MOL   C10223762   2.967   5.722   3.317 -0.9293  0.7636 -0.0124
  131MOL   C10323763   3.177   5.856   3.282 -0.1311 -0.2946 -0.6941
  131MOL   O10423764   3.243   5.775   3.216  0.2684  0.4002  0.2573
  131MOL   O10523765   3.196   5.990   3.288 -0.1884 -0.2257  0.7547
  131MOL   H10623766   3.036   5.900   3.429  0.9687 -0.0922 -1.0949
  131MOL   H10723767   2.897   5.773   3.252 -0.5426 -0.2495 -1.2582
  131MOL   H10823768   3.008   5.647   3.250 -2.0327 -0.4582  0.6448
  131MOL   H10923769   2.912   5.662   3.389 -0.9063 -1.9291 -2.1549
  131MOL   C11023770   3.259   6.065   3.178  0.7822  0.5739 -0.6397
  131MOL   C11123771   3.297   6.203   3.225 -0.6263 -0.0481  0.3248
  131MOL   C11223772   3.175   6.059   3.055  0.0569 -0.1535  0.7685
  131MOL   O11323773   3.072   6.003   3.054 -0.0685 -0.3044 -0.2216
  131MOL   O11423774   3.243   6.114   2.950 -0.5184 -0.8153 -0.3985
  131MOL   H11523775   3.355   6.016   3.163  1.1885  0.9670  0.6308
  131MOL   H11623776   3.363   6.196   3.312  0.2907  0.2395 -0.3404
  131MOL   H11723777   3.357   6.251   3.148  0.6071 -0.8710  0.7407
  131MOL   H11823778   3.209   6.265   3.238  0.8885  2.4591 -0.9955
  131MOL   C11923779   3.178   6.161   2.837 -0.8586  0.2236 -0.5952
  131MOL   C12023780   3.260   6.126   2.714  0.6766  0.2157 -0.3666
  131MOL   C12123781   3.161   6.316   2.842 -0.6960  0.5738  0.0791
  131MOL   O12223782   3.236   6.387   2.907  0.8488 -0.1510 -0.1464
  131MOL   O12323783   3.053   6.360   2.787 -0.0269 -0.3659 -0.2903
  131MOL   H12423784   3.078   6.116   2.831 -0.2169 -1.3772  0.4411
  131MOL   H12523785   3.343   6.189   2.683  0.8325 -0.4760 -1.3868
  131MOL   H12623786   3.293   6.022   2.713  0.2267  0.0768 -0.7796
  131MOL   H12723787   3.194   6.130   2.628  1.9246  2.0632 -1.2674
  131MOL   C12823788   3.018   6.495   2.792 -0.2699  0.3692  0.4279
  131MOL   C12923789   2.915   6.502   2.902 -0.2956 -0.0365 -0.5222
  131MOL   C13023790   2.959   6.534   2.655 -0.1042  0.1560 -0.4661
  131MOL   O13123791   3.010   6.619   2.581  0.0363 -0.3132 -0.1720
  131MOL   O13223792   2.844   6.459   2.627 -0.2229  0.3867  0.2429
  131MOL   H13323793   3.103   6.561   2.808  1.0248 -1.0416 -0.5497
  131MOL   H13423794   2.967   6.490   2.997 -1.4331  1.8045  0.3680
  131MOL   H13523795   2.874   6.603   2.906  2.0710  0.9296  0.9092
  131MOL   H13623796   2.846   6.419   2.887  0.6468 -0.2698 -4.0143
  131MOL   C13723797   2.775   6.459   2.504  0.0868 -0.3032 -0.5039
  131MOL   C13823798   2.636   6.392   2.525 -0.6708 -0.5389  0.7962
  131MOL   C13923799   2.857   6.395   2.392  0.2951  0.2323 -0.2258
  131MOL   O14023800   2.880   6.449   2.281  0.4581 -0.0948 -0.0507
  131MOL   O14123801   2.896   6.269   2.431 -0.4213  0.0101  0.5500
  131MOL   H14223802   2.761   6.563   2.475 -0.9014 -0.7226 -1.5707
  131MOL   H14323803   2.599   6.374   2.424  1.4886  0.3243 -0.1767
  131MOL   H14423804   2.636   6.304   2.590 -0.8710 -0.0883  1.4085
  131MOL   H14523805   2.572   6.462   2.578 -2.4678 -0.6135 -1.2385
  131MOL   C14623806   2.991   6.198   2.357 -0.4278  0.4419 -0.4848
  131MOL   C14723807   2.981   6.058   2.411  0.3139  0.4130  0.3828
  131MOL   C14823808   3.129   6.261   2.388  0.3452  0.2600 -0.2682
  131MOL   O14923809   3.142   6.314   2.499 -0.4467  0.9396 -0.7208
  131MOL   O15023810   3.216   6.264   2.288 -0.0525  0.4459  0.2920
  131MOL   H15123811   2.967   6.202   2.251 -1.7532 -0.9986 -0.2520
  131MOL   H15223812   3.021   6.052   2.512  0.3890  2.3755  0.5037
  131MOL   H15323813   2.881   6.015   2.404 -0.2504  1.2638  2.5412
  131MOL   H15423814   3.042   5.991   2.352 -1.5628 -1.1141  0.1298
  131MOL   C15523815   3.359   6.280   2.309 -0.0684 -0.2772  0.7670
  131MOL   C15623816   3.394   6.401   2.224  0.4247  0.1133 -0.9646
  131MOL   C15723817   3.426   6.146   2.281 -0.1466 -0.1048  0.1706
  131MOL   O15823818   3.504   6.132   2.184 -0.6280  0.0742 -0.3328
  131MOL   O15923819   3.389   6.055   2.369 -0.1202  0.1896 -0.1323
  131MOL   H16023820   3.381   6.303   2.413  3.0215 -0.1453  0.1290
  131MOL   H16123821   3.490   6.448   2.247  1.5033 -1.4956 -2.1234
  131MOL   H16223822   3.411   6.376   2.120  1.5245  1.0209 -1.0207
  131MOL   H16323823   3.314   6.475   2.226  0.7581  0.5109 -2.0484
  131MOL   C16423824   3.429   5.919   2.354 -0.7444  0.1191 -0.8912
  131MOL   C16523825   3.307   5.831   2.338 -0.5817  0.2984  0.7748
  131MOL   C16623826   3.515   5.871   2.475 -0.1945  0.1295 -0.1797
  131MOL   O16723827   3.481   5.884   2.591  0.3359 -0.4204  0.1988
  131MOL   O16823828   3.630   5.801   2.430 -0.1446  0.4681  0.5224
  131MOL   H16923829   3.494   5.908   2.267  1.1727  3.7048 -0.0590
  131MOL   H17023830   3.263   5.828   2.238 -1.0165  2.0123  0.8868
  131MOL   H17123831   3.341   5.730   2.360 -4.2575 -1.0762  0.5127
  131MOL   H17223832   3.233   5.864   2.412 -1.3025  0.3772  0.0339
  131MOL   C17323833   3.728   5.762   2.524  0.1801 -0.1782  0.2361
  131MOL   C17423834   3.868   5.766   2.458 -0.2847 -0.4948 -0.1598
  131MOL   C17523835   3.698   5.611   2.567  0.4869  0.0673  0.3048
  131MOL   O17623836   3.588   5.558   2.538 -0.2171  0.2205 -0.0408
  131MOL   O17723837   3.785   5.552   2.652 -0.3317 -0.2613  0.5282
  131MOL   H17823838   3.729   5.826   2.612  0.5976  0.4549 -0.2269
  131MOL   H17923839   3.891   5.868   2.429 -1.7428 -0.5189 -1.4901
  131MOL   H18023840   3.948   5.733   2.524  0.8849  2.9595  0.2247
  131MOL   H18123841   3.864   5.711   2.364  1.0384 -0.6715 -0.1151
  131MOL   H18223842   3.745   5.474   2.687 -0.5533  0.1756  1.2709
  132MOL     C123843   4.568   2.858   8.092  0.1936 -0.1554 -0.8107
  132MOL     C223844   4.508   2.816   7.953 -0.8952 -0.1732 -0.3595
  132MOL     C323845   4.575   2.758   0.059  0.6364  0.6144  0.0266
  132MOL     O423846   4.657   2.765   0.149  0.3249 -0.2658  0.2351
  132MOL     O523847   4.476   2.671   0.056  0.0752 -0.1713  0.0999
  132MOL     H623848   4.665   2.905   8.075 -1.1449  4.1388  2.3748
  132MOL     H723849   4.433   2.884   7.913 -1.5472 -2.4190 -3.0679
  132MOL     H823850   4.594   2.815   7.886  0.2078  0.4418  0.9937
  132MOL     H923851   4.474   2.713   7.945  0.1859 -0.5935  0.2090
  132MOL    H1023852   4.523   2.948   8.136  0.4181  0.8757 -2.6184
  132MOL    C1123853   4.455   2.571   0.147  0.0211  0.2598 -0.0477
  132MOL    C1223854   4.374   2.453   0.086  0.4022 -0.2105 -0.1282
  132MOL    C1323855   4.385   2.624   0.275 -0.5492  1.2737  0.4732
  132MOL    O1423856   4.349   2.737   0.293 -0.0312 -0.4644  0.4857
  132MOL    O1523857   4.379   2.528   0.375 -0.1615  0.4205 -0.2748
  132MOL    H1623858   4.548   2.537   0.193 -1.0062 -2.2819  0.2401
  132MOL    H1723859   4.324   2.388   0.158  0.7511  1.1258  1.3587
  132MOL    H1823860   4.307   2.480   0.004  1.9280  2.9063 -0.4222
  132MOL    H1923861   4.451   2.395   0.037  1.1788  0.6854  0.0241
  132MOL    C2023862   4.327   2.566   0.503 -0.2324  0.6623  0.5185
  132MOL    C2123863   4.365   2.456   0.598  0.3796 -0.7234  0.0029
  132MOL    C2223864   4.169   2.580   0.507 -0.6556  0.0839 -0.0617
  132MOL    O2323865   4.098   2.572   0.405 -0.0431 -0.8693  0.1673
  132MOL    O2423866   4.121   2.602   0.637 -0.2574 -0.4588 -0.0799
  132MOL    H2523867   4.378   2.659   0.530  1.1794 -0.1933  0.8305
  132MOL    H2623868   4.307   2.468   0.690 -0.4240  0.3835 -0.6382
  132MOL    H2723869   4.340   2.359   0.554 -2.3758  0.3316 -0.8522
  132MOL    H2823870   4.470   2.458   0.625  0.4489  0.4056 -0.3124
  132MOL    C2923871   3.983   2.627   0.663  0.8592 -0.5275  0.0331
  132MOL    C3023872   3.978   2.765   0.723 -0.1643  0.3953 -0.4204
  132MOL    C3123873   3.923   2.519   0.760 -0.8926  0.0718  0.1856
  132MOL    O3223874   4.001   2.442   0.821  0.6582  0.3959  0.1415
  132MOL    O3323875   3.787   2.539   0.790 -0.1462 -0.2605 -0.5418
  132MOL    H3423876   3.920   2.620   0.575  1.6165 -0.0822 -0.5491
  132MOL    H3523877   4.020   2.837   0.653 -0.9383  1.7429  0.4726
  132MOL    H3623878   3.877   2.792   0.753 -0.1392 -0.0358  0.0650
  132MOL    H3723879   4.040   2.772   0.812  0.7764  0.2577 -1.0532
  132MOL    C3823880   3.724   2.472   0.902  0.0682  0.3772 -0.6777
  132MOL    C3923881   3.592   2.403   0.854  0.3978  0.1396  0.4290
  132MOL    C4023882   3.706   2.589   1.002 -0.1458 -0.2195  0.4216
  132MOL    O4123883   3.596   2.651   1.015  0.0465 -0.3128  0.9113
  132MOL    O4223884   3.817   2.618   1.068 -0.3753 -0.3383 -0.2087
  132MOL    H4323885   3.775   2.393   0.957 -1.1411  2.0246  2.9120
  132MOL    H4423886   3.542   2.346   0.932 -1.5917  0.6967 -0.3989
  132MOL    H4523887   3.515   2.472   0.821  1.3606  0.4240 -1.2681
  132MOL    H4623888   3.612   2.342   0.766  2.7982  1.3722  0.0775
  132MOL    C4723889   3.840   2.727   1.158  0.1657 -0.6114 -0.4512
  132MOL    C4823890   3.986   2.738   1.217  0.2321  0.5662 -0.2745
  132MOL    C4923891   3.755   2.702   1.288 -0.0262  0.2962  0.2825
  132MOL    O5023892   3.735   2.588   1.327  0.5267  0.2200  0.4311
  132MOL    O5123893   3.718   2.812   1.354 -0.9038  0.8925 -0.2956
  132MOL    H5223894   3.819   2.822   1.108  0.7683 -0.0676  0.3303
  132MOL    H5323895   3.981   2.780   1.317  0.7973 -1.1474  0.4877
  132MOL    H5423896   4.033   2.640   1.226  0.7561  0.9408  1.0728
  132MOL    H5523897   4.048   2.805   1.157 -0.6170  1.5164 -0.0996
  132MOL    C5623898   3.655   2.812   1.482  0.2954  0.1212  0.2169
  132MOL    C5723899   3.522   2.880   1.447  0.1463  0.1956 -0.7278
  132MOL    C5823900   3.743   2.887   1.585 -0.3046 -0.3065  0.0156
  132MOL    O5923901   3.698   2.965   1.669  0.4799 -0.3103  0.9300
  132MOL    O6023902   3.871   2.845   1.586  0.7881  0.5032 -0.0557
  132MOL    H6123903   3.635   2.711   1.518 -1.5950  0.2918 -0.3185
  132MOL    H6223904   3.457   2.898   1.532 -1.4105 -1.4571 -1.5477
  132MOL    H6323905   3.535   2.967   1.382 -0.9306  0.2394 -0.8917
  132MOL    H6423906   3.468   2.807   1.387  0.4416 -0.1503 -0.5757
  132MOL    C6523907   3.962   2.875   1.690  0.8029 -0.0863 -0.8672
  132MOL    C6623908   4.095   2.921   1.638 -0.4722 -0.1575 -0.5427
  132MOL    C6723909   3.972   2.762   1.788 -0.2319 -0.1806 -0.0392
  132MOL    O6823910   3.952   2.779   1.905  0.1888  0.0217 -0.5278
  132MOL    O6923911   3.999   2.638   1.729 -0.5737 -0.6022 -0.1614
  132MOL    H7023912   3.923   2.956   1.753 -1.3442 -1.9262  0.2345
  132MOL    H7123913   4.092   2.986   1.551  1.9792  3.9733  2.2593
  132MOL    H7223914   4.156   2.973   1.712  1.5805 -1.4118 -1.3097
  132MOL    H7323915   4.155   2.831   1.622  2.2435  1.1740  1.6549
  132MOL    C7423916   3.993   2.514   1.796  0.4145 -0.2801  0.3478
  132MOL    C7523917   4.035   2.404   1.697 -0.2641  0.0842 -0.2232
  132MOL    C7623918   3.848   2.489   1.854 -0.0291 -1.0251 -0.2552
  132MOL    O7723919   3.823   2.473   1.974 -0.4600  0.3741 -0.4213
  132MOL    O7823920   3.755   2.488   1.760 -1.0390 -0.0565  0.0815
  132MOL    H7923921   4.053   2.506   1.887  0.1453  2.1450  0.7615
  132MOL    H8023922   4.139   2.394   1.668 -0.6310 -2.0195 -0.8889
  132MOL    H8123923   4.009   2.308   1.743 -3.7495  0.9403 -0.2577
  132MOL    H8223924   3.989   2.413   1.599 -0.2899 -0.0189 -0.2214
  132MOL    C8323925   3.617   2.472   1.781 -0.4567 -0.4084 -1.0517
  132MOL    C8423926   3.574   2.388   1.661 -0.8376  0.3859  0.2554
  132MOL    C8523927   3.559   2.611   1.784 -0.0635  0.2021 -0.2187
  132MOL    O8623928   3.474   2.649   1.709 -0.0214  0.4499  0.1126
  132MOL    O8723929   3.612   2.693   1.876 -0.0306 -0.0543  0.6064
  132MOL    H8823930   3.581   2.418   1.869  2.2655 -1.4111 -0.5128
  132MOL    H8923931   3.602   2.286   1.687  2.9027  1.6135  1.3209
  132MOL    H9023932   3.469   2.393   1.630 -0.7360 -0.9244 -0.3424
  132MOL    H9123933   3.624   2.434   1.576 -0.6244  1.6875  1.0710
  132MOL    C9223934   3.555   2.813   1.919  0.4991  0.2550  0.3855
  132MOL    C9323935   3.667   2.893   1.991  0.4278  0.1434  0.5062
  132MOL    C9423936   3.447   2.778   2.022 -0.3715 -0.4974  1.7959
  132MOL    O9523937   3.328   2.811   2.007  0.3237  0.3494  0.0114
  132MOL    O9623938   3.493   2.696   2.115  0.2262 -0.2374  0.1911
  132MOL    H9723939   3.516   2.869   1.834 -1.1565  0.1459  1.0758
  132MOL    H9823940   3.722   2.839   2.068 -1.0311  1.5932  2.5963
  132MOL    H9923941   3.735   2.941   1.921  1.5254 -1.0153  0.7663
  132MOL   H10023942   3.619   2.970   2.051 -1.2379  1.7230 -2.7039
  132MOL   C10123943   3.428   2.658   2.233  0.1210 -0.0549 -0.0930
  132MOL   C10223944   3.304   2.575   2.206  0.9772  0.1079 -0.4920
  132MOL   C10323945   3.403   2.778   2.333 -0.4331 -0.1449 -0.3588
  132MOL   O10423946   3.471   2.793   2.434 -0.4456 -0.3547 -0.1175
  132MOL   O10523947   3.305   2.851   2.299 -0.0713 -0.3485  0.3925
  132MOL   H10623948   3.498   2.585   2.274  1.3521  1.1063 -0.0767
  132MOL   H10723949   3.331   2.476   2.169 -3.7685 -0.2212 -3.4047
  132MOL   H10823950   3.246   2.556   2.296 -1.0480 -1.6853 -2.1267
  132MOL   H10923951   3.234   2.622   2.137 -0.1441  0.1443  0.6530
  132MOL   C11023952   3.284   2.981   2.357  0.2989 -0.1368  0.0860
  132MOL   C11123953   3.131   3.012   2.330 -0.4392  0.2761  0.5782
  132MOL   C11223954   3.384   3.088   2.281  0.2149  0.5364 -0.7085
  132MOL   O11323955   3.394   3.103   2.161  0.2361 -0.3159 -0.9061
  132MOL   O11423956   3.447   3.162   2.369  0.0094 -0.1707  0.5567
  132MOL   H11523957   3.301   2.987   2.465  0.6048 -3.4762  0.2540
  132MOL   H11623958   3.100   3.114   2.357  2.2546  1.2431  0.1725
  132MOL   H11723959   3.118   3.012   2.222 -0.6621 -0.7444  0.6071
  132MOL   H11823960   3.061   2.957   2.392  0.6391  1.3208  2.7916
  132MOL   C11923961   3.546   3.259   2.326 -0.3005 -0.1462 -0.6010
  132MOL   C12023962   3.632   3.300   2.442 -0.2079 -0.0047 -0.3810
  132MOL   C12123963   3.480   3.395   2.284  0.4721 -0.8066  0.5849
  132MOL   O12223964   3.501   3.450   2.177 -0.2024  0.1634 -0.3668
  132MOL   O12323965   3.390   3.443   2.377  0.3009  0.4993 -0.6835
  132MOL   H12423966   3.609   3.230   2.242 -0.3224  0.3663 -0.7976
  132MOL   H12523967   3.572   3.299   2.533 -0.7705  0.7843 -0.7311
  132MOL   H12623968   3.714   3.230   2.455 -1.1940 -1.3301 -1.0937
  132MOL   H12723969   3.679   3.398   2.437 -0.6309  0.2236  0.0343
  132MOL   C12823970   3.333   3.576   2.355 -0.4975 -0.1183  0.2424
  132MOL   C12923971   3.271   3.620   2.495 -0.5255  0.1439 -0.0484
  132MOL   C13023972   3.229   3.568   2.244 -0.2441 -0.1288  0.7929
  132MOL   O13123973   3.196   3.672   2.191  0.4377  0.6810  0.5779
  132MOL   O13223974   3.163   3.442   2.232 -0.3380  0.4906  0.3585
  132MOL   H13323975   3.409   3.644   2.318 -0.5275 -0.5945 -0.7172
  132MOL   H13423976   3.223   3.538   2.549  0.4577  0.1291  0.8105
  132MOL   H13523977   3.353   3.658   2.556 -0.6821  0.3875  0.0116
  132MOL   H13623978   3.202   3.704   2.483 -0.6676  0.0115 -0.1638
  132MOL   C13723979   3.068   3.421   2.132 -0.1406  0.2725  0.4446
  132MOL   C13823980   2.987   3.293   2.159 -0.1099  0.1075 -0.6202
  132MOL   C13923981   3.135   3.419   1.993 -0.6137 -0.2398 -0.3193
  132MOL   O14023982   3.078   3.480   1.904  0.2990 -0.2683  0.2885
  132MOL   O14123983   3.244   3.343   1.980 -0.1492 -0.2308 -0.4310
  132MOL   H14223984   3.002   3.508   2.130  1.3331  1.4144  0.2369
  132MOL   H14323985   3.041   3.200   2.142 -0.2056 -0.5400  2.3918
  132MOL   H14423986   2.961   3.293   2.265 -1.1433 -2.5191 -0.8513
  132MOL   H14523987   2.894   3.293   2.102 -0.1082 -2.0044 -0.6519
  132MOL   C14623988   3.304   3.342   1.850  0.0741  0.0647  0.6077
  132MOL   C14723989   3.376   3.210   1.857 -0.3303 -0.2454  0.9417
  132MOL   C14823990   3.413   3.452   1.840  0.1968 -0.0501  0.7537
  132MOL   O14923991   3.528   3.421   1.804  0.1268  0.2797 -0.3750
  132MOL   O15023992   3.367   3.578   1.867  0.2858 -0.5346  0.1544
  132MOL   H15123993   3.231   3.353   1.770  1.5503 -0.9398 -0.9022
  132MOL   H15223994   3.308   3.133   1.895  2.0719 -1.3500  3.1463
  132MOL   H15323995   3.406   3.196   1.753 -0.8623  1.7383  0.5013
  132MOL   H15423996   3.470   3.214   1.911 -0.5862  0.7660  1.3150
  132MOL   C15523997   3.442   3.690   1.871 -0.4096  0.3112 -0.2745
  132MOL   C15623998   3.425   3.767   2.000  0.7041 -0.1454  0.2464
  132MOL   C15723999   3.401   3.775   1.752 -0.0749 -0.4187 -0.0048
  132MOL   O15824000   3.322   3.865   1.755 -0.0334 -0.0137 -0.0531
  132MOL   O15924001   3.460   3.722   1.641  0.7261 -0.2406  0.2484
  132MOL   H16024002   3.548   3.664   1.864 -0.2999  0.5114  0.5576
  132MOL   H16124003   3.322   3.799   2.017  0.0185 -2.0435 -0.1734
  132MOL   H16224004   3.474   3.714   2.082 -4.0927  0.8583  3.9802
  132MOL   H16324005   3.476   3.862   1.987  0.1870 -0.1918 -2.4139
  132MOL   C16424006   3.464   3.794   1.518  0.4014 -0.5214  0.7239
  132MOL   C16524007   3.456   3.699   1.393  0.3186 -0.3015  0.2947
  132MOL   C16624008   3.593   3.878   1.527  0.2907 -0.5679 -0.4299
  132MOL   O16724009   3.681   3.859   1.611  0.4562  0.2483 -0.0013
  132MOL   O16824010   3.603   3.977   1.435  0.3422 -0.1151 -0.2900
  132MOL   H16924011   3.389   3.873   1.509 -1.8007 -2.6254  0.0017
  132MOL   H17024012   3.352   3.681   1.366 -0.2832  3.5369 -0.3361
  132MOL   H17124013   3.502   3.745   1.305  1.7652  0.5172  1.4473
  132MOL   H17224014   3.495   3.600   1.418 -0.1638 -1.2946 -2.6326
  132MOL   C17324015   3.711   4.064   1.428  0.4347  0.3131  0.2520
  132MOL   C17424016   3.650   4.191   1.367  0.1791 -0.3375  0.5292
  132MOL   C17524017   3.825   4.001   1.347 -0.1986  0.3207 -0.2019
  132MOL   O17624018   3.819   3.895   1.288  0.1923 -0.7335 -0.0676
  132MOL   O17724019   3.930   4.082   1.357  0.5571  0.3323  0.1109
  132MOL   H17824020   3.758   4.093   1.522  1.4172  1.3428 -0.5525
  132MOL   H17924021   3.729   4.265   1.358  1.6734 -1.9116  0.3593
  132MOL   H18024022   3.635   4.153   1.266  0.5333 -0.0516  0.3672
  132MOL   H18124023   3.549   4.216   1.400 -0.8886 -1.9925 -1.3014
  132MOL   H18224024   3.996   4.056   1.295 -0.4039 -0.0671 -0.7532
  133MOL     C124025   4.330   6.814   4.260  0.2905  0.4115  0.2857
  133MOL     C224026   4.343   6.886   4.387 -0.1362 -0.6056  0.4703
  133MOL     C324027   4.433   6.841   4.151 -0.3185  0.4257  0.1233
  133MOL     O424028   4.435   6.946   4.094  0.5278  0.1461  0.3676
  133MOL     O524029   4.509   6.734   4.124  0.0247 -0.3723  0.3563
  133MOL     H624030   4.328   6.706   4.275 -0.6456  0.0761 -1.9997
  133MOL     H724031   4.440   6.898   4.436  0.0132 -0.0130  0.0366
  133MOL     H824032   4.298   6.984   4.374 -0.1067 -0.5238  0.9637
  133MOL     H924033   4.279   6.832   4.456  0.6129 -2.1162  0.0104
  133MOL    H1024034   4.232   6.837   4.218  0.3781 -0.0462 -0.1656
  133MOL    C1124035   4.645   6.749   4.069 -0.2271  0.1859  0.1674
  133MOL    C1224036   4.678   6.615   3.996 -0.3196 -0.1655 -0.0251
  133MOL    C1324037   4.744   6.780   4.189 -0.4002 -0.1024  0.4660
  133MOL    O1424038   4.709   6.796   4.309  0.0261 -0.3568  0.0382
  133MOL    O1524039   4.879   6.785   4.142  0.6893 -0.3275  0.5964
  133MOL    H1624040   4.662   6.835   4.004 -0.7679 -0.8720 -1.4018
  133MOL    H1724041   4.751   6.615   3.915 -0.2071 -0.3997  0.0779
  133MOL    H1824042   4.727   6.551   4.069  4.4680  1.4987 -1.5542
  133MOL    H1924043   4.590   6.571   3.949 -0.7214  0.6399 -0.0371
  133MOL    C2024044   4.989   6.792   4.231  0.1123 -0.1523  0.4630
  133MOL    C2124045   5.124   6.820   4.157  0.3043  0.2589 -0.6405
  133MOL    C2224046   4.996   6.667   4.322 -0.3222 -0.2647  0.2116
  133MOL    O2324047   4.932   6.570   4.285  0.2306 -0.3868 -0.1286
  133MOL    O2424048   5.086   6.684   4.429 -0.1129  0.2478 -0.2182
  133MOL    H2524049   4.975   6.876   4.299 -0.6210  1.1869 -1.2708
  133MOL    H2624050   5.205   6.801   4.228 -1.9196  1.3510  2.2842
  133MOL    H2724051   5.144   6.742   4.083 -0.5308 -2.0002  1.4158
  133MOL    H2824052   5.125   6.922   4.121  0.4534  0.6947  0.5757
  133MOL    C2924053   5.091   6.584   4.531 -0.3039 -0.6846 -0.1221
  133MOL    C3024054   5.155   6.642   4.657 -0.0224 -0.5592  0.6216
  133MOL    C3124055   5.168   6.464   4.478  0.0108 -0.2360  0.5921
  133MOL    O3224056   5.238   6.467   4.376 -0.0786  0.6243  0.2892
  133MOL    O3324057   5.163   6.366   4.566  0.0293  0.4875  0.9093
  133MOL    H3424058   4.989   6.557   4.557 -0.4746 -1.5574 -1.6178
  133MOL    H3524059   5.252   6.689   4.642  1.0398 -2.3089  1.8473
  133MOL    H3624060   5.102   6.725   4.704 -0.8369  0.8689 -2.6527
  133MOL    H3724061   5.172   6.564   4.731  1.6932 -3.0204 -2.2242
  133MOL    C3824062   5.235   6.248   4.533  0.6061  0.3350  0.0208
  133MOL    C3924063   5.174   6.151   4.428  0.5880 -0.3159  0.2231
  133MOL    C4024064   5.264   6.172   4.666 -0.2229 -0.4404 -0.3932
  133MOL    O4124065   5.356   6.210   4.741 -0.5092 -0.6300  0.3147
  133MOL    O4224066   5.172   6.074   4.699 -0.3511 -0.1773  0.1443
  133MOL    H4324067   5.336   6.273   4.502 -0.1935  1.5622 -1.6512
  133MOL    H4424068   5.189   6.189   4.327  0.9483 -0.6351  0.1566
  133MOL    H4524069   5.228   6.057   4.438  1.6316  0.0400 -1.7808
  133MOL    H4624070   5.069   6.135   4.450  0.6803  1.0563  1.7211
  133MOL    C4724071   5.193   5.972   4.800  0.5961 -0.0140  0.2957
  133MOL    C4824072   5.210   5.839   4.731 -0.0287  0.0695 -0.8163
  133MOL    C4924073   5.073   5.979   4.895  0.3565  0.5231 -0.3420
  133MOL    O5024074   4.973   5.908   4.889 -0.3650  0.0736  0.6791
  133MOL    O5124075   5.100   6.067   4.993 -0.5024  0.4466  0.6491
  133MOL    H5224076   5.284   5.999   4.852  0.2142  1.7412  0.0653
  133MOL    H5324077   5.213   5.755   4.801 -1.7730 -0.0441 -0.8446
  133MOL    H5424078   5.128   5.829   4.660  0.3825  2.0554 -1.6169
  133MOL    H5524079   5.308   5.837   4.683  0.8686  0.5214  0.9266
  133MOL    C5624080   5.017   6.076   5.101 -0.2442 -0.2635  0.4648
  133MOL    C5724081   5.054   6.185   5.195 -0.8773  0.1050  0.7247
  133MOL    C5824082   5.004   5.938   5.173  0.8214 -0.6316  0.4360
  133MOL    O5924083   5.093   5.856   5.178  0.4900  0.0945 -0.1615
  133MOL    O6024084   4.881   5.927   5.233  0.4218  0.0978 -0.3831
  133MOL    H6124085   4.913   6.093   5.072  0.7014  1.7361 -1.9281
  133MOL    H6224086   4.977   6.182   5.273 -0.1939  1.2627  1.4556
  133MOL    H6324087   5.154   6.173   5.237  0.0608  2.6803 -0.6424
  133MOL    H6424088   5.048   6.282   5.146  0.5349 -1.5763 -2.9713
  133MOL    C6524089   4.859   5.835   5.342 -0.0672  0.0462 -0.2562
  133MOL    C6624090   4.709   5.814   5.358  0.2569  1.3252  0.2022
  133MOL    C6724091   4.932   5.883   5.475 -0.2137 -0.4774  0.3553
  133MOL    O6824092   5.013   5.811   5.534 -0.1110  0.0419  0.4243
  133MOL    O6924093   4.893   6.002   5.513 -0.1783  0.4341  0.2648
  133MOL    H7024094   4.895   5.738   5.306  2.2127  0.0493  1.8378
  133MOL    H7124095   4.662   5.887   5.424  1.9340  2.3612  0.2622
  133MOL    H7224096   4.654   5.804   5.264 -1.1345  0.0409  1.1326
  133MOL    H7324097   4.686   5.723   5.414  0.4883  0.7790 -0.5804
  133MOL    C7424098   4.942   6.059   5.633  0.0538 -0.7143  0.0059
  133MOL    C7524099   4.850   6.175   5.667  0.2989 -0.8170  0.0083
  133MOL    C7624100   5.090   6.100   5.624 -0.2505 -0.2368 -0.4359
  133MOL    O7724101   5.147   6.127   5.520 -0.6153  1.3773  0.2788
  133MOL    O7824102   5.140   6.131   5.746 -0.1118  0.1751  0.3876
  133MOL    H7924103   4.946   5.997   5.722 -2.0184  0.4988  1.0024
  133MOL    H8024104   4.762   6.139   5.720  0.4439  1.5276  1.9526
  133MOL    H8124105   4.893   6.239   5.744 -1.9036  0.8514 -0.0861
  133MOL    H8224106   4.823   6.247   5.589 -1.7605 -1.9990 -0.4148
  133MOL    C8324107   5.266   6.189   5.770  0.5583 -0.1954 -0.1548
  133MOL    C8424108   5.292   6.167   5.916  0.1589  0.1599 -0.3334
  133MOL    C8524109   5.266   6.337   5.725 -0.1037 -0.3724  0.8293
  133MOL    O8624110   5.170   6.399   5.688  0.0329  0.5081  0.3658
  133MOL    O8724111   5.387   6.389   5.752 -0.0374 -0.6643 -0.2162
  133MOL    H8824112   5.344   6.136   5.715  0.5090  0.0755 -0.4876
  133MOL    H8924113   5.216   6.213   5.980  1.0482  0.5875  0.4197
  133MOL    H9024114   5.299   6.063   5.949  1.4997  0.6236  0.9129
  133MOL    H9124115   5.387   6.203   5.956  0.8888 -2.0097 -0.0505
  133MOL    C9224116   5.423   6.531   5.731  0.6604  0.0069  0.5070
  133MOL    C9324117   5.352   6.630   5.830  0.2790  0.4065 -0.3675
  133MOL    C9424118   5.398   6.579   5.592 -0.6667  0.1200  0.4714
  133MOL    O9524119   5.346   6.688   5.564 -0.0455 -0.2736  0.6502
  133MOL    O9624120   5.444   6.502   5.505 -0.0928  0.4479  0.5539
  133MOL    H9724121   5.530   6.527   5.753  0.6292  2.5397  1.2815
  133MOL    H9824122   5.378   6.601   5.932  0.4213 -0.4434 -0.6427
  133MOL    H9924123   5.386   6.733   5.815 -2.3998  0.8686 -3.7712
  133MOL   H10024124   5.245   6.622   5.813 -0.5951 -4.4232  5.7843
  133MOL   C10124125   5.427   6.527   5.358 -0.1617 -0.3224  0.4412
  133MOL   C10224126   5.401   6.393   5.286  0.0447  0.3698  0.0988
  133MOL   C10324127   5.551   6.595   5.301 -0.4351 -0.2290  0.5279
  133MOL   O10424128   5.543   6.687   5.216 -0.7045 -0.2802  0.3778
  133MOL   O10524129   5.669   6.544   5.328 -0.3289  0.5773  0.4424
  133MOL   H10624130   5.345   6.595   5.339  1.9414  1.6204 -2.0938
  133MOL   H10724131   5.308   6.398   5.229 -1.3134  4.0936  2.4602
  133MOL   H10824132   5.480   6.369   5.215  0.6628  0.7422  0.6559
  133MOL   H10924133   5.408   6.308   5.353  1.4924 -0.7047 -1.3745
  133MOL   C11024134   5.794   6.607   5.286  0.9220  0.9607  0.4250
  133MOL   C11124135   5.862   6.501   5.205 -0.5247  0.3147  0.4257
  133MOL   C11224136   5.864   6.647   5.420  0.4369  0.0666 -0.1699
  133MOL   O11324137   5.974   6.608   5.458 -0.4117  0.4891  0.4436
  133MOL   O11424138   5.791   6.723   5.496 -0.0112  0.0319  0.2046
  133MOL   H11524139   5.784   6.696   5.225 -0.5364 -0.1818 -1.0170
  133MOL   H11624140   5.855   6.405   5.255 -1.1444  0.5969  0.8815
  133MOL   H11724141   5.820   6.507   5.104 -0.3853  1.0072  0.4039
  133MOL   H11824142   5.969   6.523   5.196 -0.9840  1.8588 -1.9264
  133MOL   C11924143   5.834   6.760   5.627 -1.1829 -0.0740 -0.9423
  133MOL   C12024144   5.712   6.824   5.697  0.5862  0.3176  0.0549
  133MOL   C12124145   5.960   6.853   5.610 -0.3990 -0.2924 -0.3246
  133MOL   O12224146   6.069   6.839   5.668 -0.1396  0.2149 -0.3047
  133MOL   O12324147   5.929   6.961   5.537  0.0687 -0.2628 -0.3041
  133MOL   H12424148   5.861   6.670   5.683 -0.0645  0.9231  0.1502
  133MOL   H12524149   5.626   6.757   5.700  1.0204 -0.1927  1.3283
  133MOL   H12624150   5.742   6.833   5.801  0.8508 -1.1081  0.1143
  133MOL   H12724151   5.671   6.910   5.643 -1.4749 -0.7797 -0.1738
  133MOL   C12824152   6.017   7.065   5.498 -0.1777  0.3255  0.2342
  133MOL   C12924153   6.032   7.168   5.610 -0.3881  0.0263  0.8378
  133MOL   C13024154   5.977   7.124   5.360 -0.1719 -0.2251 -0.1858
  133MOL   O13124155   5.954   7.243   5.336  0.1613 -0.0023  0.8263
  133MOL   O13224156   5.970   7.029   5.266  0.4253 -0.2362  1.0052
  133MOL   H13324157   6.115   7.021   5.480  0.3062  1.9434 -1.2318
  133MOL   H13424158   6.038   7.122   5.708  1.4459  1.9799  1.6805
  133MOL   H13524159   6.129   7.216   5.593 -0.1374 -1.0846 -1.0836
  133MOL   H13624160   5.949   7.238   5.603 -0.2890  0.2263  1.6220
  133MOL   C13724161   5.957   7.061   5.122 -0.2463  0.3935  0.1448
  133MOL   C13824162   5.915   6.932   5.054 -0.9429  0.1198 -0.2964
  133MOL   C13924163   6.090   7.111   5.065 -0.0774 -0.7506 -0.2979
  133MOL   O14024164   6.159   7.051   4.987 -0.3721 -0.2779 -0.2449
  133MOL   O14124165   6.130   7.231   5.117 -0.0957  0.4009  0.2568
  133MOL   H14224166   5.882   7.139   5.111 -0.5840 -0.0254 -0.5580
  133MOL   H14324167   5.810   6.920   5.082  0.0616 -2.3907  2.5507
  133MOL   H14424168   5.915   6.947   4.946 -0.3311  0.9841 -0.1838
  133MOL   H14524169   5.967   6.840   5.077  0.0274  0.9423  0.8222
  133MOL   C14624170   6.244   7.305   5.069  0.7040 -0.0156 -0.5199
  133MOL   C14724171   6.276   7.405   5.179 -0.0666 -0.3910  0.4631
  133MOL   C14824172   6.209   7.390   4.943 -0.1161 -0.5245  0.3011
  133MOL   O14924173   6.106   7.375   4.883  0.7600  0.0219 -0.6768
  133MOL   O15024174   6.307   7.485   4.912 -0.2241 -0.4938 -0.1115
  133MOL   H15124175   6.326   7.245   5.031 -0.1102 -2.1275  1.0148
  133MOL   H15224176   6.286   7.361   5.278 -2.3848 -0.8255  0.5277
  133MOL   H15324177   6.371   7.452   5.153 -0.2269 -1.1962 -1.7059
  133MOL   H15424178   6.217   7.497   5.176  1.7066  0.7506 -0.5005
  133MOL   C15524179   6.281   7.569   4.800 -0.6665 -0.0232  0.0011
  133MOL   C15624180   6.404   7.634   4.746 -0.3350 -0.3655 -0.2307
  133MOL   C15724181   6.176   7.676   4.830  0.2481 -0.2459  0.2082
  133MOL   O15824182   6.186   7.763   4.919 -0.3576  0.7214 -0.2902
  133MOL   O15924183   6.073   7.672   4.744 -0.1468  0.4243  0.2303
  133MOL   H16024184   6.235   7.514   4.718  0.3588  3.1761 -2.8676
  133MOL   H16124185   6.449   7.693   4.826  3.8098 -1.9082 -1.2888
  133MOL   H16224186   6.477   7.561   4.710 -3.3372 -1.7454 -3.8534
  133MOL   H16324187   6.383   7.689   4.654  1.4901  2.1076  0.7529
  133MOL   C16424188   5.975   7.770   4.722 -0.3627 -0.6456 -0.8359
  133MOL   C16524189   5.853   7.705   4.660  0.8691  0.0526  0.4070
  133MOL   C16624190   6.023   7.882   4.631 -0.5910 -0.2474 -0.3528
  133MOL   O16724191   5.999   8.002   4.647 -0.1805 -0.3684 -0.1185
  133MOL   O16824192   6.084   7.841   4.521  0.4670  0.3253 -0.4557
  133MOL   H16924193   5.945   7.804   4.821  1.6076  1.7556 -0.9897
  133MOL   H17024194   5.863   7.693   4.553 -2.1647  2.0869 -0.1689
  133MOL   H17124195   5.842   7.607   4.708  0.6051 -0.7019 -1.1632
  133MOL   H17224196   5.766   7.765   4.688  0.1818 -0.8632  0.2758
  133MOL   C17324197   6.152   7.932   4.435 -0.4126  0.1443  0.4252
  133MOL   C17424198   6.186   7.840   4.313 -0.3480  0.0228  0.3038
  133MOL   C17524199   6.281   7.985   4.505 -0.3885 -0.3981 -0.1788
  133MOL   O17624200   6.390   7.927   4.489 -0.3540 -0.6777  0.0874
  133MOL   O17724201   6.257   8.085   4.594  0.6102  0.5947 -0.3630
  133MOL   H17824202   6.088   8.013   4.402  0.1032  0.3192 -0.1441
  133MOL   H17924203   6.095   7.820   4.256 -0.1663  0.9184 -0.3095
  133MOL   H18024204   6.251   7.886   4.239 -0.1053 -0.3583  0.2792
  133MOL   H18124205   6.228   7.747   4.351 -3.3072 -0.9907  1.2732
  133MOL   H18224206   6.169   8.117   4.599  0.4041  0.1006 -0.8562
  134MOL     C124207   0.214   4.786   1.238  0.2288  0.3423 -0.3581
  134MOL     C224208   0.231   4.903   1.135 -0.2089 -0.4911  0.3893
  134MOL     C324209   0.223   4.845   1.376 -0.5609 -0.1414  0.7094
  134MOL     O424210   0.331   4.859   1.438 -0.5048  0.2332  0.1948
  134MOL     O524211   0.109   4.882   1.413  0.5211 -0.1410  0.4224
  134MOL     H624212   0.115   4.741   1.226 -0.3613  1.9331 -1.7681
  134MOL     H724213   0.206   4.873   1.033  1.3339  0.2934 -0.2419
  134MOL     H824214   0.155   4.979   1.150 -0.0417  1.0587 -5.4550
  134MOL     H924215   0.332   4.944   1.143 -0.2286 -0.6690  1.6950
  134MOL    H1024216   0.285   4.706   1.220 -1.8122 -1.2983 -1.3884
  134MOL    C1124217   0.075   4.956   1.537  0.3472  0.0133 -0.4212
  134MOL    C1224218   8.064   4.957   1.547  1.3628  0.2444  1.0099
  134MOL    C1324219   0.134   5.100   1.543 -0.1572 -0.2490  0.5922
  134MOL    O1424220   0.163   5.155   1.440  0.0513  0.2530  0.1819
  134MOL    O1524221   0.168   5.148   1.664  0.1542  0.1728  0.1201
  134MOL    H1624222   0.109   4.901   1.624  0.7704  0.8493 -0.0492
  134MOL    H1724223   8.020   5.019   1.625  0.7950  0.5623  0.4513
  134MOL    H1824224   8.018   4.981   1.451 -0.6790 -0.7839  1.6879
  134MOL    H1924225   8.023   4.856   1.555  2.4452 -0.4003 -1.1727
  134MOL    C2024226   0.201   5.284   1.693 -0.2442  0.0938  0.3000
  134MOL    C2124227   0.331   5.277   1.781 -0.0393  0.2146  0.3159
  134MOL    C2224228   0.080   5.354   1.768 -0.0881  0.2234  0.2771
  134MOL    O2324229   8.112   5.312   1.752 -0.3454  0.3295  0.6126
  134MOL    O2424230   0.120   5.456   1.843 -0.1894 -0.0259  0.1476
  134MOL    H2524231   0.218   5.347   1.606  0.4004  1.1015  1.1410
  134MOL    H2624232   0.378   5.374   1.774 -1.2280  0.7899  0.1882
  134MOL    H2724233   0.308   5.256   1.885  3.7034 -2.9786  0.6156
  134MOL    H2824234   0.400   5.197   1.755  0.3716  1.0032 -1.0664
  134MOL    C2924235   0.032   5.506   1.945  0.1879 -0.0069 -0.5166
  134MOL    C3024236   0.085   5.646   1.988 -0.4052  0.3677 -0.1482
  134MOL    C3124237   0.039   5.411   2.069  0.9304  0.2216 -0.3526
  134MOL    O3224238   8.082   5.372   2.129  0.2903  0.8024  0.3419
  134MOL    O3324239   0.165   5.388   2.116 -0.2044 -0.1280  0.3514
  134MOL    H3424240   8.076   5.511   1.911 -0.1530  0.5194  0.5824
  134MOL    H3524241   0.178   5.641   2.044  0.9044  2.5001 -2.0505
  134MOL    H3624242   0.107   5.705   1.899  2.7195 -1.1508 -0.4398
  134MOL    H3724243   0.011   5.702   2.045 -1.2036 -2.3439  1.5593
  134MOL    C3824244   0.188   5.290   2.224  0.2829 -0.0329  0.0947
  134MOL    C3924245   0.331   5.285   2.262 -0.0022  0.1714  0.3177
  134MOL    C4024246   0.135   5.147   2.191  0.0375  0.2482  0.2445
  134MOL    O4124247   0.091   5.076   2.280  0.3166  0.1467  0.3839
  134MOL    O4224248   0.159   5.107   2.069  0.1435  0.2263 -0.4848
  134MOL    H4324249   0.128   5.321   2.310  1.0192  2.3610 -0.2107
  134MOL    H4424250   0.392   5.217   2.202  0.3843  0.7270  0.0770
  134MOL    H4524251   0.385   5.380   2.265 -1.2979  0.8734  1.4800
  134MOL    H4624252   0.337   5.230   2.356 -0.5674 -1.1688 -0.4140
  134MOL    C4724253   0.135   4.972   2.029 -1.2498 -0.5649  0.3603
  134MOL    C4824254   0.245   4.936   1.923  0.4030  0.3520 -0.3218
  134MOL    C4924255   8.144   4.961   1.952  0.9334  0.4206 -0.2640
  134MOL    O5024256   8.129   4.898   1.852 -0.1450  0.1864  0.1905
  134MOL    O5124257   8.043   5.025   2.021 -0.6260  0.1269  0.3410
  134MOL    H5224258   0.139   4.902   2.112  2.0935 -1.7812 -0.7506
  134MOL    H5324259   0.238   5.001   1.836  0.5713  1.1501  0.2578
  134MOL    H5424260   0.340   4.954   1.973  0.4098 -0.5516  0.0003
  134MOL    H5524261   0.238   4.835   1.881 -0.2248  0.5412 -0.6872
  134MOL    C5624262   7.905   5.011   1.988 -0.3727 -0.2606  0.6732
  134MOL    C5724263   7.855   5.143   1.924  0.2228  0.6906 -0.5680
  134MOL    C5824264   7.827   4.984   2.119  0.4723  0.1263  0.6053
  134MOL    O5924265   7.710   4.944   2.119 -0.2935  0.2294  0.0674
  134MOL    O6024266   7.900   5.014   2.233  0.0469  0.3774  0.3506
  134MOL    H6124267   7.887   4.942   1.906 -0.3238 -0.3973  0.7769
  134MOL    H6224268   7.747   5.150   1.913  0.0989  1.3881  0.9780
  134MOL    H6324269   7.882   5.236   1.974  2.3557  0.9401 -2.0914
  134MOL    H6424270   7.897   5.150   1.823 -0.0285  1.6769 -0.6117
  134MOL    C6524271   7.853   4.973   2.360 -0.0538 -0.6474  0.3627
  134MOL    C6624272   7.965   5.018   2.459  0.2367 -0.5536  0.7370
  134MOL    C6724273   7.829   4.828   2.377  0.9604  0.1648  0.6122
  134MOL    O6824274   7.717   4.788   2.416 -0.6752  0.2867 -0.0736
  134MOL    O6924275   7.933   4.757   2.340  0.2870 -0.2176  0.1136
  134MOL    H7024276   7.762   5.029   2.381  1.3947  1.3848  1.4064
  134MOL    H7124277   7.987   5.123   2.440 -1.2908 -0.3069  0.2628
  134MOL    H7224278   7.935   5.012   2.564  0.0450  3.4813  1.0199
  134MOL    H7324279   8.061   4.966   2.452  1.1698  1.3828 -2.1497
  134MOL    C7424280   7.925   4.617   2.337 -0.3272 -0.0368 -0.6631
  134MOL    C7524281   8.037   4.554   2.419 -0.2210 -0.5913  0.8283
  134MOL    C7624282   7.930   4.563   2.196 -0.5688 -0.0166 -0.2719
  134MOL    O7724283   7.922   4.440   2.185  0.1032  0.0576  0.0487
  134MOL    O7824284   7.939   4.656   2.098 -0.1325  0.9556 -0.0928
  134MOL    H7924285   7.834   4.579   2.384  0.0901 -0.6954 -0.3718
  134MOL    H8024286   8.026   4.445   2.418 -0.2122 -0.5918  0.7758
  134MOL    H8124287   8.134   4.586   2.381 -0.5119 -1.5999 -0.7973
  134MOL    H8224288   8.030   4.578   2.525  2.4624 -0.1929  0.9511
  134MOL    C8324289   7.935   4.631   1.958  1.0718  0.9901 -0.3906
  134MOL    C8424290   7.786   4.626   1.911 -0.1367  0.0935 -0.3276
  134MOL    C8524291   8.046   4.534   1.916 -0.3071 -0.4576 -0.5762
  134MOL    O8624292   8.045   4.481   1.804 -0.2080  0.1573 -0.0407
  134MOL    O8724293   0.005   4.538   2.007 -0.0149 -0.5054 -0.3262
  134MOL    H8824294   7.968   4.727   1.918 -0.5684  0.4694 -3.1297
  134MOL    H8924295   7.773   4.599   1.806 -1.9453 -0.3722 -0.0078
  134MOL    H9024296   7.739   4.546   1.967 -0.8857  0.3134 -0.6261
  134MOL    H9124297   7.739   4.722   1.933 -2.8184 -1.1561 -0.3382
  134MOL    C9224298   0.124   4.463   2.000 -0.1759  0.2199  0.2920
  134MOL    C9324299   0.231   4.530   1.913  0.6967 -0.2585 -0.2819
  134MOL    C9424300   0.095   4.316   1.951 -0.1353  1.0610  0.4283
  134MOL    O9524301   0.156   4.262   1.855 -0.0739 -0.1008 -0.3116
  134MOL    O9624302   0.001   4.248   2.030  0.4475  0.1324  0.2190
  134MOL    H9724303   0.161   4.464   2.102  0.7693  0.6480 -0.0488
  134MOL    H9824304   0.195   4.555   1.813 -0.5154 -1.9074 -0.2826
  134MOL    H9924305   0.264   4.620   1.964 -1.9585  1.4406 -1.4359
  134MOL   H10024306   0.320   4.469   1.898  0.7749 -0.0928 -0.4959
  134MOL   C10124307   8.090   4.126   1.989 -0.6237 -0.4087 -0.6517
  134MOL   C10224308   7.941   4.121   2.021  0.6285 -0.3312  0.7651
  134MOL   C10324309   0.015   4.007   2.056  0.6144  0.9896  0.4851
  134MOL   O10424310   0.048   3.907   1.994  0.2825 -0.4541 -0.1381
  134MOL   O10524311   0.027   4.018   2.186 -0.1688  0.1623 -0.6255
  134MOL   H10624312   8.102   4.127   1.880 -1.1988  3.2554 -0.7308
  134MOL   H10724313   7.899   4.203   1.963  1.8094  0.7970  1.4741
  134MOL   H10824314   7.897   4.031   1.977 -2.6913  2.2519 -1.4149
  134MOL   H10924315   7.918   4.133   2.126 -0.5297 -0.7552  0.5640
  134MOL   C11024316   0.084   3.917   2.280 -0.3267 -0.3594 -0.0861
  134MOL   C11124317   8.129   3.810   2.302 -0.5893 -0.1298 -0.4246
  134MOL   C11224318   0.110   3.976   2.415 -0.3891  0.5535  0.7050
  134MOL   O11324319   0.200   3.944   2.494  0.4347  0.0166  0.3426
  134MOL   O11424320   0.021   4.071   2.450  0.0177 -0.5093  0.0340
  134MOL   H11524321   0.171   3.873   2.232  1.1658  1.1726  1.1824
  134MOL   H11624322   8.125   3.743   2.217  0.9615  0.3509 -0.8874
  134MOL   H11724323   0.001   3.745   2.388  2.2328  0.4081 -0.6103
  134MOL   H11824324   8.030   3.854   2.301 -0.0930  1.0404  0.1213
  134MOL   C11924325   0.029   4.150   2.570  0.5280 -0.4277  0.7431
  134MOL   C12024326   8.034   4.189   2.605  0.6162 -0.7396  0.7155
  134MOL   C12124327   0.118   4.276   2.540 -0.1543 -0.7014 -0.6657
  134MOL   O12224328   0.094   4.388   2.586 -0.0000  0.1731  0.5307
  134MOL   O12324329   0.226   4.259   2.463  0.0184  0.2495  0.3473
  134MOL   H12424330   0.082   4.093   2.647  1.1999  0.8258  1.2223
  134MOL   H12524331   7.973   4.209   2.518 -1.5832 -1.8940  1.9600
  134MOL   H12624332   7.983   4.111   2.662 -1.7384  0.5529  0.4091
  134MOL   H12724333   8.022   4.273   2.674  1.0063 -0.9866  1.0861
  134MOL   C12824334   0.307   4.365   2.418  0.7203 -1.1260  0.3895
  134MOL   C12924335   0.381   4.316   2.298  0.8015  0.6801 -0.3160
  134MOL   C13024336   0.402   4.421   2.528  0.7367 -0.1756 -0.1828
  134MOL   O13124337   0.391   4.540   2.567  0.4153  0.6059  0.1697
  134MOL   O13224338   0.491   4.330   2.585  0.2691 -0.1917  0.4431
  134MOL   H13324339   0.249   4.452   2.389  1.5034 -1.2070 -1.5202
  134MOL   H13424340   0.419   4.392   2.230 -0.0405  0.6333 -0.8498
  134MOL   H13524341   0.465   4.253   2.327  2.4105  2.6460 -0.6075
  134MOL   H13624342   0.318   4.247   2.241  1.0795  0.1664 -0.0050
  134MOL   C13724343   0.597   4.380   2.673  0.6899  0.5854 -0.7288
  134MOL   C13824344   0.729   4.310   2.622 -0.8489  0.1915  0.4303
  134MOL   C13924345   0.572   4.347   2.821 -0.6702 -0.2913  0.0083
  134MOL   O14024346   0.652   4.279   2.888  0.2044  0.5734  0.5146
  134MOL   O14124347   0.451   4.390   2.873  0.5044  0.3415 -0.2548
  134MOL   H14224348   0.622   4.485   2.658  1.4493  0.6126  0.6437
  134MOL   H14324349   0.751   4.337   2.519  3.1179  2.2937  1.7312
  134MOL   H14424350   0.808   4.350   2.686  1.8042 -1.7236 -1.5662
  134MOL   H14524351   0.735   4.202   2.636  1.1698 -0.1606 -2.7214
  134MOL   C14624352   0.402   4.348   3.004 -0.7117 -0.0828  0.3377
  134MOL   C14724353   0.239   4.358   3.028  0.3903 -0.1279 -0.2459
  134MOL   C14824354   0.488   4.417   3.116 -0.1538 -0.5134 -0.2307
  134MOL   O14924355   0.559   4.352   3.193  0.8559 -0.3283 -0.0596
  134MOL   O15024356   0.479   4.554   3.117 -0.0160 -0.1834 -0.0690
  134MOL   H15124357   0.432   4.243   3.008  0.0064 -0.0056 -2.1380
  134MOL   H15224358   0.208   4.376   3.131  3.0285 -2.4768  1.0300
  134MOL   H15324359   0.214   4.455   2.986 -1.7333 -1.1231 -1.3643
  134MOL   H15424360   0.185   4.278   2.978 -3.4366  1.7086  0.7716
  134MOL   C15524361   0.571   4.641   3.188 -0.6994  0.0186 -0.1260
  134MOL   C15624362   0.519   4.786   3.167 -0.2039 -0.2864 -0.6368
  134MOL   C15724363   0.722   4.620   3.146  0.6466 -0.2775 -0.1240
  134MOL   O15824364   0.754   4.544   3.054 -0.6439 -0.0744 -0.2282
  134MOL   O15924365   0.811   4.703   3.206 -0.3523 -0.3494  0.6053
  134MOL   H16024366   0.564   4.613   3.293  0.8650 -0.9281 -0.2544
  134MOL   H16124367   0.581   4.861   3.215 -1.0862  0.0873 -0.0720
  134MOL   H16224368   0.512   4.823   3.064  0.0076  0.8266 -0.2517
  134MOL   H16324369   0.419   4.801   3.207 -0.7205  0.5998 -2.1932
  134MOL   C16424370   0.944   4.727   3.148  0.3213  0.3230  0.3433
  134MOL   C16524371   1.040   4.761   3.259  0.1333  0.1377 -0.0624
  134MOL   C16624372   0.929   4.827   3.038  0.8197 -0.2753 -0.4757
  134MOL   O16724373   0.825   4.865   2.991  0.3723  0.7170  0.2492
  134MOL   O16824374   1.053   4.860   2.997 -0.0383 -0.1952 -0.2224
  134MOL   H16924375   0.990   4.634   3.114  0.6579  1.0062 -1.0712
  134MOL   H17024376   1.063   4.678   3.326 -2.0376 -0.7449 -0.3225
  134MOL   H17124377   1.134   4.785   3.209 -0.6025 -0.6779 -1.9070
  134MOL   H17224378   1.009   4.853   3.308  0.2220  0.0153  0.2221
  134MOL   C17324379   1.074   4.957   2.901 -0.2784 -0.1842  0.5204
  134MOL   C17424380   1.209   4.928   2.832 -0.0787  0.1619 -0.1389
  134MOL   C17524381   1.071   5.100   2.948 -0.0188  0.3218  0.1073
  134MOL   O17624382   0.975   5.166   2.909 -0.1310  0.0298 -0.6551
  134MOL   O17724383   1.167   5.128   3.037  0.2725  0.0529 -0.3332
  134MOL   H17824384   0.995   4.959   2.826  0.7977 -2.3187 -0.7331
  134MOL   H17924385   1.198   4.847   2.759 -0.5918 -0.0952  0.2221
  134MOL   H18024386   1.235   5.021   2.781  0.6784  0.5753  0.9851
  134MOL   H18124387   1.273   4.900   2.915  0.9700  1.0502 -0.6410
  134MOL   H18224388   1.225   5.054   3.029  1.2796  0.8321 -0.3131
  135MOL     C124389   6.272   6.290   3.170  0.0464  0.1636 -0.2183
  135MOL     C224390   6.415   6.245   3.147  0.0463  0.4411 -0.4773
  135MOL     C324391   6.209   6.357   3.050 -0.0345  0.0724  0.6348
  135MOL     O424392   6.195   6.477   3.053 -0.6406 -0.4929  0.2228
  135MOL     O524393   6.180   6.268   2.949  0.6483 -0.5149  0.2972
  135MOL     H624394   6.208   6.210   3.207 -1.1177  0.5813 -1.2855
  135MOL     H724395   6.416   6.177   3.062 -1.7662 -1.5400  1.0244
  135MOL     H824396   6.478   6.333   3.133  0.5963  0.0587 -0.4229
  135MOL     H924397   6.462   6.192   3.231 -2.0563 -1.9644 -0.7663
  135MOL    H1024398   6.275   6.356   3.257 -0.4123 -0.2338  0.1055
  135MOL    C1124399   6.142   6.319   2.822  0.0382 -0.2672 -0.3307
  135MOL    C1224400   6.067   6.211   2.736  0.5475 -0.1123  0.6958
  135MOL    C1324401   6.259   6.390   2.752  0.0741  0.2110 -0.2731
  135MOL    O1424402   6.243   6.501   2.695  0.1346 -0.1894  0.1360
  135MOL    O1524403   6.364   6.314   2.770  0.2821 -0.9021 -0.0983
  135MOL    H1624404   6.072   6.401   2.839  1.1345  0.5434  0.2389
  135MOL    H1724405   6.043   6.250   2.637  1.6031  0.0419  0.4956
  135MOL    H1824406   6.122   6.123   2.705  0.7488  1.0501 -2.4266
  135MOL    H1924407   5.978   6.184   2.793 -0.4290 -1.1724 -1.2890
  135MOL    C2024408   6.485   6.337   2.697 -0.1367 -0.3591  0.3294
  135MOL    C2124409   6.562   6.203   2.668  0.1771 -0.7912 -0.0744
  135MOL    C2224410   6.571   6.433   2.786 -0.0283 -0.1798 -0.9241
  135MOL    O2324411   6.559   6.431   2.907 -0.5912 -0.6168 -0.4799
  135MOL    O2424412   6.635   6.522   2.713  0.2848 -0.4982  0.3557
  135MOL    H2524413   6.450   6.383   2.604 -0.8534 -0.8886  0.3354
  135MOL    H2624414   6.502   6.141   2.601  0.1538  1.4507 -2.2253
  135MOL    H2724415   6.655   6.222   2.614 -1.1939  0.4246 -2.0861
  135MOL    H2824416   6.580   6.163   2.768  0.9162 -1.4293 -0.4585
  135MOL    C2924417   6.720   6.626   2.766 -0.5862 -0.0643 -0.3420
  135MOL    C3024418   6.782   6.689   2.642  1.6285 -0.3088  0.5562
  135MOL    C3124419   6.831   6.563   2.857  0.0369  0.0245  0.5836
  135MOL    O3224420   6.878   6.453   2.837  0.1688  0.1199  0.1962
  135MOL    O3324421   6.871   6.641   2.952  0.0023 -0.2632  0.0728
  135MOL    H3424422   6.658   6.695   2.823  1.2441  0.4269  1.1047
  135MOL    H3524423   6.875   6.741   2.665  0.8984  0.7618  1.1844
  135MOL    H3624424   6.794   6.632   2.550 -3.1516 -0.0168 -0.4030
  135MOL    H3724425   6.699   6.754   2.612  0.1869 -2.1462  0.5053
  135MOL    C3824426   6.966   6.603   3.048  0.0215  0.3149 -0.0770
  135MOL    C3924427   6.955   6.714   3.156 -0.8316  0.8249  0.4345
  135MOL    C4024428   7.108   6.605   2.985  0.2063 -0.7079 -0.5162
  135MOL    O4124429   7.128   6.625   2.866  0.1798 -0.4288  0.3664
  135MOL    O4224430   7.204   6.582   3.079  0.5119 -0.1978  0.0405
  135MOL    H4324431   6.941   6.514   3.106  0.4626  1.8271  2.5398
  135MOL    H4424432   6.997   6.683   3.251 -1.6272 -2.7541 -0.2948
  135MOL    H4524433   6.999   6.806   3.118 -1.3450  2.4990  3.7612
  135MOL    H4624434   6.853   6.751   3.170 -0.4227  1.4728  1.8095
  135MOL    C4724435   7.346   6.596   3.055  0.5716 -0.2928 -0.5260
  135MOL    C4824436   7.410   6.514   3.169 -0.1408  0.9749 -0.7120
  135MOL    C4924437   7.399   6.741   3.064  0.8495  1.1511 -0.0227
  135MOL    O5024438   7.394   6.804   3.169 -0.2032  0.5519  0.1757
  135MOL    O5124439   7.429   6.797   2.948  0.1403  0.4023  0.6379
  135MOL    H5224440   7.377   6.553   2.960 -0.3103 -1.1818 -0.4173
  135MOL    H5324441   7.517   6.532   3.159 -0.0803  0.6881 -0.5873
  135MOL    H5424442   7.388   6.563   3.264 -1.2157  0.0180 -0.4592
  135MOL    H5524443   7.399   6.405   3.171  2.3216  0.6681 -2.0711
  135MOL    C5624444   7.435   6.943   2.937  0.0409 -0.0598 -0.0215
  135MOL    C5724445   7.410   6.987   2.789 -0.4326 -0.2019 -0.8259
  135MOL    C5824446   7.574   6.994   2.980  0.0789  0.0268 -0.5929
  135MOL    O5924447   7.666   6.918   3.015  0.2862  0.7487 -0.6275
  135MOL    O6024448   7.574   7.130   2.983  0.3988 -0.2017  0.3679
  135MOL    H6124449   7.350   6.983   2.992 -0.1754 -0.5505  0.0066
  135MOL    H6224450   7.488   6.950   2.723 -1.1265 -1.4708 -0.9434
  135MOL    H6324451   7.319   6.942   2.750 -2.0382  1.4609  0.8866
  135MOL    H6424452   7.406   7.095   2.773  0.0719  0.5954  3.7705
  135MOL    C6524453   7.681   7.207   3.026 -0.2394  0.2090 -0.5422
  135MOL    C6624454   7.622   7.335   3.085  0.9867 -0.0377  0.7515
  135MOL    C6724455   7.772   7.244   2.905  0.5840 -0.2541  0.1453
  135MOL    O6824456   7.809   7.361   2.881 -0.0524 -0.0949 -0.0609
  135MOL    O6924457   7.799   7.140   2.829 -0.0217 -0.1727  0.6155
  135MOL    H7024458   7.744   7.163   3.103  0.5402  2.0296 -0.1105
  135MOL    H7124459   7.565   7.388   3.009  0.3698 -1.7346  0.0053
  135MOL    H7224460   7.553   7.313   3.166  0.5144  0.6963  0.5469
  135MOL    H7324461   7.699   7.403   3.120 -1.2116  3.3935 -0.8860
  135MOL    C7424462   7.892   7.141   2.722 -0.3583 -0.0186  0.3590
  135MOL    C7524463   7.875   7.008   2.649  0.1251  0.9954 -0.0780
  135MOL    C7624464   8.032   7.154   2.787  0.9830  0.6182 -0.0734
  135MOL    O7724465   8.089   7.053   2.837 -0.3379 -0.1118 -0.4800
  135MOL    O7824466   8.069   7.283   2.794  0.3053  0.6448 -0.1185
  135MOL    H7924467   7.878   7.228   2.658  0.7659  1.3312  1.9166
  135MOL    H8024468   7.804   6.947   2.705  0.2670  0.5896 -0.3365
  135MOL    H8124469   7.823   7.026   2.555 -1.0600  1.2524  0.6213
  135MOL    H8224470   7.966   6.955   2.624 -0.0119  1.1895 -0.9922
  135MOL    C8324471   0.021   7.328   2.887 -0.1711  0.5051  0.5133
  135MOL    C8424472   8.144   7.476   2.902  0.0139  0.0648 -0.0901
  135MOL    C8524473   0.160   7.294   2.838 -0.2206 -0.2152 -0.4278
  135MOL    O8624474   0.236   7.211   2.884 -0.3665 -0.6088 -0.0849
  135MOL    O8724475   0.177   7.353   2.722  0.3221 -0.0211  0.0610
  135MOL    H8824476   0.015   7.278   2.984 -1.6124  0.2424  0.2981
  135MOL    H8924477   0.004   7.528   2.807 -0.9599  2.6559  1.1851
  135MOL    H9024478   8.046   7.499   2.945  0.3118  3.0487 -0.9034
  135MOL    H9124479   0.075   7.518   2.966  0.3279 -0.2733 -0.2518
  135MOL    C9224480   0.284   7.323   2.631  0.4314 -0.0807 -0.3980
  135MOL    C9324481   0.383   7.438   2.635  0.3242  0.4804 -0.0538
  135MOL    C9424482   0.227   7.289   2.491  0.0336 -0.4018 -0.3117
  135MOL    O9524483   0.295   7.218   2.415  0.1250 -0.0824  0.3384
  135MOL    O9624484   0.099   7.342   2.462 -0.2645 -0.7730 -0.5671
  135MOL    H9724485   0.334   7.232   2.663  1.2816  0.2129 -0.8899
  135MOL    H9824486   0.436   7.457   2.728  0.6649  0.8258 -0.3167
  135MOL    H9924487   0.466   7.422   2.566  0.6725 -0.3315  0.5426
  135MOL   H10024488   0.341   7.538   2.623 -0.0903  0.8293  3.5737
  135MOL   C10124489   0.039   7.314   2.333 -0.4120 -0.0977  0.2302
  135MOL   C10224490   8.069   7.408   2.312 -0.3556 -0.5363 -0.2443
  135MOL   C10324491   8.144   7.168   2.321 -0.1073  0.3216 -0.4109
  135MOL   O10424492   8.123   7.098   2.421  0.4055 -0.6583  0.1087
  135MOL   O10524493   8.130   7.117   2.197 -0.4115 -0.2418 -0.5211
  135MOL   H10624494   0.120   7.328   2.261  0.4685 -1.4758  0.9176
  135MOL   H10724495   8.111   7.508   2.297 -0.1534 -0.4765  0.6924
  135MOL   H10824496   8.011   7.385   2.223  0.6570 -0.8706 -0.8239
  135MOL   H10924497   8.002   7.395   2.397 -0.8916  0.3176 -0.5250
  135MOL   C11024498   8.097   6.983   2.175 -0.1264  0.0285  0.0103
  135MOL   C11124499   8.077   6.973   2.020 -0.0877 -1.3750  0.5436
  135MOL   C11224500   7.961   6.942   2.242  0.4872  0.0806  0.6664
  135MOL   O11324501   7.877   7.032   2.261  0.0544  0.8258  0.0686
  135MOL   O11424502   7.950   6.805   2.271 -0.1477 -0.3994  0.8391
  135MOL   H11524503   0.041   6.930   2.200  0.9739  1.7277 -0.3492
  135MOL   H11624504   8.037   7.063   1.975  1.2574 -0.3373  1.3790
  135MOL   H11724505   0.022   6.946   1.969  0.9438  3.8760 -0.5682
  135MOL   H11824506   8.000   6.898   2.002 -0.7413 -0.7173  0.5975
  135MOL   C11924507   7.830   6.745   2.313 -0.1895  0.4980 -0.1964
  135MOL   C12024508   7.867   6.619   2.398 -0.4074 -0.4034  0.2251
  135MOL   C12124509   7.739   6.712   2.193  0.3337  0.0126  0.3278
  135MOL   O12224510   7.631   6.771   2.181 -0.2156 -0.1962  0.8835
  135MOL   O12324511   7.797   6.631   2.100 -0.1925 -0.5512 -0.3458
  135MOL   H12424512   7.766   6.814   2.368 -0.3948  0.1317  0.0285
  135MOL   H12524513   7.942   6.560   2.345 -0.7181  0.3641 -1.0786
  135MOL   H12624514   7.914   6.637   2.495  0.5927 -2.5825  0.1875
  135MOL   H12724515   7.791   6.544   2.420 -1.0935 -0.2115 -1.4556
  135MOL   C12824516   7.731   6.604   1.977 -0.5687  0.0241 -0.2509
  135MOL   C12924517   7.624   6.507   2.001  0.5865 -0.0689  0.1472
  135MOL   C13024518   7.834   6.552   1.875  0.6716 -0.0259  0.0921
  135MOL   O13124519   7.825   6.440   1.824 -0.0458  0.2724 -0.1352
  135MOL   O13224520   7.939   6.641   1.844  0.5111 -0.2769  0.0759
  135MOL   H13324521   7.689   6.696   1.937 -0.3208  0.8020  1.2300
  135MOL   H13424522   7.549   6.546   2.069  0.1971  0.3485 -0.5095
  135MOL   H13524523   7.564   6.489   1.911  1.8754 -0.4793 -0.6359
  135MOL   H13624524   7.667   6.410   2.022  1.7803  0.2732 -0.6973
  135MOL   C13724525   8.009   6.615   1.714  0.9280  0.8168 -0.6878
  135MOL   C13824526   8.123   6.518   1.735  0.0433 -0.2772 -0.6910
  135MOL   C13924527   8.045   6.750   1.658 -0.8961  0.4294  0.9853
  135MOL   O14024528   8.022   6.853   1.721  0.5079 -0.3038  0.4134
  135MOL   O14124529   8.093   6.745   1.534  0.8485 -0.1004 -0.0294
  135MOL   H14224530   7.942   6.570   1.640  2.3441  0.0274 -1.5207
  135MOL   H14324531   8.094   6.416   1.757  1.0561 -0.0394  1.9643
  135MOL   H14424532   0.048   6.516   1.653  0.4780 -0.3238 -0.3095
  135MOL   H14524533   0.041   6.560   1.812  2.4827  0.0894 -2.9082
  135MOL   C14624534   0.031   6.853   1.483 -0.4397 -0.1698  0.3778
  135MOL   C14724535   8.084   6.950   1.415 -0.1879 -0.0713  0.5583
  135MOL   C14824536   0.129   6.803   1.375 -0.3562 -0.3809 -0.8423
  135MOL   O14924537   0.113   6.697   1.320 -0.3049  0.0283 -0.1514
  135MOL   O15024538   0.238   6.885   1.359  0.1362 -0.9746  0.1325
  135MOL   H15124539   0.081   6.907   1.563 -0.7971  0.0959  0.4248
  135MOL   H15224540   8.134   7.028   1.359 -0.4175 -0.6103 -0.4044
  135MOL   H15324541   8.015   6.906   1.344  0.4425 -0.5796  0.2456
  135MOL   H15424542   8.022   6.995   1.492 -0.4150 -0.9671  0.9121
  135MOL   C15524543   0.346   6.837   1.273  0.6997  0.1826 -0.2749
  135MOL   C15624544   0.462   6.935   1.298  0.1830  0.0816 -0.3545
  135MOL   C15724545   0.298   6.837   1.125 -0.0856 -0.1551  0.3664
  135MOL   O15824546   0.316   6.741   1.050 -0.2020  0.5800  0.2881
  135MOL   O15924547   0.255   6.960   1.085 -0.2752 -0.8050  0.4553
  135MOL   H16024548   0.386   6.739   1.300  0.3750  0.3027  0.6777
  135MOL   H16124549   0.431   7.040   1.302  0.6791  0.2402 -0.5853
  135MOL   H16224550   0.500   6.912   1.397 -4.1018  0.2952  1.4631
  135MOL   H16324551   0.545   6.913   1.231  0.8999 -1.1177  0.9039
  135MOL   C16424552   0.207   6.974   0.944  0.5451  0.5173 -0.0400
  135MOL   C16524553   0.195   7.126   0.934 -0.0795 -0.3717  0.3101
  135MOL   C16624554   0.070   6.908   0.932 -0.1457 -0.0754 -0.1305
  135MOL   O16724555   0.002   6.858   1.024  0.2360  0.0534 -0.1290
  135MOL   O16824556   0.025   6.919   0.807  0.2844 -0.8637 -0.1940
  135MOL   H16924557   0.281   6.933   0.876  0.4262 -1.0313  0.7372
  135MOL   H17024558   0.272   7.174   0.994 -0.7869  1.0823  0.0854
  135MOL   H17124559   0.210   7.156   0.830  0.4604 -0.8987  0.2328
  135MOL   H17224560   0.098   7.154   0.975 -0.7070  1.2217 -2.1548
  135MOL   C17324561   8.040   6.863   0.781 -0.1817  0.4414  0.2021
  135MOL   C17424562   8.026   6.843   0.632  0.2643  0.4197 -0.0370
  135MOL   C17524563   7.927   6.944   0.846 -0.2671 -0.1684 -0.4191
  135MOL   O17624564   7.848   6.903   0.929  0.0208  0.3897 -0.1555
  135MOL   O17724565   7.926   7.081   0.808 -0.0209  0.3942  0.2097
  135MOL   H17824566   8.033   6.764   0.824 -0.8086 -0.6324 -2.2881
  135MOL   H17924567   8.075   6.754   0.593  1.2240  1.2924 -0.8286
  135MOL   H18024568   7.921   6.829   0.603  0.6023 -0.2548 -0.9441
  135MOL   H18124569   8.049   6.930   0.571 -2.2262  0.2228 -1.3213
  135MOL   H18224570   7.852   7.130   0.840  0.8287  0.9576  1.3662
  136MOL     C124571   8.008   3.795   3.834 -0.5360 -0.2926  0.2021
  136MOL     C224572   7.954   3.799   3.975 -0.2820 -0.5737 -0.4444
  136MOL     C324573   7.906   3.759   3.724 -0.3179 -0.1709  0.7840
  136MOL     O424574   7.927   3.655   3.666  0.0894  0.0333  0.3909
  136MOL     O524575   7.806   3.843   3.707  0.5008 -0.4531  0.2968
  136MOL     H624576   8.059   3.888   3.809  0.9709 -2.0789 -3.8486
  136MOL     H724577   7.992   3.710   4.024 -0.2444  0.0873  0.7445
  136MOL     H824578   8.001   3.886   4.021 -1.1256 -0.1832 -0.2937
  136MOL     H924579   7.846   3.813   3.981 -0.3734 -1.3437 -0.3232
  136MOL    H1024580   8.077   3.711   3.837  0.4713  0.5725  2.8783
  136MOL    C1124581   7.695   3.797   3.622 -0.0037  0.2390 -0.0118
  136MOL    C1224582   7.618   3.920   3.579 -0.4588 -0.2701  0.6011
  136MOL    C1324583   7.604   3.710   3.709 -0.4839  0.2137 -0.6773
  136MOL    O1424584   7.608   3.713   3.832 -0.8405 -0.3221 -0.3118
  136MOL    O1524585   7.522   3.632   3.627  0.4804  0.1453 -0.0848
  136MOL    H1624586   7.731   3.745   3.533 -0.8880 -1.1130  0.4007
  136MOL    H1724587   7.613   3.992   3.661  2.0156 -1.3105  1.7314
  136MOL    H1824588   7.664   3.960   3.488 -2.0248  0.3647  0.0698
  136MOL    H1924589   7.515   3.907   3.546 -0.4037 -0.1263  0.3612
  136MOL    C2024590   7.398   3.582   3.677  0.5655 -0.2388  0.4277
  136MOL    C2124591   7.357   3.489   3.566  0.0661  0.1027 -0.5955
  136MOL    C2224592   7.299   3.693   3.702 -0.8157  0.2083 -0.3158
  136MOL    O2324593   7.282   3.792   3.629 -0.4202 -0.0673 -0.2061
  136MOL    O2424594   7.232   3.669   3.812  0.4826  0.3384 -0.7865
  136MOL    H2524595   7.413   3.530   3.772  1.5050 -0.0994  0.3559
  136MOL    H2624596   7.369   3.539   3.470 -1.9018  1.9354  0.0752
  136MOL    H2724597   7.420   3.400   3.575  0.1072  0.2599  0.7668
  136MOL    H2824598   7.252   3.461   3.578  0.2510 -0.3892 -0.0634
  136MOL    C2924599   7.121   3.750   3.857 -0.2917  0.0037  0.9674
  136MOL    C3024600   7.083   3.692   3.999 -0.3981  0.2033  0.2201
  136MOL    C3124601   7.005   3.749   3.753 -0.4066  0.3638 -0.2780
  136MOL    O3224602   7.003   3.669   3.658 -0.3760  0.3056 -0.5012
  136MOL    O3324603   6.899   3.833   3.787 -0.0263  0.0032  0.1724
  136MOL    H3424604   7.156   3.851   3.879 -2.8095  0.6372  2.2569
  136MOL    H3524605   7.040   3.593   3.993 -1.7576  0.8563 -1.1276
  136MOL    H3624606   7.175   3.688   4.057  1.1661 -0.7249 -2.2271
  136MOL    H3724607   7.009   3.755   4.048  0.4842  2.5813 -1.3767
  136MOL    C3824608   6.790   3.843   3.699  0.0741 -0.5750  0.3146
  136MOL    C3924609   6.718   3.977   3.726  0.4492 -0.2090  0.2435
  136MOL    C4024610   6.686   3.726   3.717 -0.2044 -0.1682  0.0366
  136MOL    O4124611   6.677   3.637   3.634 -0.6761  0.7812  0.3240
  136MOL    O4224612   6.615   3.745   3.827  0.0060 -0.4503  0.2044
  136MOL    H4324613   6.817   3.838   3.594  0.0035  1.1753  0.1904
  136MOL    H4424614   6.626   3.984   3.668  0.7660 -0.2299 -0.2678
  136MOL    H4524615   6.708   3.987   3.834 -2.9104  2.4806 -0.2453
  136MOL    H4624616   6.776   4.065   3.699  1.1840 -0.5078  0.8008
  136MOL    C4724617   6.515   3.649   3.858 -0.7360  0.4657  0.2297
  136MOL    C4824618   6.398   3.718   3.913 -0.0730  0.5674 -0.3178
  136MOL    C4924619   6.570   3.545   3.957  0.2210  0.2677  0.6683
  136MOL    O5024620   6.669   3.569   4.028 -0.2303  0.1749  0.2757
  136MOL    O5124621   6.501   3.431   3.954  0.2091 -0.0726  0.2602
  136MOL    H5224622   6.483   3.598   3.767 -3.2219  0.7689  0.8889
  136MOL    H5324623   6.362   3.786   3.836  1.9996  2.7288  0.5772
  136MOL    H5424624   6.315   3.652   3.939  1.3412 -1.8371 -1.6315
  136MOL    H5524625   6.425   3.781   3.997  1.8367  0.0128 -0.4943
  136MOL    C5624626   6.547   3.319   4.023  0.5779  0.2825 -0.1065
  136MOL    C5724627   6.509   3.194   3.943 -0.9087 -0.2269  0.4796
  136MOL    C5824628   6.490   3.318   4.163  0.7443 -0.9029  0.7198
  136MOL    O5924629   6.560   3.334   4.264 -0.2493  0.5951  0.0395
  136MOL    O6024630   6.359   3.302   4.166 -0.1217 -0.3403  0.0800
  136MOL    H6124631   6.656   3.321   4.027  0.6375  0.2153 -1.3985
  136MOL    H6224632   6.528   3.203   3.836 -2.2427 -2.0900  0.0646
  136MOL    H6324633   6.550   3.103   3.987  0.3324  0.2447  0.3195
  136MOL    H6424634   6.402   3.174   3.936 -0.7914 -0.5379 -0.5598
  136MOL    C6524635   6.274   3.325   4.276 -0.4931  0.4023 -0.1541
  136MOL    C6624636   6.149   3.254   4.243  0.4288 -0.1557  0.1525
  136MOL    C6724637   6.253   3.475   4.276 -0.3112  0.0019  0.6374
  136MOL    O6824638   6.230   3.534   4.173 -0.1210 -0.3646 -0.2573
  136MOL    O6924639   6.260   3.535   4.399  0.7372  0.0520 -0.3211
  136MOL    H7024640   6.327   3.293   4.366  1.0969 -0.3934 -1.3310
  136MOL    H7124641   6.069   3.286   4.309  0.9949  1.1760  0.2114
  136MOL    H7224642   6.117   3.268   4.140  0.8715 -0.3835 -0.0177
  136MOL    H7324643   6.154   3.146   4.259 -0.8465 -0.1722  0.5129
  136MOL    C7424644   6.269   3.680   4.406 -0.4416 -0.0779 -0.7301
  136MOL    C7524645   6.388   3.704   4.494  0.0992 -0.2961 -0.0674
  136MOL    C7624646   6.133   3.734   4.454 -0.1613  0.5992  0.0787
  136MOL    O7724647   6.070   3.818   4.391 -0.0952  0.8814  0.4115
  136MOL    O7824648   6.095   3.672   4.567  0.1056 -0.6808 -0.3719
  136MOL    H7924649   6.288   3.732   4.313  0.1453 -0.2610 -0.7203
  136MOL    H8024650   6.367   3.695   4.600 -0.0321  3.4248  0.2821
  136MOL    H8124651   6.470   3.634   4.475  1.1477  1.2890 -1.5754
  136MOL    H8224652   6.429   3.805   4.482 -2.9534  1.0805  0.5892
  136MOL    C8324653   5.984   3.720   4.645 -0.3620 -0.4778 -0.2551
  136MOL    C8424654   6.020   3.687   4.790  0.2349 -0.2722  0.2778
  136MOL    C8524655   5.843   3.675   4.600  0.1144  0.5382  0.0500
  136MOL    O8624656   5.815   3.619   4.494 -0.3348  0.0532  0.4854
  136MOL    O8724657   5.755   3.714   4.691  0.0315  0.6421 -0.3872
  136MOL    H8824658   5.974   3.829   4.640  0.8174 -0.4052 -1.1094
  136MOL    H8924659   5.935   3.693   4.859  0.7342 -0.2983  0.8987
  136MOL    H9024660   6.068   3.595   4.826  0.0492  0.4410  2.4212
  136MOL    H9124661   6.100   3.756   4.815  2.0515 -1.3797 -2.3283
  136MOL    C9224662   5.610   3.693   4.682 -0.3487 -0.2731  0.6212
  136MOL    C9324663   5.539   3.773   4.788 -0.6516 -0.0139 -0.2072
  136MOL    C9424664   5.572   3.541   4.688  0.1431  0.2801  0.0461
  136MOL    O9524665   5.648   3.451   4.724  0.0711  0.0574  0.0530
  136MOL    O9624666   5.437   3.519   4.668  0.1114 -0.2755  0.3820
  136MOL    H9724667   5.581   3.736   4.587 -2.0818  0.6879  1.5645
  136MOL    H9824668   5.535   3.878   4.756  1.9486  0.6559  1.5281
  136MOL    H9924669   5.441   3.729   4.805  0.1285 -1.6627  0.0517
  136MOL   H10024670   5.597   3.769   4.880 -0.3590 -1.4674 -0.4477
  136MOL   C10124671   5.375   3.406   4.713  0.4025  0.2653  0.6971
  136MOL   C10224672   5.245   3.379   4.633 -0.5950  0.0984 -0.0742
  136MOL   C10324673   5.335   3.426   4.864 -0.3024 -0.4800  1.0776
  136MOL   O10424674   5.370   3.341   4.950 -0.9878 -0.1700 -0.3780
  136MOL   O10524675   5.278   3.545   4.882  0.3571 -0.0216  0.3073
  136MOL   H10624676   5.445   3.324   4.700  0.3542  0.3768 -0.3835
  136MOL   H10724677   5.258   3.335   4.535  0.1536  1.4450 -0.5983
  136MOL   H10824678   5.179   3.316   4.693 -1.0965 -2.5879 -3.3302
  136MOL   H10924679   5.200   3.479   4.634  1.6871  1.2141  3.6202
  136MOL   C11024680   5.234   3.589   5.015 -0.1697 -0.2317  0.0671
  136MOL   C11124681   5.179   3.726   5.001 -0.2092  0.7594  0.2665
  136MOL   C11224682   5.356   3.598   5.114 -0.1138 -0.4031  0.3786
  136MOL   O11324683   5.471   3.614   5.074 -0.1777 -0.6756 -0.3272
  136MOL   O11424684   5.325   3.628   5.239 -0.3202 -1.1383 -0.4673
  136MOL   H11524685   5.165   3.514   5.054  0.2193  0.6226  2.5105
  136MOL   H11624686   5.146   3.758   5.100  0.2692 -0.0910  0.7055
  136MOL   H11724687   5.256   3.795   4.966  0.9130 -0.7263 -0.2200
  136MOL   H11824688   5.091   3.712   4.939 -0.0191 -0.2921  0.2226
  136MOL   C11924689   5.412   3.668   5.347 -0.9563  0.8983  0.5997
  136MOL   C12024690   5.405   3.578   5.467 -0.0840 -0.0020 -0.8110
  136MOL   C12124691   5.377   3.819   5.378  0.3937  0.0964 -0.1521
  136MOL   O12224692   5.310   3.872   5.293  0.2253  0.7657  0.6477
  136MOL   O12324693   5.435   3.879   5.494  0.3332  0.8045  0.1224
  136MOL   H12424694   5.518   3.671   5.319 -1.0204  1.4272  0.4074
  136MOL   H12524695   5.422   3.475   5.434 -2.9949 -0.6856 -0.3526
  136MOL   H12624696   5.483   3.598   5.541  1.1409 -2.4790 -1.3679
  136MOL   H12724697   5.309   3.591   5.517 -0.6751  1.4586 -2.3080
  136MOL   C12824698   5.417   4.014   5.528  1.0907  0.2919 -0.7710
  136MOL   C12924699   5.545   4.070   5.599 -0.5619 -0.0364  0.0406
  136MOL   C13024700   5.294   4.015   5.629  0.0034 -0.6401 -0.0925
  136MOL   O13124701   5.300   4.040   5.745  0.9963 -0.0685  0.0266
  136MOL   O13224702   5.176   4.000   5.563 -0.1599  0.2062 -0.5683
  136MOL   H13324703   5.392   4.072   5.440  0.5825 -0.7150 -1.2987
  136MOL   H13424704   5.519   4.172   5.627  1.8148  0.6197 -0.0550
  136MOL   H13524705   5.575   4.018   5.690  3.8586 -0.8567 -1.7204
  136MOL   H13624706   5.633   4.066   5.534 -1.5729  0.0860 -1.3704
  136MOL   C13724707   5.052   3.999   5.630  0.1963  0.8429  0.3861
  136MOL   C13824708   4.947   3.979   5.528 -0.5242  0.6057  0.8406
  136MOL   C13924709   5.012   4.120   5.714  1.3057 -0.6781 -0.2440
  136MOL   O14024710   5.067   4.235   5.698  0.9123  0.4565 -0.0699
  136MOL   O14124711   4.914   4.092   5.797 -0.5320  0.1067 -0.0984
  136MOL   H14224712   5.051   3.916   5.701 -0.5781 -0.7370 -1.4400
  136MOL   H14324713   4.947   4.055   5.450  0.9495  1.9124  2.1036
  136MOL   H14424714   4.948   3.884   5.473  0.1177  1.2215 -0.2152
  136MOL   H14524715   4.848   3.985   5.574 -2.9806  1.9068 -4.2723
  136MOL   C14624716   4.827   4.196   5.849  1.2132  0.6176  0.4974
  136MOL   C14724717   4.801   4.160   5.998 -0.5537  0.2387  0.2180
  136MOL   C14824718   4.713   4.219   5.744  0.0011  0.8686  0.0338
  136MOL   O14924719   4.601   4.168   5.757  0.9147 -0.2695  0.1101
  136MOL   O15024720   4.754   4.284   5.633 -0.2531  0.1171  0.2305
  136MOL   H15124721   4.884   4.289   5.846  1.3503  0.5309  0.4771
  136MOL   H15224722   4.891   4.150   6.059 -2.2093  0.4228  2.7929
  136MOL   H15324723   4.737   4.241   6.034 -0.1200  0.3198  0.8170
  136MOL   H15424724   4.753   4.063   6.008 -1.4806  0.7079  0.3815
  136MOL   C15524725   4.667   4.296   5.519 -0.2543  0.4132 -0.4399
  136MOL   C15624726   4.739   4.301   5.387  0.2246 -0.2305  0.4912
  136MOL   C15724727   4.571   4.411   5.533  0.7675  0.4299 -0.1547
  136MOL   O15824728   4.578   4.502   5.614  0.4398  0.5120  0.4211
  136MOL   O15924729   4.459   4.385   5.453  0.2426 -0.4918 -0.0483
  136MOL   H16024730   4.610   4.204   5.527 -2.2135  1.7741  2.1014
  136MOL   H16124731   4.810   4.384   5.394  0.2150 -0.0175 -1.7240
  136MOL   H16224732   4.809   4.223   5.361  0.5376 -0.2767  1.4442
  136MOL   H16324733   4.674   4.320   5.302  0.4104 -1.3411  0.1078
  136MOL   C16424734   4.345   4.475   5.451 -0.3609 -0.2488 -0.2060
  136MOL   C16524735   4.395   4.607   5.384 -0.4629  0.0474  0.5878
  136MOL   C16624736   4.290   4.497   5.592  0.3692  0.4029  0.0444
  136MOL   O16724737   4.211   4.591   5.605  0.7865  0.3160 -0.0193
  136MOL   O16824738   4.314   4.391   5.677 -0.2902  0.2631  0.3316
  136MOL   H16924739   4.277   4.422   5.385 -1.7678  1.0655  0.1598
  136MOL   H17024740   4.454   4.599   5.293 -0.2430 -0.1970  0.7525
  136MOL   H17124741   4.305   4.663   5.355 -1.7709 -1.6539  1.2705
  136MOL   H17224742   4.446   4.678   5.450 -0.6238  0.1687  0.5834
  136MOL   C17324743   4.260   4.396   5.802  0.0768  0.0966 -0.1300
  136MOL   C17424744   4.362   4.345   5.905 -0.0446  0.0059  0.2373
  136MOL   C17524745   4.128   4.316   5.816 -0.5718 -0.8448 -0.0270
  136MOL   O17624746   4.122   4.227   5.901 -0.3022 -0.0275  0.1776
  136MOL   O17724747   4.034   4.343   5.719  0.4647  1.0532 -0.3682
  136MOL   H17824748   4.226   4.495   5.833  1.2240  0.0049  1.5003
  136MOL   H17924749   4.379   4.239   5.886  0.1768 -0.0544  0.7961
  136MOL   H18024750   4.460   4.390   5.891 -0.3888  0.8321  0.4138
  136MOL   H18124751   4.342   4.366   6.010  2.4886 -0.9498  0.9444
  136MOL   H18224752   3.953   4.300   5.742  1.2012  0.2683  0.7795
  137MOL     C124753   1.811   8.072   2.004  0.1187  0.4545 -0.0122
  137MOL     C224754   1.821   7.968   1.884  0.3277  0.3244  0.2901
  137MOL     C324755   1.726   8.028   2.125  0.4313 -0.2498 -0.0354
  137MOL     O424756   1.662   7.925   2.117 -0.2123 -0.3714 -0.0766
  137MOL     O524757   1.727   8.126   2.212  0.0493 -0.2587 -0.2790
  137MOL     H624758   1.912   8.092   2.040 -0.1345 -1.0048  1.5243
  137MOL     H724759   1.885   7.880   1.892  1.1170  0.9435  0.8981
  137MOL     H824760   1.724   7.921   1.870  0.2508  0.5829 -0.0513
  137MOL     H924761   1.852   8.021   1.794 -2.0179  0.0410 -0.7257
  137MOL    H1024762   1.788   0.026   1.972 -0.6970  0.0553 -0.7113
  137MOL    C1124763   1.674   8.111   2.343  0.6834  0.5759  0.5556
  137MOL    C1224764   1.688   0.094   2.427  0.2396 -0.4512  0.5955
  137MOL    C1324765   1.742   7.979   2.409  0.3081  0.5692 -0.6115
  137MOL    O1424766   1.681   7.880   2.450  0.7554 -0.1884  0.3028
  137MOL    O1524767   1.876   7.988   2.409  0.2249  0.4023 -0.5355
  137MOL    H1624768   1.571   8.082   2.325  1.7663 -1.3963 -3.0383
  137MOL    H1724769   1.697   0.069   2.533  0.5580 -0.0624  0.6642
  137MOL    H1824770   1.779   0.139   2.388 -0.8268 -0.4768 -2.0367
  137MOL    H1924771   1.608   0.167   2.418  0.0484 -0.8211 -0.8670
  137MOL    C2024772   1.966   7.904   2.480  1.1076  0.2938  1.4073
  137MOL    C2124773   1.967   7.769   2.416 -0.3357  0.1828 -0.4827
  137MOL    C2224774   1.942   7.900   2.628  0.6093 -0.2525 -0.2074
  137MOL    O2324775   1.880   7.814   2.688  0.3317  0.2439 -0.7761
  137MOL    O2424776   1.976   8.019   2.682 -0.2743  0.0347  0.0114
  137MOL    H2524777   2.065   7.950   2.472  1.4676 -0.7788 -0.6622
  137MOL    H2624778   2.066   7.724   2.429  0.8961  2.9301 -0.0598
  137MOL    H2724779   1.897   7.700   2.463  2.1098 -0.5089  2.3780
  137MOL    H2824780   1.953   7.779   2.309 -3.0760  0.7231 -0.0997
  137MOL    C2924781   1.955   8.049   2.821 -0.8462 -0.2451 -1.3731
  137MOL    C3024782   1.955   0.051   2.837 -0.7982  0.4600 -0.3814
  137MOL    C3124783   2.065   7.982   2.904 -0.0570 -0.0038 -0.1971
  137MOL    O3224784   2.178   8.035   2.923  0.0883 -0.6605  0.4657
  137MOL    O3324785   2.028   7.849   2.917 -0.1514 -0.5325 -0.0075
  137MOL    H3424786   1.859   8.003   2.843 -0.3788 -0.4794  0.2506
  137MOL    H3524787   1.882   0.111   2.782 -0.1977  0.1490 -1.5393
  137MOL    H3624788   1.968   0.089   2.938  2.3388 -1.0250 -0.1541
  137MOL    H3724789   2.040   0.074   2.773 -1.8381 -0.2347 -2.0348
  137MOL    C3824790   2.115   7.767   2.984 -0.0728 -0.0342 -0.1092
  137MOL    C3924791   2.085   7.619   2.956 -0.1162 -0.2325 -0.2087
  137MOL    C4024792   2.110   7.782   3.135  0.0541 -0.2179 -0.1109
  137MOL    O4124793   2.014   7.841   3.185 -0.5374 -0.2138 -0.6099
  137MOL    O4224794   2.207   7.727   3.204 -0.1309 -0.3177 -0.1284
  137MOL    H4324795   2.219   7.780   2.955  0.4600  0.4760  1.9707
  137MOL    H4424796   2.103   7.575   2.858 -1.2603 -1.9295  0.3206
  137MOL    H4524797   2.129   7.546   3.024 -0.6411 -2.0120 -1.7418
  137MOL    H4624798   1.978   7.600   2.952  0.3311 -3.3991  1.3510
  137MOL    C4724799   2.200   7.714   3.346 -0.0414  0.0623 -0.2491
  137MOL    C4824800   2.334   7.757   3.407 -0.5156 -0.1417  0.3189
  137MOL    C4924801   2.163   7.565   3.381 -0.2495  1.2077  0.0914
  137MOL    O5024802   2.173   7.472   3.298 -0.2773 -0.7570  0.4573
  137MOL    O5124803   2.112   7.557   3.510 -0.6521  0.4286  0.3447
  137MOL    H5224804   2.125   7.781   3.389 -1.0663 -1.4340  0.3763
  137MOL    H5324805   2.418   7.736   3.342 -1.6859 -0.8361 -1.0130
  137MOL    H5424806   2.323   7.864   3.426 -1.4189 -0.4708  1.7709
  137MOL    H5524807   2.359   7.718   3.505 -0.1598  3.6712  1.8187
  137MOL    C5624808   2.086   7.427   3.571 -0.6096 -0.0988  0.1437
  137MOL    C5724809   1.955   7.437   3.659  0.1587 -1.0779 -0.0630
  137MOL    C5824810   2.204   7.387   3.662  0.4305  0.4316 -0.1014
  137MOL    O5924811   2.218   7.424   3.782 -0.6412  0.1695 -0.5885
  137MOL    O6024812   2.295   7.329   3.588 -0.0818 -0.3652  0.3912
  137MOL    H6124813   2.068   7.356   3.490  0.6903  0.3729 -0.5724
  137MOL    H6224814   1.866   7.436   3.596  0.6011  0.8007 -0.7568
  137MOL    H6324815   1.934   7.359   3.733 -1.1550 -1.0154 -0.3645
  137MOL    H6424816   1.955   7.527   3.720  1.2705 -1.5052  0.5897
  137MOL    C6524817   2.426   7.313   3.630  0.0865 -0.3919 -0.2364
  137MOL    C6624818   2.511   7.269   3.513 -0.3098  0.3826 -0.5438
  137MOL    C6724819   2.440   7.221   3.751 -1.1515  0.3932  0.5268
  137MOL    O6824820   2.382   7.109   3.753 -0.3999 -0.5789  0.0028
  137MOL    O6924821   2.523   7.276   3.847  0.4962  0.2015  0.5312
  137MOL    H7024822   2.463   7.412   3.658  0.4222 -0.8113  0.8164
  137MOL    H7124823   2.465   7.195   3.447 -0.2920 -1.8269  1.8300
  137MOL    H7224824   2.536   7.361   3.461 -3.0835  1.9578  0.8651
  137MOL    H7324825   2.609   7.232   3.544 -0.2402  0.8942 -0.1657
  137MOL    C7424826   2.550   7.214   3.972 -0.3313  0.6199 -0.7848
  137MOL    C7524827   2.610   7.317   4.066 -0.3160 -0.5463 -0.3293
  137MOL    C7624828   2.644   7.097   3.958 -0.5139  0.6478  0.3438
  137MOL    O7724829   2.701   7.073   3.849  0.7956 -0.2413 -0.1318
  137MOL    O7824830   2.652   7.033   4.068  0.4250 -0.5887 -0.5252
  137MOL    H7924831   2.463   7.168   4.018  0.9379 -0.0507  1.0022
  137MOL    H8024832   2.640   7.275   4.162 -2.0053  1.1283  0.9841
  137MOL    H8124833   2.704   7.358   4.028 -0.0486  0.7893  1.6524
  137MOL    H8224834   2.536   7.395   4.084  1.3834  0.8317  0.9069
  137MOL    C8324835   2.757   6.936   4.089 -0.3010 -0.2778 -0.2198
  137MOL    C8424836   2.718   6.837   4.203  0.5980  0.5066  0.0906
  137MOL    C8524837   2.890   7.013   4.114  0.3118 -0.3548  1.0101
  137MOL    O8624838   2.892   7.124   4.166 -0.2300 -0.6932  0.4868
  137MOL    O8724839   2.998   6.941   4.076  0.1737  0.5575  0.3222
  137MOL    H8824840   2.781   6.872   4.004  2.2630  2.1819 -1.4089
  137MOL    H8924841   2.632   6.873   4.259 -0.5102 -1.9205  0.0427
  137MOL    H9024842   2.678   6.743   4.164  4.0747 -0.9883 -0.0556
  137MOL    H9124843   2.799   6.821   4.274  0.5336 -1.2418 -0.1867
  137MOL    C9224844   3.130   6.983   4.093 -0.1327  0.1327 -0.3933
  137MOL    C9324845   3.231   6.902   4.001  0.9305 -0.6128 -0.0979
  137MOL    C9424846   3.167   6.953   4.248  0.2212  0.0419  0.3812
  137MOL    O9524847   3.117   6.856   4.300 -0.2397  0.1941 -0.1668
  137MOL    O9624848   3.263   7.039   4.288  0.4636  0.0358 -0.2907
  137MOL    H9724849   3.129   7.090   4.073  1.1174  0.4507  1.0781
  137MOL    H9824850   3.266   6.813   4.053 -1.0279 -0.9057  0.7540
  137MOL    H9924851   3.173   6.867   3.915  1.1484  1.6079 -1.1955
  137MOL   H10024852   3.326   6.951   3.977  1.3063 -1.6054 -0.6469
  137MOL   C10124853   3.313   7.039   4.425 -0.8525  0.1399 -0.1268
  137MOL   C10224854   3.435   6.942   4.439 -0.3459  0.3514  0.4089
  137MOL   C10324855   3.214   7.031   4.543 -0.2910  0.2919 -0.4570
  137MOL   O10424856   3.242   6.961   4.639  0.1357 -0.5479  0.1386
  137MOL   O10524857   3.098   7.093   4.521 -0.5459  0.0202 -0.1649
  137MOL   H10624858   3.363   7.134   4.438 -0.3772 -0.1747  0.3330
  137MOL   H10724859   3.526   6.960   4.382 -0.1082  0.5641  0.8537
  137MOL   H10824860   3.474   6.945   4.541  1.0702  0.5024 -0.1225
  137MOL   H10924861   3.404   6.846   4.398 -1.3350  2.2086 -3.3809
  137MOL   C11024862   2.992   7.095   4.617  0.4330 -0.1405  0.3160
  137MOL   C11124863   2.868   7.159   4.540 -0.3737 -0.5327  0.3339
  137MOL   C11224864   3.039   7.185   4.739  0.0650 -0.2958 -0.0205
  137MOL   O11324865   3.010   7.151   4.854  0.6911 -0.5306 -0.1822
  137MOL   O11424866   3.105   7.305   4.707 -0.1005  0.3750  0.1784
  137MOL   H11524867   2.976   6.993   4.652 -0.3058  0.1787  0.9322
  137MOL   H11624868   2.866   7.133   4.434 -0.3562 -1.1165  0.4781
  137MOL   H11724869   2.775   7.126   4.585 -1.1364  1.3180  0.1908
  137MOL   H11824870   2.866   7.268   4.539  0.0102 -0.4854  2.1801
  137MOL   C11924871   3.167   7.377   4.812 -0.7047 -0.5866 -0.9243
  137MOL   C12024872   3.177   7.518   4.760 -0.0515 -0.2113 -0.5077
  137MOL   C12124873   3.297   7.322   4.855 -0.1873 -0.2027 -0.3808
  137MOL   O12224874   3.368   7.259   4.776 -0.2565  0.1157 -0.0786
  137MOL   O12324875   3.334   7.371   4.975 -0.0796 -0.1737 -0.0241
  137MOL   H12424876   3.106   7.390   4.902  2.1686  1.7119  0.8069
  137MOL   H12524877   3.241   7.518   4.672  0.4951  1.3399 -0.1158
  137MOL   H12624878   3.081   7.562   4.734 -1.6362 -2.6051  1.0342
  137MOL   H12724879   3.230   7.575   4.836  1.4600 -0.5159 -1.3294
  137MOL   C12824880   3.453   7.326   5.033  0.0861 -0.3642 -0.3684
  137MOL   C12924881   3.435   7.339   5.186  0.3332  0.4355 -0.8312
  137MOL   C13024882   3.567   7.414   4.987 -0.6768 -0.1394 -0.2558
  137MOL   O13124883   3.673   7.362   4.946  0.2584  0.1474 -0.4243
  137MOL   O13224884   3.546   7.542   5.012 -0.3176 -0.3891  0.0416
  137MOL   H13324885   3.468   7.221   5.007 -0.8264 -0.7649  0.7168
  137MOL   H13424886   3.509   7.275   5.235  0.1416  0.7508 -0.1146
  137MOL   H13524887   3.467   7.435   5.227  2.8543 -0.4469 -0.6627
  137MOL   H13624888   3.336   7.305   5.219 -0.3132  1.9369 -1.1899
  137MOL   C13724889   3.627   7.640   4.951  0.0691 -0.1609  0.0823
  137MOL   C13824890   3.711   7.715   5.054 -1.0316 -0.0097  0.0158
  137MOL   C13924891   3.531   7.729   4.874  0.4442 -0.1003  1.0877
  137MOL   O14024892   3.511   7.718   4.746  0.2551  0.5827  0.0342
  137MOL   O14124893   3.471   7.820   4.959 -0.4892 -0.0627  0.6591
  137MOL   H14224894   3.689   7.592   4.874 -0.2788 -0.8564  0.2310
  137MOL   H14324895   3.651   7.750   5.138 -2.3753  1.1403 -1.4078
  137MOL   H14424896   3.794   7.649   5.081 -0.2588  0.2194 -1.7800
  137MOL   H14524897   3.754   7.803   5.007 -0.3268 -0.3742 -0.0364
  137MOL   C14624898   3.387   7.921   4.902  1.1629 -0.3362  0.1602
  137MOL   C14724899   3.378   8.045   4.995 -0.4279 -0.1017  0.0003
  137MOL   C14824900   3.243   7.866   4.880  0.1163 -0.5263 -0.3901
  137MOL   O14924901   3.203   7.775   4.949  0.4985 -0.1684 -0.2540
  137MOL   O15024902   3.173   7.937   4.788  0.1164  0.7267  0.4025
  137MOL   H15124903   3.424   7.958   4.807 -0.5294 -1.5096 -0.9782
  137MOL   H15224904   3.293   8.112   4.990  0.3232  0.7797 -1.3199
  137MOL   H15324905   3.390   8.019   5.100 -0.1637  1.0694  0.2698
  137MOL   H15424906   3.466   8.106   4.973 -0.3448 -1.1209 -2.6841
  137MOL   C15524907   3.046   7.891   4.738  0.5547  0.3881  0.8673
  137MOL   C15624908   3.021   7.980   4.612  0.3621 -0.8084 -0.2331
  137MOL   C15724909   2.942   7.924   4.841  0.0141 -0.1818 -0.0944
  137MOL   O15824910   2.843   7.856   4.855 -0.4919  0.2292 -0.1896
  137MOL   O15924911   2.968   8.034   4.910 -0.1455 -0.5312  0.3263
  137MOL   H16024912   3.043   7.787   4.705 -0.4822  0.6026  0.2579
  137MOL   H16124913   2.960   8.070   4.625 -2.2387 -1.9751 -3.5483
  137MOL   H16224914   3.102   8.007   4.543 -0.5984  2.8616 -0.0501
  137MOL   H16324915   2.953   7.924   4.548 -1.6752  0.6653  0.5725
  137MOL   C16424916   2.880   8.076   5.013 -0.1598 -0.3651 -0.5296
  137MOL   C16524917   2.878   0.080   5.014 -0.3793 -0.7096  0.5539
  137MOL   C16624918   2.903   8.010   5.145  0.2620  0.1701 -0.3369
  137MOL   O16724919   2.802   7.967   5.206 -0.4374  0.3850 -0.0457
  137MOL   O16824920   3.034   8.013   5.191 -0.4146  0.1682 -0.8510
  137MOL   H16924921   2.780   8.049   4.980 -0.1029 -1.1070 -0.1166
  137MOL   H17024922   2.961   0.136   5.058 -2.4164  2.4295  0.5357
  137MOL   H17124923   2.845   0.120   4.918 -1.0875  0.0632  1.1231
  137MOL   H17224924   2.788   0.107   5.069 -1.0520  0.0551 -0.9050
  137MOL   C17324925   3.063   7.969   5.327 -0.1707 -0.4373 -0.0415
  137MOL   C17424926   3.022   8.081   5.420  0.5635 -0.1618  0.2376
  137MOL   C17524927   3.212   7.935   5.338 -0.2745 -0.0247  0.6795
  137MOL   O17624928   3.298   7.992   5.407  0.0731 -0.2542 -0.1771
  137MOL   O17724929   3.233   7.830   5.253 -0.0132 -0.3854 -0.4106
  137MOL   H17824930   3.017   7.873   5.350 -0.4295 -0.0702  1.0286
  137MOL   H17924931   3.039   8.038   5.518  2.8127  0.6646  0.2425
  137MOL   H18024932   3.089   0.019   5.410 -0.0979  0.2819 -0.4213
  137MOL   H18124933   2.917   8.110   5.414  0.8547  1.1799  1.5268
  137MOL   H18224934   3.327   7.819   5.254  0.5759  3.7627  0.1986
  138MOL     C124935   3.031   7.570   5.282  0.8229 -0.2590 -0.4766
  138MOL     C224936   3.060   7.546   5.134 -0.5442  0.1836  0.5518
  138MOL     C324937   3.133   7.494   5.366  0.0036  0.0990  0.5131
  138MOL     O424938   3.117   7.377   5.396  0.3425 -0.3955  0.9584
  138MOL     O524939   3.235   7.568   5.400 -0.3895 -0.2116 -0.4434
  138MOL     H624940   3.034   7.675   5.309  1.1515  0.0592 -1.7263
  138MOL     H724941   3.015   7.456   5.092  1.2499 -0.0036 -1.0758
  138MOL     H824942   3.032   7.629   5.069  0.1145  1.0819  1.4031
  138MOL     H924943   3.166   7.541   5.110 -0.8891 -0.6405 -0.8526
  138MOL    H1024944   2.931   7.539   5.312 -0.2336  3.7467  0.3366
  138MOL    C1124945   3.343   7.529   5.488  0.1891  0.1236 -0.6967
  138MOL    C1224946   3.287   7.548   5.633 -0.2434  0.7401 -0.4647
  138MOL    C1324947   3.455   7.634   5.460 -0.1326 -0.9525 -0.4773
  138MOL    O1424948   3.476   7.684   5.353 -0.5042 -0.1052 -0.0967
  138MOL    O1524949   3.538   7.650   5.571 -0.3819  0.0776  0.0307
  138MOL    H1624950   3.369   7.425   5.467  1.8883  0.2096  0.8281
  138MOL    H1724951   3.180   7.530   5.648 -0.2415  0.1888 -1.0965
  138MOL    H1824952   3.336   7.495   5.714 -1.4128  0.5253  0.1224
  138MOL    H1924953   3.295   7.654   5.658  0.3408  0.9444 -1.4894
  138MOL    C2024954   3.667   7.713   5.569  0.7595 -0.1493 -0.1977
  138MOL    C2124955   3.654   7.865   5.570 -0.4281 -0.1514  0.8224
  138MOL    C2224956   3.753   7.673   5.443  0.1513  0.2618  0.5659
  138MOL    O2324957   3.812   7.757   5.373 -0.3456 -0.4829 -0.2612
  138MOL    O2424958   3.763   7.545   5.435 -0.2659 -0.5598  0.3675
  138MOL    H2524959   3.717   7.682   5.661  0.6079  2.3925  0.7919
  138MOL    H2624960   3.586   7.889   5.653 -1.0162  1.1216 -0.0180
  138MOL    H2724961   3.741   7.925   5.593 -1.5501  1.1577  1.7092
  138MOL    H2824962   3.611   7.910   5.481  0.9640  0.9758  0.7147
  138MOL    C2924963   3.852   7.489   5.339  0.0012  0.0610 -0.6217
  138MOL    C3024964   3.804   7.356   5.275 -0.4476 -0.1716 -0.2400
  138MOL    C3124965   3.981   7.462   5.412  0.2998 -0.3142 -0.1922
  138MOL    O3224966   3.993   7.454   5.534  0.5758  0.5052 -0.1928
  138MOL    O3324967   4.073   7.433   5.325  0.0590 -0.3643  0.3494
  138MOL    H3424968   3.873   7.556   5.256  1.8565 -0.3338 -0.4999
  138MOL    H3524969   3.705   7.380   5.237 -0.4165  1.2907  0.5603
  138MOL    H3624970   3.865   7.330   5.188 -0.2287 -1.5358  0.3180
  138MOL    H3724971   3.790   7.279   5.350 -2.3695  2.3609  2.0835
  138MOL    C3824972   4.202   7.380   5.354  0.2812  0.5473  0.5418
  138MOL    C3924973   4.281   7.355   5.222 -0.0436  0.2492 -1.1181
  138MOL    C4024974   4.200   7.250   5.437  0.3399 -0.5609 -0.6631
  138MOL    O4124975   4.276   7.234   5.533 -0.2483 -0.3740 -0.0113
  138MOL    O4224976   4.109   7.170   5.390 -0.8190  0.5549  0.4112
  138MOL    H4324977   4.245   7.459   5.417  1.3116 -0.9774  1.7838
  138MOL    H4424978   4.271   7.445   5.161 -1.8434 -0.1676 -1.4729
  138MOL    H4524979   4.383   7.339   5.256 -0.3564  0.2324 -0.1475
  138MOL    H4624980   4.249   7.268   5.165 -0.7370 -0.2012 -0.0596
  138MOL    C4724981   4.096   7.042   5.449  0.5849 -0.0700  0.1478
  138MOL    C4824982   4.045   6.947   5.341  0.7932 -0.2298 -0.8104
  138MOL    C4924983   3.985   7.048   5.559 -0.3670 -0.4209 -0.7617
  138MOL    O5024984   4.009   7.045   5.676  0.1003 -0.1070 -0.2306
  138MOL    O5124985   3.863   7.087   5.507 -0.2494  0.2949  0.2845
  138MOL    H5224986   4.191   6.997   5.479  1.3717  0.2810 -1.7246
  138MOL    H5324987   4.007   6.857   5.389 -3.8113 -0.1474 -3.9480
  138MOL    H5424988   3.965   6.989   5.280 -1.1827 -1.8104  0.6414
  138MOL    H5524989   4.133   6.921   5.281  0.9151 -1.3785 -0.1473
  138MOL    C5624990   3.743   7.101   5.588  0.6972  0.1709 -0.2847
  138MOL    C5724991   3.624   7.076   5.489 -0.0892 -0.9604 -0.0067
  138MOL    C5824992   3.739   7.246   5.646 -0.1748 -0.6888 -0.2569
  138MOL    O5924993   3.654   7.325   5.610 -0.2604 -0.0048  0.2462
  138MOL    O6024994   3.823   7.270   5.751  0.3622  0.6834  0.6962
  138MOL    H6124995   3.734   7.030   5.670  1.8029  1.4783  0.9963
  138MOL    H6224996   3.525   7.089   5.533  0.9429 -1.0063  2.3634
  138MOL    H6324997   3.629   7.139   5.400  1.4014 -2.2514 -0.8563
  138MOL    H6424998   3.647   6.974   5.460  1.2173 -0.5955 -0.3138
  138MOL    C6524999   3.849   7.396   5.812  0.0414  0.9748  0.3139
  138MOL    C6625000   3.995   7.382   5.852  0.1641  0.3388 -0.3515
  138MOL    C6725001   3.748   7.411   5.928 -0.5210  0.6018  0.3449
  138MOL    O6825002   3.775   7.367   6.035  0.0579  0.1205 -0.4496
  138MOL    O6925003   3.631   7.462   5.889 -0.4696  0.2949  0.3881
  138MOL    H7025004   3.843   7.482   5.746  0.9797 -0.4633 -1.6872
  138MOL    H7125005   4.010   7.280   5.887 -2.3619 -0.3128 -1.0524
  138MOL    H7225006   4.063   7.412   5.772 -0.2714  2.3138  0.0008
  138MOL    H7325007   4.015   7.444   5.939 -1.0468  0.1805  0.0457
  138MOL    C7425008   3.527   7.495   5.992 -1.1083  0.7068 -0.3539
  138MOL    C7525009   3.416   7.390   5.998  0.5198 -0.0715  0.3673
  138MOL    C7625010   3.466   7.637   5.970  0.4573 -0.4165 -0.2978
  138MOL    O7725011   3.346   7.659   5.955 -0.0184 -0.6112 -0.0899
  138MOL    O7825012   3.565   7.731   5.974  0.0846 -0.3323 -0.0320
  138MOL    H7925013   3.574   7.484   6.090  1.3499 -2.8435 -1.8320
  138MOL    H8025014   3.457   7.292   6.021  0.3484  0.2138  1.9001
  138MOL    H8125015   3.328   7.407   6.059  1.7542  0.2328  2.0959
  138MOL    H8225016   3.377   7.392   5.896 -1.2059  3.1500  1.0123
  138MOL    C8325017   3.541   7.869   5.952 -0.4000  0.6562 -0.6834
  138MOL    C8425018   3.683   7.927   5.942 -0.3654 -0.1417  0.0591
  138MOL    C8525019   3.466   7.934   6.069 -0.0551  0.1692 -0.7587
  138MOL    O8625020   3.372   8.013   6.042 -0.1792 -0.3762  0.1995
  138MOL    O8725021   3.504   7.887   6.188 -0.4773  0.1680 -0.1863
  138MOL    H8825022   3.471   7.887   5.871 -0.3118 -0.5047 -1.0348
  138MOL    H8925023   3.761   7.876   5.998 -0.0183 -1.9646 -2.0450
  138MOL    H9025024   3.707   7.921   5.836 -1.3548  1.2613 -0.2630
  138MOL    H9125025   3.689   8.033   5.967  2.8675 -0.8582  2.7152
  138MOL    C9225026   3.443   7.926   6.307  0.3163 -0.0458 -0.7359
  138MOL    C9325027   3.544   7.991   6.398 -0.1669  0.7041 -0.3029
  138MOL    C9425028   3.376   7.801   6.385 -0.2810  0.0357  0.1623
  138MOL    O9525029   3.288   7.827   6.465 -0.8727  0.0190  0.0084
  138MOL    O9625030   3.437   7.682   6.372 -0.4713 -0.1384 -0.2715
  138MOL    H9725031   3.366   8.000   6.287 -1.0064 -0.9580  0.9128
  138MOL    H9825032   3.536   7.949   6.498  2.7124  1.0804  0.1143
  138MOL    H9925033   3.645   7.967   6.368  0.2974  0.6165  1.2997
  138MOL   H10025034   3.524   8.098   6.391 -2.3772  0.4453  1.6165
  138MOL   C10125035   3.378   7.561   6.415  1.3776 -0.2071 -0.1461
  138MOL   C10225036   3.489   7.453   6.412 -0.0454  0.9337  0.0604
  138MOL   C10325037   3.259   7.526   6.328  0.6984  0.0310  0.5418
  138MOL   O10425038   3.252   7.569   6.210 -0.1311  0.3405 -0.1097
  138MOL   O10525039   3.165   7.455   6.391  0.0710 -0.3603  0.1583
  138MOL   H10625040   3.343   7.559   6.518  0.1742 -2.1224 -0.5825
  138MOL   H10725041   3.448   7.352   6.411  1.3217  0.3506  1.2454
  138MOL   H10825042   3.566   7.466   6.337 -1.2661  1.7252 -1.0674
  138MOL   H10925043   3.547   7.465   6.503 -0.6329 -1.1726  0.7552
  138MOL   C11025044   3.056   7.395   6.322 -0.0385  0.1554  0.3863
  138MOL   C11125045   2.926   7.368   6.403 -0.3200  0.0994  0.0684
  138MOL   C11225046   3.098   7.269   6.256  0.5527  0.3414  0.3509
  138MOL   O11325047   3.107   7.254   6.134  0.1240 -0.2598  0.1196
  138MOL   O11425048   3.123   7.173   6.349 -0.2557  0.6174  0.0634
  138MOL   H11525049   3.026   7.462   6.241  2.3321 -1.7516 -2.1883
  138MOL   H11625050   2.862   7.303   6.343  0.1546 -0.0988 -0.2295
  138MOL   H11725051   2.944   7.325   6.502  2.9954  1.4811  0.1412
  138MOL   H11825052   2.876   7.464   6.420  0.1050  1.1910 -4.3285
  138MOL   C11925053   3.191   7.052   6.316 -0.3971 -0.0980  0.2624
  138MOL   C12025054   3.341   7.082   6.284 -0.2663 -0.1855 -0.2931
  138MOL   C12125055   3.120   6.963   6.210 -0.7286  0.1702 -0.6950
  138MOL   O12225056   3.182   6.920   6.114  0.2864  0.4755  0.0783
  138MOL   O12325057   2.985   6.956   6.227  0.6896  0.2938 -0.2847
  138MOL   H12425058   3.187   6.989   6.404 -0.1067  0.7189  0.8605
  138MOL   H12525059   3.399   7.089   6.376 -0.6592 -1.0028  0.0237
  138MOL   H12625060   3.394   7.006   6.227  0.5926  0.2070 -0.0173
  138MOL   H12725061   3.357   7.175   6.230 -1.0342 -0.0316 -0.2573
  138MOL   C12825062   2.913   6.878   6.136  0.0684 -0.1223  0.0984
  138MOL   C12925063   2.841   6.973   6.036 -0.2526  0.1332 -0.1619
  138MOL   C13025064   2.819   6.789   6.218 -0.6466  0.0063  0.4142
  138MOL   O13125065   2.775   6.812   6.330  0.2078  0.0953  0.3603
  138MOL   O13225066   2.798   6.666   6.145  0.2677 -0.8684  0.1305
  138MOL   H13325067   2.977   6.811   6.078 -0.1712  0.1282 -0.4590
  138MOL   H13425068   2.765   7.045   6.067  0.7520  1.6743 -1.2393
  138MOL   H13525069   2.920   7.030   5.988  0.3202 -1.2644 -0.8830
  138MOL   H13625070   2.796   6.922   5.951  2.8801 -0.6185 -1.4406
  138MOL   C13725071   2.729   6.560   6.209  0.4334  0.6929 -0.2952
  138MOL   C13825072   2.773   6.429   6.146 -0.9077 -0.4539  0.9937
  138MOL   C13925073   2.572   6.570   6.215  0.3801  0.7619  0.1364
  138MOL   O14025074   2.506   6.658   6.155 -0.1644  1.3301 -0.1769
  138MOL   O14125075   2.516   6.484   6.299 -0.1145  0.2705 -0.5544
  138MOL   H14225076   2.777   6.549   6.306  0.5658 -0.0823 -0.4442
  138MOL   H14325077   2.730   6.338   6.188 -1.6123 -1.4244 -1.7243
  138MOL   H14425078   2.737   6.434   6.043 -0.5138 -2.9570  0.7048
  138MOL   H14525079   2.881   6.427   6.145 -0.9217 -0.8149 -0.1615
  138MOL   C14625080   2.379   6.496   6.319 -0.1176  0.2398  0.9618
  138MOL   C14725081   2.345   6.395   6.422 -0.2549 -0.2051 -0.5210
  138MOL   C14825082   2.303   6.439   6.194 -0.2064 -0.0758  0.3111
  138MOL   O14925083   2.347   6.344   6.129 -0.1102  0.4118 -0.2051
  138MOL   O15025084   2.186   6.495   6.173 -0.0947 -0.2824 -0.3665
  138MOL   H15125085   2.339   6.593   6.349 -0.0801  0.6962 -0.4413
  138MOL   H15225086   2.345   6.289   6.396 -1.6445 -0.1416 -0.8072
  138MOL   H15325087   2.406   6.399   6.512 -1.7831 -0.2676  0.5287
  138MOL   H15425088   2.244   6.400   6.461  0.1325 -0.3274  0.5156
  138MOL   C15525089   2.096   6.455   6.073  0.2017  0.2706  0.0181
  138MOL   C15625090   2.016   6.344   6.127  0.2407  0.1709  0.2619
  138MOL   C15725091   2.151   6.429   5.930 -0.0580 -0.2958 -0.5976
  138MOL   O15825092   2.112   6.336   5.858 -0.1684 -0.0678  0.4496
  138MOL   O15925093   2.241   6.525   5.893 -0.1101 -0.2189 -0.3370
  138MOL   H16025094   2.026   6.539   6.079 -0.3031 -0.1442 -0.0134
  138MOL   H16125095   2.081   6.272   6.178 -0.2054 -1.3495 -1.2580
  138MOL   H16225096   1.953   6.378   6.210  1.3610  0.5533  0.9630
  138MOL   H16325097   1.949   6.311   6.048  1.0963  1.4999 -1.0279
  138MOL   C16425098   2.304   6.515   5.768  0.0561 -0.1107 -0.0375
  138MOL   C16525099   2.447   6.571   5.789 -0.3165  0.1357  0.9256
  138MOL   C16625100   2.215   6.608   5.678  0.2660 -0.0013  0.1500
  138MOL   O16725101   2.241   6.728   5.667 -0.5411 -0.4231 -0.4444
  138MOL   O16825102   2.119   6.539   5.613 -0.3798 -0.1660  0.3343
  138MOL   H16925103   2.308   6.414   5.728 -0.1087 -0.3627  0.5705
  138MOL   H17025104   2.507   6.516   5.861  0.5162 -0.5601 -0.2803
  138MOL   H17125105   2.503   6.591   5.697  0.3172  0.0046  1.2796
  138MOL   H17225106   2.446   6.667   5.840 -0.3248  0.2046  0.7958
  138MOL   C17325107   2.020   6.606   5.539  0.4053  0.4330  0.2386
  138MOL   C17425108   1.897   6.510   5.554  0.0914 -0.0811 -0.1355
  138MOL   C17525109   2.066   6.643   5.401 -0.1624  0.2425 -0.0835
  138MOL   O17625110   2.071   6.757   5.363  0.2741  0.1902  0.3508
  138MOL   O17725111   2.093   6.536   5.325 -0.3580 -0.2929  0.7938
  138MOL   H17825112   1.995   6.700   5.587 -1.1636  0.5283 -0.7473
  138MOL   H17925113   1.887   6.453   5.646 -0.3425 -1.0985 -0.7985
  138MOL   H18025114   1.812   6.577   5.541 -0.3524 -0.2110  1.9227
  138MOL   H18125115   1.909   6.430   5.480  4.0970 -1.3652  1.7581
  138MOL   H18225116   2.113   6.564   5.237 -1.1545 -3.2786 -0.3786
  139MOL     C125117   1.512   1.912   7.640  0.1580  0.3804 -0.0628
  139MOL     C225118   1.490   1.761   7.626 -0.1527 -0.4483 -0.1845
  139MOL     C325119   1.419   2.005   7.580 -0.1931 -0.6201  0.1198
  139MOL     O425120   1.445   2.058   7.473  0.0961  0.1810 -0.1838
  139MOL     O525121   1.305   2.018   7.650 -0.0729 -0.5814  0.2882
  139MOL     H625122   1.514   1.940   7.745  0.9130  2.2330 -0.5427
  139MOL     H725123   1.421   1.726   7.549 -0.2693  3.5115 -1.9655
  139MOL     H825124   1.580   1.699   7.629  0.2273  0.1732  1.3531
  139MOL     H925125   1.442   1.723   7.716  1.3950  0.4580  1.0614
  139MOL    H1025126   1.612   1.933   7.603  0.4988 -1.8289 -0.4807
  139MOL    C1125127   1.190   2.080   7.596  0.1879 -0.3991 -0.2996
  139MOL    C1225128   1.096   2.118   7.711 -0.7651 -0.5049  1.3816
  139MOL    C1325129   1.121   1.976   7.504 -0.0003  0.1426 -0.3966
  139MOL    O1425130   1.067   1.874   7.550 -0.4237 -0.1708  0.1597
  139MOL    O1525131   1.138   2.005   7.377  0.4504  0.1113  0.0881
  139MOL    H1625132   1.222   2.169   7.541  0.8620 -1.0893 -1.0390
  139MOL    H1725133   1.151   2.179   7.782  0.2469  0.2841 -0.0579
  139MOL    H1825134   1.016   2.184   7.678  0.4321 -0.2836 -1.1476
  139MOL    H1925135   1.065   2.027   7.763 -1.2049 -1.1933 -0.0735
  139MOL    C2025136   1.117   1.907   7.277  0.0208 -0.3496  0.2858
  139MOL    C2125137   0.971   1.849   7.267  0.2890 -0.0061  0.1252
  139MOL    C2225138   1.236   1.802   7.274  0.6116  0.7357  0.1007
  139MOL    O2325139   1.217   1.687   7.301  0.2855  0.5865 -0.0497
  139MOL    O2425140   1.355   1.854   7.233  0.1140  0.1703 -0.6580
  139MOL    H2525141   1.137   1.965   7.187  0.9363 -2.2045 -0.7251
  139MOL    H2625142   0.906   1.932   7.240 -0.9754 -1.0239  0.0362
  139MOL    H2725143   0.969   1.778   7.184  0.4963 -1.4815  1.3794
  139MOL    H2825144   0.937   1.808   7.361 -0.3143 -0.2125 -0.1843
  139MOL    C2925145   1.470   1.772   7.213  0.1051  0.2422 -0.3837
  139MOL    C3025146   1.601   1.866   7.203  0.5817 -0.0765  0.2308
  139MOL    C3125147   1.452   1.677   7.091 -0.5976  0.8751 -0.1281
  139MOL    O3225148   1.483   1.556   7.105  0.8279 -0.3571 -0.7929
  139MOL    O3325149   1.415   1.739   6.974 -0.3454 -0.3852 -0.0439
  139MOL    H3425150   1.500   1.703   7.292 -0.1956  1.9337  1.2178
  139MOL    H3525151   1.690   1.807   7.182  0.6003 -0.4813  1.3769
  139MOL    H3625152   1.589   1.951   7.135  1.2715  0.8421  1.2334
  139MOL    H3725153   1.626   1.916   7.297 -0.2594  0.6742  0.0593
  139MOL    C3825154   1.357   1.665   6.870 -0.2828  0.0067 -0.2457
  139MOL    C3925155   1.372   1.741   6.737  0.4072  0.0187  0.0139
  139MOL    C4025156   1.207   1.646   6.903 -0.0905  0.1218 -0.1993
  139MOL    O4125157   1.154   1.702   7.002  0.0175 -0.4685  0.4504
  139MOL    O4225158   1.136   1.569   6.808 -0.2404 -0.1820 -0.0039
  139MOL    H4325159   1.419   1.575   6.869  0.1655  0.2311  2.3687
  139MOL    H4425160   1.476   1.738   6.704  0.0526 -2.8368 -0.9662
  139MOL    H4525161   1.312   1.705   6.653  0.2694  1.0608 -0.3435
  139MOL    H4625162   1.340   1.843   6.760 -0.4182 -0.5573  1.5221
  139MOL    C4725163   0.999   1.550   6.809 -0.5268 -0.5156  0.0939
  139MOL    C4825164   0.959   1.511   6.672  0.0575 -0.0637  0.1796
  139MOL    C4925165   0.914   1.666   6.857 -0.9748 -0.5030 -0.1671
  139MOL    O5025166   0.925   1.782   6.815 -0.3026 -0.3598 -0.1422
  139MOL    O5125167   0.826   1.632   6.957 -0.3724  0.7336 -0.2847
  139MOL    H5225168   0.993   1.463   6.875 -0.4977 -0.0446  0.7171
  139MOL    H5325169   1.013   1.420   6.642 -0.5837 -1.1442  2.1727
  139MOL    H5425170   0.851   1.498   6.670 -0.2272  2.2328 -2.9671
  139MOL    H5525171   0.982   1.596   6.608 -1.3289 -0.2565 -0.5947
  139MOL    C5625172   0.734   1.724   7.006  0.4447  0.5933  0.6018
  139MOL    C5725173   0.690   1.678   7.151 -0.0580 -0.7435  0.6423
  139MOL    C5825174   0.617   1.734   6.905  0.0988  0.2423 -0.6888
  139MOL    O5925175   0.576   1.638   6.841  0.2557  0.2188  0.7065
  139MOL    O6025176   0.556   1.855   6.911 -0.1934  0.6092  0.0207
  139MOL    H6125177   0.781   1.822   7.011  1.5048  0.2571 -1.8650
  139MOL    H6225178   0.777   1.655   7.212  0.8616 -1.4648 -0.9084
  139MOL    H6325179   0.629   1.749   7.207 -0.8545 -1.6103  0.8886
  139MOL    H6425180   0.646   1.578   7.147  0.3898 -0.9458  0.8169
  139MOL    C6525181   0.436   1.872   6.832  0.1234  0.7051  0.7317
  139MOL    C6625182   0.315   1.801   6.896  0.7288  0.0255 -0.8351
  139MOL    C6725183   0.449   1.840   6.681  0.3913  0.3656  0.6144
  139MOL    O6825184   0.365   1.780   6.610  0.4510 -0.0572  0.2938
  139MOL    O6925185   0.572   1.866   6.636 -0.6707  0.2637 -0.3451
  139MOL    H7025186   0.407   1.976   6.845  0.2691  0.8236  0.1347
  139MOL    H7125187   0.251   1.864   6.958 -0.0852 -0.7228 -0.9051
  139MOL    H7225188   0.247   1.748   6.829  0.9885  1.0608 -1.9487
  139MOL    H7325189   0.344   1.719   6.961 -1.1514  0.3212  0.4081
  139MOL    C7425190   0.621   1.826   6.509  0.5083 -0.5782 -0.2715
  139MOL    C7525191   0.693   1.695   6.525 -0.4296  0.8885 -0.1557
  139MOL    C7625192   0.705   1.938   6.446 -0.9216  0.4798  0.5074
  139MOL    O7725193   0.827   1.949   6.460 -0.0838 -0.3595 -0.0814
  139MOL    O7825194   0.631   2.025   6.382 -0.7838  0.9159 -0.1239
  139MOL    H7925195   0.537   1.808   6.443  0.5702  1.6351 -1.0118
  139MOL    H8025196   0.743   1.663   6.434 -0.9668  0.2320 -0.2302
  139MOL    H8125197   0.769   1.699   6.603 -1.8640  1.5342  1.2436
  139MOL    H8225198   0.628   1.614   6.560  1.1894 -1.3184 -2.0920
  139MOL    C8325199   0.689   2.121   6.299 -0.2659  0.5781 -0.0353
  139MOL    C8425200   0.676   2.259   6.378  0.4685  0.4563 -0.8195
  139MOL    C8525201   0.625   2.129   6.160  0.3592 -0.1214  0.0893
  139MOL    O8625202   0.503   2.105   6.138  0.2578  0.6230  0.2084
  139MOL    O8725203   0.707   2.178   6.070 -0.5108 -0.4888 -0.1079
  139MOL    H8825204   0.793   2.107   6.271 -0.6387  0.5950 -1.5109
  139MOL    H8925205   0.571   2.288   6.383  0.1607 -0.6118 -1.1104
  139MOL    H9025206   0.709   2.260   6.482 -0.4021  1.8221 -0.5460
  139MOL    H9125207   0.720   2.340   6.320 -0.6017  1.0540 -0.8128
  139MOL    C9225208   0.675   2.211   5.941  0.3067  0.4921 -0.3519
  139MOL    C9325209   0.713   2.100   5.845  0.2603  0.0067 -0.5372
  139MOL    C9425210   0.741   2.347   5.904  0.1607 -1.0890 -0.2159
  139MOL    O9525211   0.677   2.436   5.857 -0.2438  0.2306  0.0856
  139MOL    O9625212   0.869   2.359   5.938  0.2924  0.1081 -0.0769
  139MOL    H9725213   0.570   2.230   5.919  0.3868  0.2210 -0.9816
  139MOL    H9825214   0.820   2.086   5.860  0.1770  1.5848  1.6789
  139MOL    H9925215   0.664   2.007   5.875 -0.3979 -0.2768 -2.4409
  139MOL   H10025216   0.694   2.126   5.741  2.4166  0.0255 -0.9314
  139MOL   C10125217   0.954   2.478   5.913 -0.8979  0.1574 -0.3270
  139MOL   C10225218   0.912   2.601   5.993 -0.0836 -0.8284  0.0781
  139MOL   C10325219   0.980   2.495   5.763 -0.6133 -0.0332 -0.0388
  139MOL   O10425220   0.987   2.399   5.694  0.0171  0.2859 -0.1165
  139MOL   O10525221   1.005   2.619   5.719 -0.1692  0.2495 -0.1955
  139MOL   H10625222   1.049   2.451   5.958 -2.4153 -1.0989  2.2758
  139MOL   H10725223   0.996   2.640   6.051  1.2073 -1.9617 -1.0184
  139MOL   H10825224   0.880   2.679   5.924  1.4483  0.5864  0.9192
  139MOL   H10925225   0.832   2.578   6.064  0.0320 -0.3559  0.3669
  139MOL   C11025226   1.018   2.643   5.583 -0.4512  0.0646  0.0341
  139MOL   C11125227   1.101   2.773   5.564 -0.2435  0.2313  0.7618
  139MOL   C11225228   0.877   2.645   5.512 -0.5073  0.3640 -0.2195
  139MOL   O11325229   0.773   2.609   5.570  0.1011  0.0678 -0.0625
  139MOL   O11425230   0.884   2.707   5.394  0.6259  0.2469 -0.8678
  139MOL   H11525231   1.074   2.574   5.519  1.4048  1.3984  0.1824
  139MOL   H11625232   1.196   2.738   5.603 -0.8521 -0.1135  1.9540
  139MOL   H11725233   1.108   2.808   5.461  0.5191  2.1028  1.4279
  139MOL   H11825234   1.057   2.850   5.627 -0.0947  0.5061  0.5341
  139MOL   C11925235   0.771   2.724   5.307  0.3321  0.2727  0.4475
  139MOL   C12025236   0.818   2.773   5.175 -0.1842 -0.5592 -0.3288
  139MOL   C12125237   0.679   2.833   5.376 -0.2232  0.1069  0.1412
  139MOL   O12225238   0.719   2.946   5.416  0.1982  0.5147 -0.2974
  139MOL   O12325239   0.548   2.793   5.382  0.3400  0.4850 -0.2222
  139MOL   H12425240   0.713   2.632   5.296 -2.2937  1.7640  1.4429
  139MOL   H12525241   0.870   2.694   5.121  0.2616  0.2364 -1.0814
  139MOL   H12625242   0.726   2.803   5.124 -1.6419  0.0726  2.6035
  139MOL   H12725243   0.882   2.860   5.186  1.4099 -1.6476 -0.7675
  139MOL   C12825244   0.435   2.879   5.418  0.1538 -0.1716  0.4878
  139MOL   C12925245   0.320   2.789   5.453  0.5097 -0.4266  0.5471
  139MOL   C13025246   0.404   2.978   5.307 -0.6633  0.3325 -0.1609
  139MOL   O13125247   0.469   2.970   5.202 -0.6375 -0.1679 -0.2635
  139MOL   O13225248   0.299   3.065   5.333 -0.4201  0.7953 -0.4683
  139MOL   H13325249   0.466   2.942   5.501  0.6514 -1.3313  1.1915
  139MOL   H13425250   0.339   2.714   5.530 -0.5690 -1.3129 -0.0259
  139MOL   H13525251   0.232   2.845   5.484  0.0105 -0.9866  0.1534
  139MOL   H13625252   0.293   2.743   5.357  2.5037 -1.5641  0.4867
  139MOL   C13725253   0.256   3.159   5.240  0.6116 -0.0319 -0.0920
  139MOL   C13825254   0.138   3.235   5.296 -0.4042  0.1135 -0.2990
  139MOL   C13925255   0.205   3.085   5.112  0.3720 -0.1930 -0.0620
  139MOL   O14025256   0.246   3.124   5.002 -0.2513  0.4532 -0.4630
  139MOL   O14125257   0.122   2.977   5.132  0.4925  0.1579 -0.4170
  139MOL   H14225258   0.335   3.225   5.205  1.4704 -1.9696 -1.9414
  139MOL   H14325259   0.104   3.300   5.215 -0.5603 -0.6511 -0.8581
  139MOL   H14425260   0.047   3.178   5.315 -0.5821  0.8005  0.9605
  139MOL   H14525261   0.159   3.298   5.382 -0.2125 -1.0644  0.5236
  139MOL   C14625262   0.048   2.914   5.027 -0.7643 -0.0937 -0.3156
  139MOL   C14725263   0.131   2.832   4.927  0.4078 -0.1984  1.1138
  139MOL   C14825264   8.102   3.009   4.950  0.6316 -0.0341  0.2622
  139MOL   O14925265   8.109   3.019   4.830  0.1934  0.0112  0.4697
  139MOL   O15025266   8.021   3.080   5.032 -0.2665  0.0622  0.1765
  139MOL   H15125267   8.140   2.841   5.086  0.2875 -1.5577 -1.0912
  139MOL   H15225268   0.207   2.775   4.980  1.3453  0.0003 -0.0060
  139MOL   H15325269   0.076   2.795   4.841  0.6383  0.7748  0.5457
  139MOL   H15425270   0.203   2.902   4.885  1.0749 -0.8189  1.2173
  139MOL   C15525271   7.928   3.177   4.980 -0.0368 -0.6009  0.3226
  139MOL   C15625272   8.003   3.315   4.981  0.4165 -0.0129  0.8698
  139MOL   C15725273   7.798   3.177   5.054 -0.2671 -0.5100 -0.7763
  139MOL   O15825274   7.781   3.103   5.154 -0.2227 -0.1409 -0.0023
  139MOL   O15925275   7.712   3.264   4.996 -0.3894 -0.0957  0.3251
  139MOL   H16025276   7.893   3.152   4.880 -1.4328  1.2670  0.3205
  139MOL   H16125277   8.082   3.311   4.907 -0.3292  2.1800 -0.0785
  139MOL   H16225278   7.938   3.392   4.938  0.1877 -1.7468 -2.0416
  139MOL   H16325279   8.051   3.343   5.075  1.1061  1.7848 -0.0032
  139MOL   C16425280   7.582   3.279   5.049  0.7113 -0.3386 -0.8322
  139MOL   C16525281   7.477   3.287   4.945  0.1908  0.7511 -0.0058
  139MOL   C16625282   7.569   3.398   5.148  0.2664 -0.4883 -0.8162
  139MOL   O16725283   7.662   3.439   5.219  0.3811 -0.0707 -0.1588
  139MOL   O16825284   7.439   3.444   5.165  0.7246 -0.2768  0.0801
  139MOL   H16925285   7.557   3.193   5.112  0.2886  0.5075  0.1721
  139MOL   H17025286   7.373   3.284   4.980  0.3275 -2.2286  0.3388
  139MOL   H17125287   7.496   3.382   4.896 -1.4130  1.9718  1.6893
  139MOL   H17225288   7.489   3.204   4.875  0.3088  0.4395  0.3804
  139MOL   C17325289   7.411   3.528   5.269 -0.3773  0.2415 -0.2976
  139MOL   C17425290   7.255   3.528   5.298  0.6627  0.0098  0.2116
  139MOL   C17525291   7.463   3.671   5.251  0.4137  0.0647 -0.3177
  139MOL   O17625292   7.508   3.711   5.144  0.1907 -0.3692 -0.5460
  139MOL   O17725293   7.470   3.741   5.366 -0.2328 -0.4035  0.3967
  139MOL   H17825294   7.453   3.488   5.361 -1.2564  2.5782  1.1760
  139MOL   H17925295   7.226   3.607   5.367  1.2185  0.3172  0.0985
  139MOL   H18025296   7.194   3.528   5.207  0.4359 -3.6367  0.2864
  139MOL   H18125297   7.234   3.440   5.359  0.2419 -0.3738 -0.4816
  139MOL   H18225298   7.513   3.824   5.356 -0.7530 -0.1989 -0.2056
  140MOL     C125299   7.202   7.448   5.683  0.3837  0.2050  0.1104
  140MOL     C225300   7.075   7.520   5.731 -0.5911  0.3198 -0.0151
  140MOL     C325301   7.253   7.356   5.787  0.0375 -0.2025  0.2407
  140MOL     O425302   7.369   7.363   5.833 -0.0183  0.4127  0.1237
  140MOL     O525303   7.169   7.251   5.805  0.3643  0.0828 -0.1257
  140MOL     H625304   7.189   7.380   5.599 -0.4074  1.5000 -0.8243
  140MOL     H725305   7.010   7.462   5.796  1.2613  1.5258  3.0428
  140MOL     H825306   7.093   7.606   5.796 -5.0617  0.4624  1.1481
  140MOL     H925307   7.025   7.542   5.636  0.3263 -1.9508 -1.0571
  140MOL    H1025308   7.277   7.520   5.654 -0.7420  0.9239 -1.0950
  140MOL    C1125309   7.198   7.147   5.903  0.3735  0.7524  0.7888
  140MOL    C1225310   7.223   7.024   5.810 -0.0011 -0.1574 -0.1133
  140MOL    C1325311   7.075   7.127   5.992 -0.9567  0.0518 -0.3572
  140MOL    O1425312   7.035   7.014   6.025 -0.0444  0.1884  0.3458
  140MOL    O1525313   7.019   7.240   6.016 -0.4262  0.2938  0.7332
  140MOL    H1625314   7.286   7.174   5.962 -0.7364 -1.5389  3.6132
  140MOL    H1725315   7.321   6.999   5.769 -0.2114  0.0526 -0.7469
  140MOL    H1825316   7.174   6.936   5.851 -0.0088 -0.0609  0.0865
  140MOL    H1925317   7.174   7.035   5.713  0.1270 -1.0897 -0.2876
  140MOL    C2025318   6.911   7.251   6.113  0.3816 -0.3529  0.1651
  140MOL    C2125319   6.772   7.212   6.050 -0.0416  0.7487  0.4210
  140MOL    C2225320   6.915   7.391   6.165  0.2888 -0.4024  0.0398
  140MOL    O2325321   6.822   7.464   6.143 -0.4676  0.1940 -0.1960
  140MOL    O2425322   7.035   7.421   6.221 -0.4489 -0.8507  0.0843
  140MOL    H2525323   6.935   7.181   6.193 -2.8186  1.5975  2.9766
  140MOL    H2625324   6.751   7.287   5.973  0.9695 -0.6989 -1.3002
  140MOL    H2725325   6.765   7.116   5.999  1.3441 -0.6933  2.8768
  140MOL    H2825326   6.684   7.205   6.113  0.4436  0.1087  1.0304
  140MOL    C2925327   7.075   7.552   6.252  0.6882  0.1941 -0.1575
  140MOL    C3025328   7.231   7.542   6.265  0.3155 -0.0351  0.7196
  140MOL    C3125329   6.994   7.596   6.379  0.0195 -0.5477  0.5275
  140MOL    O3225330   6.902   7.679   6.376  0.1096 -0.2741  0.4718
  140MOL    O3325331   7.039   7.532   6.487  0.0229 -0.3197  0.3183
  140MOL    H3425332   7.047   7.624   6.176 -0.9701  0.2832  0.5105
  140MOL    H3525333   7.275   7.637   6.296 -1.0190  0.6329  0.6118
  140MOL    H3625334   7.259   7.455   6.325 -1.6889 -0.8154  0.5352
  140MOL    H3725335   7.282   7.519   6.172 -0.1115  0.1805  0.4374
  140MOL    C3825336   6.983   7.554   6.617  0.2988 -0.6425  0.4459
  140MOL    C3925337   7.084   7.519   6.725  0.0357  0.3601 -0.5114
  140MOL    C4025338   6.858   7.466   6.628 -0.6971 -0.3599  0.2382
  140MOL    O4125339   6.758   7.509   6.691  0.1213 -0.2620  0.0606
  140MOL    O4225340   6.867   7.340   6.576  0.0020 -0.2721 -0.0341
  140MOL    H4325341   6.958   7.659   6.625 -0.1329 -0.5871 -1.3668
  140MOL    H4425342   7.035   7.511   6.822 -0.2303 -1.3400 -0.7750
  140MOL    H4525343   7.129   7.424   6.698  0.5704 -0.0139  1.6435
  140MOL    H4625344   7.169   7.584   6.744 -0.4138  0.2362  2.1168
  140MOL    C4725345   6.749   7.260   6.559  0.2921  0.2086 -0.4557
  140MOL    C4825346   6.652   7.296   6.445 -0.5399  0.5651 -0.2883
  140MOL    C4925347   6.681   7.219   6.697 -0.2223 -0.0714  0.6036
  140MOL    O5025348   6.752   7.162   6.779 -0.1057 -0.6875 -0.5006
  140MOL    O5125349   6.550   7.264   6.701 -0.0592  0.1414  0.3550
  140MOL    H5225350   6.796   7.168   6.524  0.6573  0.2075  0.0327
  140MOL    H5325351   6.586   7.212   6.423 -1.8467  1.5376 -0.1441
  140MOL    H5425352   6.598   7.387   6.469  0.2411  0.6944  1.0268
  140MOL    H5525353   6.696   7.324   6.350  0.9010  1.7351  0.7148
  140MOL    C5625354   6.459   7.247   6.809 -0.3716  0.4626  0.1366
  140MOL    C5725355   6.477   7.348   6.924 -0.3572  0.0376 -0.2861
  140MOL    C5825356   6.448   7.095   6.851  0.4862 -0.2768 -0.5013
  140MOL    O5925357   6.431   7.063   6.971  0.1083 -0.2675  0.3048
  140MOL    O6025358   6.440   7.003   6.752  0.6754 -0.5830  0.3260
  140MOL    H6125359   6.363   7.274   6.764 -0.7852 -0.0520  0.6893
  140MOL    H6225360   6.577   7.340   6.969 -0.8184 -2.4512  0.3893
  140MOL    H6325361   6.467   7.444   6.874 -1.5139  0.3025  0.4540
  140MOL    H6425362   6.401   7.349   7.002  1.3839 -0.7853  1.4897
  140MOL    C6525363   6.442   6.860   6.771 -0.0554  0.8871  0.2768
  140MOL    C6625364   6.317   6.812   6.830  0.2299 -0.1597 -0.0452
  140MOL    C6725365   6.557   6.810   6.855 -0.2390  0.0217  0.6533
  140MOL    O6825366   6.538   6.719   6.944 -0.0672  0.3417 -0.0129
  140MOL    O6925367   6.677   6.857   6.819 -0.5538 -0.5161  0.2150
  140MOL    H7025368   6.453   6.812   6.673  0.2230  1.4793  0.0116
  140MOL    H7125369   6.308   6.862   6.927 -1.3919 -1.1922  0.3567
  140MOL    H7225370   6.241   6.844   6.759  1.9682  0.1977 -1.7952
  140MOL    H7325371   6.311   6.705   6.847 -2.0368 -0.2719 -1.3291
  140MOL    C7425372   6.799   6.798   6.865  0.8010 -0.0835 -0.9861
  140MOL    C7525373   6.896   6.917   6.901  0.2252  0.2365 -0.0872
  140MOL    C7625374   6.856   6.711   6.765 -0.2819  0.5828  0.2970
  140MOL    O7725375   6.798   6.677   6.661  0.1350  0.4570  0.3472
  140MOL    O7825376   6.979   6.671   6.789  0.8056  0.1260  0.6577
  140MOL    H7925377   6.788   6.741   6.957 -1.5812  1.4439 -0.2924
  140MOL    H8025378   6.848   6.990   6.966  0.1551 -0.1737  0.3324
  140MOL    H8125379   6.983   6.867   6.945  0.2995 -0.3035 -0.8314
  140MOL    H8225380   6.937   6.958   6.809  2.5960 -2.1775 -0.1833
  140MOL    C8325381   7.052   6.597   6.689 -0.3707 -0.9744  0.3826
  140MOL    C8425382   7.182   6.532   6.744  0.0936  0.1580 -0.2922
  140MOL    C8525383   7.102   6.695   6.574 -0.3844  0.0162  0.3706
  140MOL    O8625384   7.094   6.818   6.590  0.2869  0.4865 -0.2307
  140MOL    O8725385   7.181   6.631   6.485 -0.1607  0.3770 -0.6174
  140MOL    H8825386   7.005   6.513   6.639  1.6519 -0.7189 -2.1074
  140MOL    H8925387   7.252   6.615   6.758 -0.6385  1.0070 -1.5670
  140MOL    H9025388   7.167   6.483   6.840 -0.2752  0.6796 -0.0811
  140MOL    H9125389   7.229   6.452   6.688 -0.1706  1.2626 -2.1611
  140MOL    C9225390   7.247   6.713   6.386 -0.3906 -0.3450  0.3968
  140MOL    C9325391   7.266   6.624   6.260  0.0010 -0.1800  0.3469
  140MOL    C9425392   7.383   6.763   6.429 -0.3517 -0.2671 -0.2663
  140MOL    O9525393   7.424   6.856   6.367 -0.2793 -0.3361 -0.4370
  140MOL    O9625394   7.438   6.708   6.541  0.2458  0.1671 -0.1817
  140MOL    H9725395   7.192   6.802   6.355 -0.4768  0.1468  1.9157
  140MOL    H9825396   7.175   6.591   6.209 -0.5388 -1.9531  2.3927
  140MOL    H9925397   7.330   6.676   6.189  0.6233  0.4327  1.3508
  140MOL   H10025398   7.302   6.522   6.273 -3.3547 -1.4224  0.3989
  140MOL   C10125399   7.566   6.761   6.583  0.3467  0.0129  0.1980
  140MOL   C10225400   7.620   6.668   6.693  0.1001  0.6935  0.0952
  140MOL   C10325401   7.553   6.904   6.642  0.2219 -0.2854 -0.0278
  140MOL   O10425402   7.638   6.996   6.616 -0.1339 -0.1863  0.0399
  140MOL   O10525403   7.441   6.916   6.721  0.0163  0.5865 -0.1261
  140MOL   H10625404   7.634   6.747   6.499  0.9861 -0.1265  0.7300
  140MOL   H10725405   7.535   6.626   6.747  0.2772 -0.9205 -0.8411
  140MOL   H10825406   7.664   6.585   6.636  1.0043  0.7946  0.6396
  140MOL   H10925407   7.693   6.702   6.766 -1.6070  3.3807  0.6042
  140MOL   C11025408   7.414   7.039   6.782  0.2355  0.5370 -0.7075
  140MOL   C11125409   7.287   7.020   6.863  0.2440  0.3243 -0.4872
  140MOL   C11225410   7.394   7.156   6.672  0.3089  0.2930 -0.5687
  140MOL   O11325411   7.427   7.269   6.694 -0.4050  0.1312  0.5033
  140MOL   O11425412   7.326   7.112   6.568 -0.1269  0.6747 -0.0387
  140MOL   H11525413   7.489   7.062   6.857  0.0257  0.9000 -0.6122
  140MOL   H11625414   7.308   6.960   6.951  0.6358 -1.4700 -1.7605
  140MOL   H11725415   7.245   7.117   6.889  2.2733  1.3927 -1.0803
  140MOL   H11825416   7.205   6.977   6.806 -1.5863  1.2046  1.4435
  140MOL   C11925417   7.278   7.206   6.469 -0.3968  0.1770  0.5064
  140MOL   C12025418   7.130   7.177   6.465  0.1926 -0.6133  0.2108
  140MOL   C12125419   7.352   7.175   6.342  0.5229 -0.1161  0.0794
  140MOL   O12225420   7.289   7.136   6.240 -0.5582  0.4518  0.0632
  140MOL   O12325421   7.479   7.187   6.356  0.1200 -0.1201  0.1082
  140MOL   H12425422   7.306   7.310   6.486 -2.5803  0.7925  0.5005
  140MOL   H12525423   7.079   7.204   6.373 -0.6208  0.2398  0.8982
  140MOL   H12625424   7.102   7.072   6.477 -0.9256 -0.4174 -0.6069
  140MOL   H12725425   7.086   7.233   6.548  1.2490 -1.8409  1.6384
  140MOL   C12825426   7.565   7.160   6.248 -0.5907  0.3029 -0.2590
  140MOL   C12925427   7.707   7.139   6.310  0.6826  0.2731 -0.7106
  140MOL   C13025428   7.558   7.286   6.156  0.3855 -0.3925 -0.2922
  140MOL   O13125429   7.491   7.390   6.179  0.1519 -0.0982 -0.2738
  140MOL   O13225430   7.635   7.271   6.044  0.5031 -0.0027  0.2426
  140MOL   H13325431   7.541   7.064   6.201  0.8852 -0.2921  0.1652
  140MOL   H13425432   7.716   7.040   6.355 -0.1599  1.2159  1.6489
  140MOL   H13525433   7.774   7.162   6.228  0.7663  0.5600 -0.5616
  140MOL   H13625434   7.725   7.210   6.391 -0.2362 -2.1998  1.7662
  140MOL   C13725435   7.669   7.389   5.966 -0.4220 -0.0090 -0.3639
  140MOL   C13825436   7.718   7.339   5.828 -0.2268  0.8917 -0.7254
  140MOL   C13925437   7.773   7.482   6.034 -0.1608  0.1252 -0.6537
  140MOL   O14025438   7.790   7.594   5.994  0.7193  0.0263 -0.2644
  140MOL   O14125439   7.846   7.424   6.133  0.2564 -0.9814 -0.7909
  140MOL   H14225440   7.583   7.454   5.948  0.6116  2.2076  2.3348
  140MOL   H14325441   7.637   7.287   5.777  1.2663 -1.0951 -1.1181
  140MOL   H14425442   7.740   7.427   5.768  0.3276  2.1815  1.2999
  140MOL   H14525443   7.798   7.265   5.824 -1.2685 -0.3370  0.2821
  140MOL   C14625444   7.929   7.491   6.219 -0.4225 -0.5168 -0.0099
  140MOL   C14725445   8.022   7.408   6.311 -0.9161  0.1614  0.2852
  140MOL   C14825446   7.844   7.576   6.313  0.1870  0.2761  0.5829
  140MOL   O14925447   7.874   7.691   6.331  0.3343  0.3806  0.0084
  140MOL   O15025448   7.732   7.519   6.359  0.1658 -0.1725  0.0014
  140MOL   H15125449   7.987   7.562   6.160  1.1996 -1.1701  0.7715
  140MOL   H15225450   8.099   7.360   6.251 -0.2377  0.7022  0.7121
  140MOL   H15325451   8.070   7.481   6.376 -0.1030 -0.4212  0.3410
  140MOL   H15425452   7.961   7.338   6.369  1.7319 -0.4346  2.4595
  140MOL   C15525453   7.638   7.591   6.439  0.1033  0.5645 -0.0197
  140MOL   C15625454   7.536   7.494   6.496 -0.7998 -0.2826 -0.1585
  140MOL   C15725455   7.561   7.700   6.363  0.2920  0.0357 -0.0510
  140MOL   O15825456   7.501   7.789   6.427  0.4307  0.2927  0.0962
  140MOL   O15925457   7.564   7.690   6.230  0.5760  0.0662  0.2587
  140MOL   H16025458   7.685   7.629   6.530 -0.2420 -0.1679  0.4718
  140MOL   H16125459   7.444   7.541   6.531  0.2532  0.3042  1.8867
  140MOL   H16225460   7.519   7.409   6.430 -3.0340  1.2352 -1.6073
  140MOL   H16325461   7.576   7.465   6.593  0.0961  2.5776  0.3741
  140MOL   C16425462   7.506   7.792   6.145  0.1751  0.1477 -0.1359
  140MOL   C16525463   7.470   7.733   6.006  0.4040  0.0456  0.0991
  140MOL   C16625464   7.609   7.905   6.129 -0.3563 -0.4254 -0.6102
  140MOL   O16725465   7.593   8.010   6.192  0.8007  0.3681  0.9605
  140MOL   O16825466   7.706   7.884   6.044 -0.6465  0.4462  0.2483
  140MOL   H16925467   7.417   7.835   6.190  1.3962  3.5088 -0.7364
  140MOL   H17025468   7.410   7.807   5.952  2.9077  1.1039 -1.2907
  140MOL   H17125469   7.555   7.707   5.944 -0.5969 -0.2637 -1.1659
  140MOL   H17225470   7.401   7.649   6.016  0.1966  0.4607  2.4613
  140MOL   C17325471   7.811   7.985   6.032 -0.1005 -0.1397 -0.3408
  140MOL   C17425472   7.832   7.997   5.879 -0.2010  0.0277 -1.0823
  140MOL   C17525473   7.941   7.922   6.101 -0.2547 -0.3683  0.8243
  140MOL   O17625474   8.002   7.983   6.193  0.3235  0.4630 -0.2234
  140MOL   O17725475   7.976   7.804   6.046 -0.4869 -0.0335 -0.4450
  140MOL   H17825476   7.781   8.079   6.077  2.9963  0.9813 -0.4732
  140MOL   H17925477   7.847   7.904   5.823 -0.4611  0.3332 -1.6634
  140MOL   H18025478   7.736   8.041   5.851 -1.6810 -0.6612  2.6716
  140MOL   H18125479   7.917   8.059   5.852 -0.6263  1.5183  0.9432
  140MOL   H18225480   7.910   7.763   5.994  0.0054 -0.2722 -0.8860
  141MOL     C125481   7.647   3.420   2.696  0.2086  0.3411  0.2807
  141MOL     C225482   7.618   3.427   2.849  0.2403  0.5770 -0.1287
  141MOL     C325483   7.526   3.432   2.607 -0.6007 -0.4479  0.1227
  141MOL     O425484   7.492   3.336   2.534 -0.2083  0.3042  0.4058
  141MOL     O525485   7.464   3.553   2.621  0.0386  0.1587 -0.1058
  141MOL     H625486   7.723   3.493   2.667  0.0649  0.2356 -0.3709
  141MOL     H725487   7.516   3.390   2.855 -0.0732  1.5538  0.8645
  141MOL     H825488   7.670   3.348   2.903 -0.1581 -0.0896 -0.7163
  141MOL     H925489   7.620   3.518   2.909 -0.2417 -0.2312  1.1384
  141MOL    H1025490   7.688   3.321   2.676  1.9961  1.3896 -1.4172
  141MOL    C1125491   7.348   3.585   2.539  0.3989  0.2082 -0.0505
  141MOL    C1225492   7.323   3.737   2.544 -0.6934  0.1759 -0.0955
  141MOL    C1325493   7.233   3.507   2.598  0.1465  0.2532 -0.0663
  141MOL    O1425494   7.162   3.443   2.528  0.1767  0.7569  0.2608
  141MOL    O1525495   7.218   3.517   2.729  0.4107 -0.0531 -0.7653
  141MOL    H1625496   7.365   3.556   2.435 -1.4055 -1.7428  0.1596
  141MOL    H1725497   7.340   3.783   2.641  0.2408 -1.6635  0.6429
  141MOL    H1825498   7.376   3.783   2.461 -1.0528 -0.4013 -0.6525
  141MOL    H1925499   7.218   3.760   2.524 -1.0397 -3.2462 -2.7940
  141MOL    C2025500   7.099   3.463   2.793 -0.4789  0.4231 -0.6039
  141MOL    C2125501   6.994   3.576   2.799 -0.2339 -0.2750 -0.7208
  141MOL    C2225502   7.141   3.416   2.932  0.3323 -0.1700  0.4048
  141MOL    O2325503   7.252   3.374   2.958 -0.4061  0.3815 -0.6572
  141MOL    O2425504   7.037   3.421   3.017  0.9199 -0.1192 -0.5953
  141MOL    H2525505   7.050   3.377   2.747  0.1138 -3.0240  4.7968
  141MOL    H2625506   6.948   3.583   2.701  0.4487 -2.1720 -1.1977
  141MOL    H2725507   6.921   3.564   2.879  2.1919  0.1943  1.6457
  141MOL    H2825508   7.041   3.670   2.827 -0.7814 -0.2240  0.0339
  141MOL    C2925509   7.029   3.374   3.151  0.2065 -0.3464  0.2552
  141MOL    C3025510   6.880   3.352   3.196  0.2093  0.1354  0.4050
  141MOL    C3125511   7.101   3.474   3.249 -0.3335 -0.3624 -0.2950
  141MOL    O3225512   7.197   3.441   3.321  0.2468  0.2883 -0.7255
  141MOL    O3325513   7.047   3.598   3.242  1.1201  0.4372  0.9240
  141MOL    H3425514   7.073   3.275   3.150 -0.5859 -0.7031  0.4913
  141MOL    H3525515   6.823   3.441   3.172 -0.0731 -0.0785  0.2813
  141MOL    H3625516   6.834   3.267   3.146  0.8020  0.6208 -0.9958
  141MOL    H3725517   6.869   3.329   3.302 -0.9406 -0.3325  0.1815
  141MOL    C3825518   7.102   3.696   3.330  0.3512  0.1768 -0.3037
  141MOL    C3925519   6.983   3.790   3.328  0.7926 -1.1075  0.5683
  141MOL    C4025520   7.221   3.768   3.275 -0.0468  0.0042 -0.2443
  141MOL    O4125521   7.223   3.889   3.260 -0.4116 -0.5808  0.1229
  141MOL    O4225522   7.326   3.685   3.242  0.7156 -0.4173  0.0296
  141MOL    H4325523   7.112   3.653   3.430 -0.9008  1.8497  0.5774
  141MOL    H4425524   6.957   3.829   3.230 -0.8402  1.5390  2.0140
  141MOL    H4525525   6.895   3.746   3.374  0.9859 -1.6033  0.4723
  141MOL    H4625526   7.004   3.880   3.386 -1.1471  0.6077 -1.2930
  141MOL    C4725527   7.431   3.728   3.159 -0.4663 -0.4896 -0.1362
  141MOL    C4825528   7.392   3.693   3.011  0.2454 -0.1376  0.2781
  141MOL    C4925529   7.561   3.680   3.215 -0.9081 -1.1482  0.4438
  141MOL    O5025530   7.622   3.738   3.305  0.1257 -0.6707 -0.5332
  141MOL    O5125531   7.611   3.571   3.154  0.3155 -0.6835 -0.3350
  141MOL    H5225532   7.439   3.835   3.139 -3.9904 -0.1423 -0.0623
  141MOL    H5325533   7.294   3.735   2.989  0.6549  0.6397 -0.0782
  141MOL    H5425534   7.464   3.735   2.941 -0.0193 -2.4206 -1.4345
  141MOL    H5525535   7.385   3.585   2.996  1.3030 -0.3655  1.4036
  141MOL    C5625536   7.721   3.497   3.208  0.3306  0.0633  0.1471
  141MOL    C5725537   7.853   3.539   3.146  0.5831 -0.2568 -0.8089
  141MOL    C5825538   7.694   3.350   3.190  0.0307 -0.0688 -0.4308
  141MOL    O5925539   7.775   3.274   3.146 -0.2842  0.1852  0.9084
  141MOL    O6025540   7.567   3.315   3.223  0.4802  1.0710 -0.0840
  141MOL    H6125541   7.718   3.509   3.316 -3.5924 -1.0690  0.2386
  141MOL    H6225542   7.936   3.490   3.198 -0.6997 -1.3596  0.2131
  141MOL    H6325543   7.864   3.511   3.041 -0.0106 -0.1593 -0.8997
  141MOL    H6425544   7.876   3.644   3.165 -0.9675 -0.2494  1.1685
  141MOL    C6525545   7.524   3.190   3.281  0.2335 -0.2218 -0.8364
  141MOL    C6625546   7.604   3.155   3.415  0.4927  0.4834  0.0095
  141MOL    C6725547   7.518   3.077   3.177 -0.8958  0.5242 -0.4501
  141MOL    O6825548   7.545   2.963   3.215 -0.0087 -0.0002  0.0880
  141MOL    O6925549   7.480   3.118   3.054  0.4713  0.7229 -0.1995
  141MOL    H7025550   7.422   3.205   3.315  0.8730  0.2538  0.9520
  141MOL    H7125551   7.713   3.155   3.408  0.5104 -3.5539 -0.8738
  141MOL    H7225552   7.572   3.229   3.488  1.9017  1.8826 -0.7602
  141MOL    H7325553   7.577   3.058   3.455  0.4762 -1.6288 -4.7576
  141MOL    C7425554   7.477   3.026   2.953 -0.0156 -0.5816 -0.0752
  141MOL    C7525555   7.487   3.094   2.820  0.7110  0.1512 -0.5624
  141MOL    C7625556   7.348   2.936   2.965  0.4124  0.2569  0.0784
  141MOL    O7725557   7.353   2.816   2.989  0.5564  0.9113  0.0554
  141MOL    O7825558   7.234   3.014   2.944  0.0392 -0.4472 -0.2602
  141MOL    H7925559   7.566   2.962   2.955  0.3212 -0.0874  0.6365
  141MOL    H8025560   7.423   3.182   2.821  0.0044 -0.3638  0.4241
  141MOL    H8125561   7.588   3.133   2.805  0.3891  1.5916  0.8602
  141MOL    H8225562   7.467   3.033   2.732 -0.9724 -1.1796  0.7241
  141MOL    C8325563   7.112   2.953   2.966  0.6288 -0.1275 -0.8637
  141MOL    C8425564   7.009   3.048   2.905  0.6701 -0.7361 -0.2240
  141MOL    C8525565   7.088   2.926   3.115 -0.1869 -0.4341  0.1500
  141MOL    O8625566   7.168   2.962   3.200  0.2652 -0.0416  0.1665
  141MOL    O8725567   6.977   2.849   3.132  0.1494  0.1485  0.1096
  141MOL    H8825568   7.101   2.865   2.902 -0.8524  1.2625 -2.5876
  141MOL    H8925569   7.011   3.042   2.796  0.8524 -3.2948 -0.0883
  141MOL    H9025570   6.912   3.009   2.935  0.3663  1.1437  1.3314
  141MOL    H9125571   7.007   3.148   2.950 -1.1748 -1.1950  0.7327
  141MOL    C9225572   6.930   2.816   3.270 -0.9819  0.1927  0.2571
  141MOL    C9325573   6.845   2.695   3.252 -0.7168 -0.0720  0.5267
  141MOL    C9425574   6.851   2.931   3.333 -0.4512 -0.2090 -0.2778
  141MOL    O9525575   6.842   3.038   3.277 -0.4303  0.3651  0.3648
  141MOL    O9625576   6.778   2.897   3.442 -1.0795 -0.0754 -0.1980
  141MOL    H9725577   7.009   2.795   3.341  1.9264  0.1973 -2.8189
  141MOL    H9825578   6.794   2.703   3.156 -0.3113 -0.2797  0.2917
  141MOL    H9925579   6.903   2.603   3.254 -2.5907 -1.3180 -1.0275
  141MOL   H10025580   6.760   2.688   3.319  0.1393 -0.5255  1.5741
  141MOL   C10125581   6.720   2.998   3.522  0.1411 -0.0374  0.7225
  141MOL   C10225582   6.658   2.929   3.646  0.9137  0.0777 -0.2679
  141MOL   C10325583   6.605   3.066   3.438  0.8210  0.7181  0.6425
  141MOL   O10425584   6.531   3.002   3.371  0.7555  0.2360 -0.2108
  141MOL   O10525585   6.602   3.200   3.444  0.5296 -0.2678  0.0614
  141MOL   H10625586   6.793   3.072   3.554  0.5510 -1.4067  3.1367
  141MOL   H10725587   6.591   2.851   3.611  2.9199 -1.7835 -0.0717
  141MOL   H10825588   6.731   2.889   3.717  1.2100 -1.4909 -1.4366
  141MOL   H10925589   6.603   3.007   3.698  2.5198  1.2672 -0.3141
  141MOL   C11025590   6.507   3.271   3.368  0.1983  0.3141 -0.7253
  141MOL   C11125591   6.546   3.419   3.373 -0.6272  0.2025 -0.3161
  141MOL   C11225592   6.365   3.258   3.415  0.3748  0.4144  0.2391
  141MOL   O11325593   6.331   3.261   3.532  0.4370 -0.5701  0.3357
  141MOL   O11425594   6.283   3.238   3.313 -0.2171  0.3053 -0.2701
  141MOL   H11525595   6.511   3.233   3.266  0.3000 -2.8071  0.3812
  141MOL   H11625596   6.464   3.482   3.337 -0.2477  0.6277 -0.4517
  141MOL   H11725597   6.556   3.447   3.477 -2.0300  0.2782 -0.1967
  141MOL   H11825598   6.636   3.455   3.322 -0.0558 -0.3407  0.3197
  141MOL   C11925599   6.153   3.197   3.336 -0.7096  0.1106  0.8198
  141MOL   C12025600   6.099   3.108   3.224 -0.1939  0.2527 -1.0453
  141MOL   C12125601   6.060   3.313   3.357  0.1440  0.2814  0.1292
  141MOL   O12225602   6.080   3.427   3.319 -0.1038  0.1935 -0.4809
  141MOL   O12325603   5.955   3.268   3.422 -0.0268  0.4351 -0.5545
  141MOL   H12425604   6.153   3.124   3.418  1.7608 -0.6441  0.1817
  141MOL   H12525605   6.165   3.028   3.190 -1.6348 -0.0823 -3.1812
  141MOL   H12625606   6.009   3.049   3.241 -0.9422  1.3013 -1.3489
  141MOL   H12725607   6.051   3.159   3.141  0.4462 -0.1146 -1.6509
  141MOL   C12825608   5.852   3.360   3.465 -0.0508  0.3723  0.1106
  141MOL   C12925609   5.768   3.428   3.351 -0.2519 -0.2124  0.6310
  141MOL   C13025610   5.911   3.448   3.573 -0.1064  0.3955 -0.5760
  141MOL   O13125611   5.887   3.567   3.565 -0.0839  0.7060 -0.3887
  141MOL   O13225612   5.995   3.390   3.661  0.2546  0.3495  0.2689
  141MOL   H13325613   5.787   3.286   3.513  1.4181 -1.0625 -0.0519
  141MOL   H13425614   5.666   3.453   3.380 -0.2283  0.4216  0.1742
  141MOL   H13525615   5.814   3.519   3.312  0.2229 -0.5427  0.4178
  141MOL   H13625616   5.765   3.358   3.267  1.0396 -1.5499  1.6701
  141MOL   C13725617   6.081   3.473   3.747  0.2146 -0.2269  0.1508
  141MOL   C13825618   6.170   3.366   3.809 -0.7053 -0.3928 -0.5029
  141MOL   C13925619   6.003   3.563   3.844  0.2682  0.5222 -0.1544
  141MOL   O14025620   6.018   3.681   3.864 -0.0212  0.3099 -0.3673
  141MOL   O14125621   5.919   3.490   3.910  0.6357 -0.0443 -0.4229
  141MOL   H14225622   6.136   3.538   3.679 -1.7391  0.2396 -1.0088
  141MOL   H14325623   6.244   3.418   3.870 -0.9422 -1.4678  0.7367
  141MOL   H14425624   6.127   3.303   3.887  1.0373  0.7678  1.4466
  141MOL   H14525625   6.241   3.307   3.752  0.6201  0.1940  0.5245
  141MOL   C14625626   5.833   3.547   4.008  0.1606  0.8147 -0.2096
  141MOL   C14725627   5.897   3.546   4.146 -0.2975 -0.1043  0.0003
  141MOL   C14825628   5.700   3.469   3.996  0.2434 -0.7831 -0.2382
  141MOL   O14925629   5.626   3.465   4.093  0.0841  0.2780 -0.2963
  141MOL   O15025630   5.672   3.423   3.872 -0.2435 -0.0624 -0.7331
  141MOL   H15125631   5.818   3.654   3.989  1.7593  1.0055 -0.5300
  141MOL   H15225632   5.990   3.601   4.151  0.3982 -1.1456 -1.1038
  141MOL   H15325633   5.838   3.596   4.223 -0.5610 -0.0113 -0.2569
  141MOL   H15425634   5.916   3.440   4.163  0.8042  0.1072  0.0934
  141MOL   C15525635   5.533   3.392   3.837 -0.2086  0.2664  0.5393
  141MOL   C15625636   5.546   3.301   3.710 -0.1313  0.2388  0.0019
  141MOL   C15725637   5.445   3.520   3.818 -0.5580  0.5551 -0.2250
  141MOL   O15825638   5.489   3.626   3.856  0.3724 -0.2468  0.2781
  141MOL   O15925639   5.326   3.496   3.755 -0.0999  0.0052  0.0056
  141MOL   H16025640   5.490   3.321   3.908 -0.4502 -0.1208  0.0079
  141MOL   H16125641   5.568   3.353   3.617 -1.8140  2.0783  0.6168
  141MOL   H16225642   5.613   3.218   3.735 -2.6640 -2.1380 -0.8315
  141MOL   H16325643   5.446   3.262   3.690 -0.1993 -0.7562  2.1840
  141MOL   C16425644   5.240   3.604   3.718  0.2141  0.4080  0.3576
  141MOL   C16525645   5.100   3.551   3.734 -0.8816 -0.1957 -0.2602
  141MOL   C16625646   5.260   3.633   3.565  0.2067  0.3018 -0.1675
  141MOL   O16725647   5.297   3.551   3.482  0.2728 -0.0866 -0.0703
  141MOL   O16825648   5.225   3.759   3.541 -0.1237  0.0583  0.2911
  141MOL   H16925649   5.253   3.699   3.770  0.4526 -0.7074  2.3569
  141MOL   H17025650   5.081   3.544   3.841  0.2396  0.7333  0.0023
  141MOL   H17125651   5.024   3.610   3.684  0.4425  1.6335 -0.1685
  141MOL   H17225652   5.107   3.452   3.688  0.7377  1.0438 -2.8447
  141MOL   C17325653   5.266   3.822   3.428  0.4735  0.4286  0.8996
  141MOL   C17425654   5.232   3.971   3.443  0.7417  0.5027 -0.3397
  141MOL   C17525655   5.192   3.769   3.298 -0.9037  0.6264  0.2348
  141MOL   O17625656   5.262   3.735   3.202 -0.6207  0.2246  0.0624
  141MOL   O17725657   5.052   3.774   3.309 -0.2911 -0.8282 -0.0020
  141MOL   H17825658   5.373   3.823   3.410  0.4462  1.3906  0.7380
  141MOL   H17925659   5.130   4.008   3.460  0.8497 -0.2183  2.1593
  141MOL   H18025660   5.280   4.014   3.531  1.7807  0.2487 -0.7854
  141MOL   H18125661   5.267   4.021   3.353  0.7793  1.8762  0.4120
  141MOL   H18225662   5.025   3.794   3.397  0.6911 -0.9290  0.3367
  142MOL     C125663   6.863   1.190   5.204  0.3543 -0.2407 -0.0231
  142MOL     C225664   6.837   1.295   5.096  0.1243  0.1719 -0.9319
  142MOL     C325665   6.875   1.258   5.336  0.8587  0.5853 -0.6529
  142MOL     O425666   6.968   1.240   5.410 -0.8081 -0.5254 -0.5793
  142MOL     O525667   6.765   1.344   5.361 -0.1151 -0.8560  0.1803
  142MOL     H625668   6.782   1.116   5.207  0.9768 -0.8912  1.1365
  142MOL     H725669   6.861   1.252   4.999  0.4486 -1.0419 -0.3252
  142MOL     H825670   6.731   1.320   5.092  0.1543  0.8256  1.5263
  142MOL     H925671   6.895   1.386   5.104 -2.3389  1.9052 -1.9670
  142MOL    H1025672   6.960   1.147   5.177  1.3461  0.2750  2.5780
  142MOL    C1125673   6.790   1.454   5.460 -0.3244 -0.0165  0.1346
  142MOL    C1225674   6.666   1.536   5.499  0.0985  0.3326 -0.6590
  142MOL    C1325675   6.898   1.557   5.408  0.9075 -0.3026  0.3041
  142MOL    O1425676   6.982   1.606   5.484  0.1514  0.4577 -0.0232
  142MOL    O1525677   6.881   1.579   5.272  0.5600  0.0551  0.2169
  142MOL    H1625678   6.828   1.412   5.553  0.6364 -2.7054 -1.3973
  142MOL    H1725679   6.595   1.483   5.563 -0.0393  0.6016 -0.5887
  142MOL    H1825680   6.686   1.628   5.553  2.0197 -1.3045  1.5328
  142MOL    H1925681   6.618   1.555   5.403 -2.7886 -1.0408  0.4402
  142MOL    C2025682   6.977   1.660   5.198 -0.2692 -0.7430  0.8020
  142MOL    C2125683   6.910   1.724   5.079 -0.9046  0.6629  0.0054
  142MOL    C2225684   7.100   1.574   5.153 -0.0388  0.3666  0.4068
  142MOL    O2325685   7.175   1.610   5.057 -0.0427  0.1279  0.5591
  142MOL    O2425686   7.122   1.462   5.225  0.3010  0.0853 -0.2935
  142MOL    H2525687   7.011   1.744   5.258 -1.1769 -1.0896  1.8164
  142MOL    H2625688   6.886   1.652   5.001  0.6557  0.5886 -0.4298
  142MOL    H2725689   6.812   1.757   5.114 -1.3734 -0.8754  0.2237
  142MOL    H2825690   6.988   1.787   5.037 -0.9489  1.6265  1.3422
  142MOL    C2925691   7.233   1.381   5.204 -0.5608 -0.0289 -0.3814
  142MOL    C3025692   7.366   1.428   5.270  0.7018 -0.3763 -0.1576
  142MOL    C3125693   7.255   1.322   5.066  0.0006 -0.0520  0.2904
  142MOL    O3225694   7.359   1.342   5.005 -0.1521  0.0051  0.4975
  142MOL    O3325695   7.146   1.248   5.019  0.3979  0.0348 -0.0332
  142MOL    H3425696   7.206   1.295   5.265 -0.4574  0.6894  0.6970
  142MOL    H3525697   7.449   1.371   5.226  0.3052 -0.0537 -1.3346
  142MOL    H3625698   7.396   1.531   5.255  0.1558 -0.3994 -1.5566
  142MOL    H3725699   7.351   1.407   5.376 -0.4020  2.8122  0.3555
  142MOL    C3825700   7.148   1.172   4.899  0.1201  0.1161 -0.1313
  142MOL    C3925701   7.267   1.079   4.884  0.1015 -0.0769  0.8222
  142MOL    C4025702   7.122   1.259   4.775 -0.0128  0.3134  0.8579
  142MOL    O4125703   7.209   1.255   4.687  0.1208 -0.8461  0.3866
  142MOL    O4225704   6.997   1.329   4.778  0.0302  0.1906 -0.2743
  142MOL    H4325705   7.059   1.109   4.909  0.4982 -0.1224  1.8475
  142MOL    H4425706   7.249   1.015   4.971  1.2821  1.9154  2.5690
  142MOL    H4525707   7.273   1.002   4.807  0.6060 -0.8171  1.5959
  142MOL    H4625708   7.367   1.119   4.899 -0.2602  0.8717  0.7113
  142MOL    C4725709   6.954   1.419   4.678 -0.0155  0.4197 -0.1996
  142MOL    C4825710   7.021   1.556   4.690 -0.0262  0.0943  0.4850
  142MOL    C4925711   6.796   1.416   4.679  0.7157  0.0046 -0.0680
  142MOL    O5025712   6.730   1.362   4.588 -0.4729  0.0409 -0.4440
  142MOL    O5125713   6.748   1.486   4.783  0.1185 -0.4489  0.2656
  142MOL    H5225714   6.979   1.377   4.580  0.0578  0.5274 -0.2284
  142MOL    H5325715   6.973   1.625   4.621 -1.3381  0.1841  1.4596
  142MOL    H5425716   7.004   1.600   4.788 -1.3629  4.0356 -1.4302
  142MOL    H5525717   7.126   1.536   4.670  0.1758  0.8610  0.7640
  142MOL    C5625718   6.601   1.508   4.796 -0.2944 -0.0126  0.4750
  142MOL    C5725719   6.578   1.617   4.896  0.5563 -0.6672 -0.4763
  142MOL    C5825720   6.520   1.386   4.850 -0.0515 -0.3787 -0.3409
  142MOL    O5925721   6.400   1.399   4.876 -0.7412  0.2714 -0.0576
  142MOL    O6025722   6.586   1.278   4.874 -0.5867  0.0685  0.3296
  142MOL    H6125723   6.559   1.539   4.701  0.0440 -2.1796 -0.4085
  142MOL    H6225724   6.618   1.597   4.996  1.3265 -1.7351 -0.9842
  142MOL    H6325725   6.636   1.703   4.861  1.0538 -0.2850  1.2321
  142MOL    H6425726   6.476   1.654   4.903  1.1650  0.9641  0.0215
  142MOL    C6525727   6.516   1.153   4.894 -0.1372  0.0772  0.5816
  142MOL    C6625728   6.618   1.051   4.949  0.3520 -0.1535  0.0319
  142MOL    C6725729   6.441   1.099   4.770  0.1433  0.4196  0.1482
  142MOL    O6825730   6.358   1.010   4.784  0.0455 -0.1560  0.4293
  142MOL    O6925731   6.470   1.165   4.655 -0.2992  0.9376  0.0576
  142MOL    H7025732   6.436   1.174   4.965  0.0128  0.5060  0.6267
  142MOL    H7125733   6.716   1.052   4.901  1.5161 -0.4604  2.2929
  142MOL    H7225734   6.652   1.062   5.052  0.6245  0.9611 -0.1727
  142MOL    H7325735   6.586   0.947   4.937  1.1376 -0.1666 -2.1257
  142MOL    C7425736   6.388   1.148   4.536  0.2517  0.1566  0.5885
  142MOL    C7525737   6.475   1.061   4.440  0.1757  0.6672  0.3254
  142MOL    C7625738   6.348   1.282   4.474  0.9324 -0.9201 -0.6974
  142MOL    O7725739   6.371   1.299   4.353 -0.3856  0.2147 -0.0407
  142MOL    O7825740   6.282   1.370   4.555  0.2984 -0.2089 -0.1726
  142MOL    H7925741   6.298   1.087   4.546  0.9397 -0.8400  0.7468
  142MOL    H8025742   6.429   1.057   4.341 -2.2272 -2.0014  1.4619
  142MOL    H8125743   6.567   1.117   4.429  0.6359 -0.2048 -0.3162
  142MOL    H8225744   6.507   0.962   4.472 -1.7693 -0.5715 -1.3668
  142MOL    C8325745   6.241   1.498   4.506  0.3594  0.1031 -0.2804
  142MOL    C8425746   6.253   1.602   4.627 -0.9355  0.2607  0.2124
  142MOL    C8525747   6.089   1.499   4.463 -0.1771  0.1933  0.0648
  142MOL    O8625748   6.061   1.535   4.349  0.1208 -0.4223  0.2702
  142MOL    O8725749   6.000   1.459   4.555  0.3773 -0.2668 -0.4286
  142MOL    H8825750   6.301   1.535   4.423  2.6755  0.0236  1.3325
  142MOL    H8925751   6.172   1.583   4.698 -0.0689  0.5609  1.3038
  142MOL    H9025752   6.348   1.622   4.677 -0.4773  0.7697 -0.8457
  142MOL    H9125753   6.235   1.694   4.572 -1.8285 -0.7325 -1.1675
  142MOL    C9225754   5.866   1.488   4.537 -0.3726 -0.3344  0.3450
  142MOL    C9325755   5.840   1.643   4.543  1.1969 -0.3494  0.2477
  142MOL    C9425756   5.775   1.417   4.645  0.2167  0.5409 -0.1393
  142MOL    O9525757   5.727   1.304   4.618  0.1396  0.0136 -0.3710
  142MOL    O9625758   5.749   1.493   4.753 -0.6848 -0.0489 -0.6966
  142MOL    H9725759   5.846   1.462   4.433 -1.9423 -0.4343  0.6604
  142MOL    H9825760   5.735   1.667   4.528  1.9060  0.8944 -3.1368
  142MOL    H9925761   5.868   1.700   4.632 -2.7589 -0.1941  1.4836
  142MOL   H10025762   5.876   1.687   4.451  0.4421 -1.1367 -0.4263
  142MOL   C10125763   5.656   1.459   4.858  0.3708 -0.3013 -0.0561
  142MOL   C10225764   5.700   1.335   4.938  0.0593  0.3391  0.0128
  142MOL   C10325765   5.512   1.437   4.797 -0.0641 -0.0470  0.3355
  142MOL   O10425766   5.435   1.352   4.847 -0.1149  0.2465  0.2590
  142MOL   O10525767   5.483   1.507   4.683  0.2457 -0.1557 -0.3199
  142MOL   H10625768   5.645   1.540   4.930 -0.1335 -0.2880 -0.1521
  142MOL   H10725769   5.806   1.342   4.964 -0.2868  1.0228  1.2843
  142MOL   H10825770   5.642   1.316   5.028 -1.5062 -1.0855 -1.2556
  142MOL   H10925771   5.700   1.248   4.872  3.6159  1.1817 -1.2399
  142MOL   C11025772   5.358   1.495   4.612  0.7412  0.4951  0.1011
  142MOL   C11125773   5.228   1.557   4.695  0.4555  0.1093 -0.3071
  142MOL   C11225774   5.326   1.353   4.553 -1.1925 -0.2298  0.5034
  142MOL   O11325775   5.211   1.304   4.530 -0.1206 -0.2468 -1.0642
  142MOL   O11425776   5.438   1.292   4.510  0.5844  0.3295 -0.1985
  142MOL   H11525777   5.365   1.552   4.519  1.8056 -1.2030 -0.8886
  142MOL   H11625778   5.246   1.662   4.714 -0.7710  0.3996 -0.7540
  142MOL   H11725779   5.138   1.552   4.635  1.1900 -1.8480 -1.2907
  142MOL   H11825780   5.218   1.500   4.788  0.1116 -1.5460 -1.3247
  142MOL   C11925781   5.425   1.183   4.417  0.6222 -0.5969 -0.3193
  142MOL   C12025782   5.516   1.069   4.475  0.5723  0.6769  0.3600
  142MOL   C12125783   5.451   1.226   4.274 -0.1471  0.6278  0.0514
  142MOL   O12225784   5.354   1.239   4.196  0.3427  0.3973 -0.8118
  142MOL   O12325785   5.573   1.281   4.249  0.3682 -0.0626  0.0597
  142MOL   H12425786   5.325   1.143   4.398  1.2368 -2.4885  0.2719
  142MOL   H12525787   5.507   1.057   4.583  0.7972  2.8942  0.6470
  142MOL   H12625788   5.502   0.974   4.423 -0.7209  0.3875  1.2254
  142MOL   H12725789   5.617   1.106   4.455  1.8390 -2.0490  1.4836
  142MOL   C12825790   5.598   1.358   4.132 -0.2316  0.1068 -0.5024
  142MOL   C12925791   5.744   1.358   4.089  0.4435  0.1243 -0.4970
  142MOL   C13025792   5.556   1.498   4.168  0.1918 -0.1478 -0.3756
  142MOL   O13125793   5.625   1.569   4.240  0.1256  0.3335 -0.2305
  142MOL   O13225794   5.415   1.525   4.130 -0.7830  0.1994 -0.3847
  142MOL   H13325795   5.537   1.340   4.043 -2.0009 -2.4047  1.1549
  142MOL   H13425796   5.775   1.254   4.081  0.6114  0.1855 -0.6524
  142MOL   H13525797   5.757   1.418   3.998 -1.7848  1.4600  0.0212
  142MOL   H13625798   5.799   1.406   4.169  1.6400  0.1166 -1.2988
  142MOL   C13725799   5.358   1.649   4.175  0.7956  0.0546  0.0636
  142MOL   C13825800   5.209   1.644   4.186 -0.0151  0.1044  0.1561
  142MOL   C13925801   5.412   1.755   4.074 -0.7744 -0.2011 -0.3660
  142MOL   O14025802   5.445   1.714   3.962 -0.0909 -0.0403 -0.3435
  142MOL   O14125803   5.402   1.881   4.119 -0.0776 -0.3418  0.2901
  142MOL   H14225804   5.398   1.663   4.275 -0.3612  1.1135  0.3976
  142MOL   H14325805   5.180   1.577   4.267  0.4020 -1.6690 -1.1187
  142MOL   H14425806   5.162   1.740   4.207 -0.3518 -0.3118  1.3032
  142MOL   H14525807   5.162   1.600   4.098 -0.7235  1.0756  0.0459
  142MOL   C14625808   5.462   1.986   4.042 -0.5304 -0.1895  0.4226
  142MOL   C14725809   5.535   2.083   4.145  0.4844 -0.0016  0.1577
  142MOL   C14825810   5.353   2.059   3.956 -0.3727 -1.0834 -0.2046
  142MOL   O14925811   5.320   2.177   3.975  0.3855  0.4480  0.4123
  142MOL   O15025812   5.288   1.969   3.872  0.5050  0.2598  0.1435
  142MOL   H15125813   5.537   1.952   3.971 -1.0089  0.4828 -0.4030
  142MOL   H15225814   5.523   2.188   4.120  2.9344 -0.5871 -4.1121
  142MOL   H15325815   5.499   2.066   4.246 -0.4690  0.4390 -0.1034
  142MOL   H15425816   5.643   2.073   4.162  0.7862  1.6781 -0.6564
  142MOL   C15525817   5.163   1.999   3.801 -0.0978 -0.0890 -0.1473
  142MOL   C15625818   5.042   2.022   3.900 -0.3516 -0.6397 -1.4805
  142MOL   C15725819   5.133   1.874   3.707  0.4707 -1.1572 -0.2619
  142MOL   O15825820   5.116   1.892   3.586  0.6648  0.5278  0.3752
  142MOL   O15925821   5.130   1.751   3.767  0.6624  0.7358  0.4077
  142MOL   H16025822   5.178   2.091   3.744  0.1951  0.8230  1.3558
  142MOL   H16125823   5.060   2.096   3.978 -2.0455  0.9427 -2.5443
  142MOL   H16225824   4.960   2.065   3.843 -0.6845  2.9634  1.4861
  142MOL   H16325825   5.006   1.929   3.944 -0.8344 -0.0732 -0.6690
  142MOL   C16425826   5.119   1.612   3.722 -0.0240  0.0410 -0.3157
  142MOL   C16525827   5.267   1.552   3.719  1.0721  0.3358  0.1676
  142MOL   C16625828   5.038   1.589   3.592  0.0635  0.2994 -0.6546
  142MOL   O16725829   5.087   1.570   3.485 -0.3796 -0.2225  0.5367
  142MOL   O16825830   4.901   1.618   3.615  0.0869 -0.2204  0.0324
  142MOL   H16925831   5.057   1.559   3.795 -1.1572  0.8617 -0.6680
  142MOL   H17025832   5.267   1.446   3.696 -2.8422  0.1600  0.5600
  142MOL   H17125833   5.330   1.585   3.637 -0.3760  0.4690 -0.9226
  142MOL   H17225834   5.334   1.574   3.802  0.7101  1.9428  0.0488
  142MOL   C17325835   4.817   1.647   3.510  0.2611 -0.2178  0.2567
  142MOL   C17425836   4.743   1.773   3.550 -0.3984  0.3794  1.3028
  142MOL   C17525837   4.724   1.526   3.489  0.8101  0.1270  0.1344
  142MOL   O17625838   4.603   1.541   3.478  0.1731 -0.3275  0.2146
  142MOL   O17725839   4.792   1.407   3.490 -0.1025 -0.5237  0.1172
  142MOL   H17825840   4.863   1.667   3.413  0.3237  1.5791  0.6350
  142MOL   H17925841   4.806   1.857   3.580  1.5435 -0.3729 -0.5067
  142MOL   H18025842   4.687   1.798   3.459  0.6795  1.0281  0.8061
  142MOL   H18125843   4.678   1.746   3.633 -0.8836  0.2943  0.8984
  142MOL   H18225844   4.886   1.408   3.496 -0.0356 -0.8309 -0.8455
  143MOL     C125845   6.099   2.718   1.560 -0.4027 -0.1579  0.3743
  143MOL     C225846   6.152   2.727   1.709  0.4654  0.3561 -0.0531
  143MOL     C325847   6.167   2.611   1.473  0.4722 -0.5548 -0.1134
  143MOL     O425848   6.259   2.541   1.514  0.0732 -0.2185 -0.2454
  143MOL     O525849   6.117   2.611   1.352  0.2568  0.3541  0.2623
  143MOL     H625850   5.992   2.701   1.562 -0.6393  1.3028  0.8133
  143MOL     H725851   6.151   2.629   1.756  1.0193 -0.9342 -2.6213
  143MOL     H825852   6.248   2.775   1.727 -0.0058  1.6606 -0.9344
  143MOL     H925853   6.086   2.801   1.753  1.2677  1.2029 -0.2678
  143MOL    H1025854   6.120   2.815   1.515  0.4724 -0.7354 -0.4981
  143MOL    C1125855   6.151   2.509   1.261  0.3373 -0.1232  0.3910
  143MOL    C1225856   6.156   2.570   1.126 -0.6625  0.2036 -0.0136
  143MOL    C1325857   6.046   2.399   1.273  0.1009 -0.2064 -0.3293
  143MOL    O1425858   6.086   2.284   1.293 -0.1489  0.1401  0.0523
  143MOL    O1525859   5.916   2.453   1.264 -0.6101 -0.2238 -0.1926
  143MOL    H1625860   6.247   2.470   1.296  0.6761  1.3821  1.1488
  143MOL    H1725861   6.230   2.649   1.121  1.3057 -1.6257 -0.3471
  143MOL    H1825862   6.166   2.499   1.043  0.9507 -0.6032  0.8523
  143MOL    H1925863   6.056   2.607   1.103 -0.2523  0.4291 -1.4911
  143MOL    C2025864   5.801   2.377   1.265  0.0095  0.7470  0.1227
  143MOL    C2125865   5.787   2.325   1.410 -0.1854  0.4872  0.5640
  143MOL    C2225866   5.790   2.270   1.154 -0.5864  0.2878  0.6567
  143MOL    O2325867   5.785   2.146   1.172 -0.2463  0.3053 -0.7217
  143MOL    O2425868   5.779   2.321   1.026  0.2208  0.7567  0.2283
  143MOL    H2525869   5.733   2.457   1.237 -0.6570  1.7612  4.3237
  143MOL    H2625870   5.876   2.285   1.458 -0.4122 -0.8795 -0.1219
  143MOL    H2725871   5.752   2.414   1.462 -0.5909  0.6996 -0.0620
  143MOL    H2825872   5.711   2.248   1.420 -0.2179  0.4613  0.1146
  143MOL    C2925873   5.800   2.240   0.911  0.3823  0.1690 -0.0869
  143MOL    C3025874   5.879   2.312   0.802 -0.8355  1.0739 -0.0008
  143MOL    C3125875   5.663   2.192   0.851  0.2739 -0.2717  0.5079
  143MOL    O3225876   5.645   2.072   0.823 -0.1070  0.2323 -0.1101
  143MOL    O3325877   5.592   2.299   0.811  0.1014 -0.7244 -0.4183
  143MOL    H3425878   5.858   2.150   0.932  1.1354  0.8397  0.7479
  143MOL    H3525879   5.831   2.392   0.746 -2.6239 -0.5565 -0.8194
  143MOL    H3625880   5.965   2.372   0.834 -0.8031  0.9796  0.0919
  143MOL    H3725881   5.918   2.254   0.719 -0.0495  0.0083  1.1047
  143MOL    C3825882   5.469   2.280   0.755 -0.3328  0.6971 -0.1683
  143MOL    C3925883   5.467   2.393   0.649  0.0986 -0.3125  0.8034
  143MOL    C4025884   5.349   2.290   0.858 -0.4947  0.3587 -0.0030
  143MOL    O4125885   5.365   2.325   0.974 -0.4274 -0.5912  0.2801
  143MOL    O4225886   5.230   2.264   0.798 -0.0469  0.3324  0.3486
  143MOL    H4325887   5.460   2.191   0.694 -2.5147 -0.5078  1.8213
  143MOL    H4425888   5.555   2.393   0.586 -0.0247 -0.6624  0.6278
  143MOL    H4525889   5.387   2.373   0.577  1.4251  0.6386 -0.9636
  143MOL    H4625890   5.444   2.495   0.681  1.0200  0.1934 -0.1195
  143MOL    C4725891   5.108   2.279   0.865 -0.1642  0.6670 -0.3119
  143MOL    C4825892   4.999   2.228   0.772 -0.2926 -0.1865 -0.4212
  143MOL    C4925893   5.087   2.426   0.911 -0.1094 -0.5590  0.7025
  143MOL    O5025894   5.063   2.449   1.028  0.4366  0.0582  0.0077
  143MOL    O5125895   5.071   2.509   0.805 -0.3815  0.7767 -0.4625
  143MOL    H5225896   5.118   2.207   0.946 -0.2596  1.0698  0.0548
  143MOL    H5325897   4.899   2.255   0.805  0.2246  0.9620  0.2223
  143MOL    H5425898   5.012   2.274   0.674 -1.7051 -1.4722 -1.2420
  143MOL    H5525899   5.001   2.121   0.750 -2.0554 -0.4418  0.5480
  143MOL    C5625900   5.054   2.650   0.808 -0.2090  0.2210 -0.4194
  143MOL    C5725901   4.995   2.711   0.681  0.2243  0.0858 -0.5176
  143MOL    C5825902   5.186   2.713   0.858 -0.4623 -0.2090  0.6772
  143MOL    O5925903   5.270   2.641   0.902  0.4449  0.6076  0.1647
  143MOL    O6025904   5.205   2.841   0.834  0.3673 -0.2397 -0.0925
  143MOL    H6125905   4.985   2.679   0.887  0.6853  2.3437 -0.3850
  143MOL    H6225906   4.887   2.709   0.696  0.4426 -1.2399  0.9544
  143MOL    H6325907   5.039   2.804   0.643  0.5334 -0.1929 -0.8447
  143MOL    H6425908   5.015   2.638   0.603  1.0744 -0.8829  0.5847
  143MOL    C6525909   5.333   2.900   0.847  0.3621  0.3312  0.2012
  143MOL    C6625910   5.294   3.049   0.848 -0.9014 -0.4304 -0.3989
  143MOL    C6725911   5.423   2.862   0.729  0.7359  0.2944 -0.1702
  143MOL    O6825912   5.392   2.761   0.669  0.7016  0.1422 -0.5009
  143MOL    O6925913   5.535   2.939   0.714  0.2288 -0.1981 -0.0772
  143MOL    H7025914   5.389   2.872   0.937  1.1032 -0.8920 -0.6178
  143MOL    H7125915   5.242   3.082   0.938 -2.5436 -2.2858 -0.6485
  143MOL    H7225916   5.388   3.105   0.840  1.0421 -3.5125 -0.0076
  143MOL    H7325917   5.230   3.070   0.762  1.0535  0.2674 -1.7184
  143MOL    C7425918   5.626   2.924   0.607 -0.3035  0.5985  0.0684
  143MOL    C7525919   5.749   3.022   0.620  0.3542  0.2465 -0.3193
  143MOL    C7625920   5.565   2.918   0.465  0.1330  0.1549 -0.7794
  143MOL    O7725921   5.598   2.833   0.381  0.2027  0.1285 -0.1488
  143MOL    O7825922   5.466   3.010   0.450 -0.0347 -0.4280  0.3039
  143MOL    H7925923   5.651   2.819   0.625 -0.4210  0.4684 -0.5060
  143MOL    H8025924   5.726   3.128   0.626 -1.8536 -0.0178 -3.2607
  143MOL    H8125925   5.799   3.003   0.716 -1.7352 -0.5157  0.6379
  143MOL    H8225926   5.819   3.010   0.537  0.1207  0.5307 -0.5578
  143MOL    C8325927   5.385   3.004   0.334 -0.1770 -0.1121 -0.0708
  143MOL    C8425928   5.390   3.132   0.253  0.1978  0.2015 -0.1207
  143MOL    C8525929   5.243   2.968   0.380  0.2502 -1.3485 -0.3213
  143MOL    O8625930   5.211   2.983   0.501 -0.4506 -0.0099  0.5321
  143MOL    O8725931   5.172   2.924   0.274 -0.0877 -0.3314  0.4215
  143MOL    H8825932   5.430   2.934   0.263  1.1500  1.4451 -0.8051
  143MOL    H8925933   5.491   3.170   0.242  0.1380  0.6053  0.6702
  143MOL    H9025934   5.341   3.114   0.158  1.6701  2.2923 -1.3213
  143MOL    H9125935   5.334   3.207   0.311  1.6668  2.2037 -1.2373
  143MOL    C9225936   5.028   2.929   0.270  0.3924  0.1165  0.7050
  143MOL    C9325937   4.984   2.786   0.245 -0.0238  0.2253 -0.1687
  143MOL    C9425938   4.967   3.012   0.157 -0.1932  0.7977  0.3334
  143MOL    O9525939   4.908   2.969   0.053  0.0401 -0.0786 -0.3639
  143MOL    O9625940   4.994   3.146   0.178  0.7725 -0.0433 -0.2285
  143MOL    H9725941   4.992   2.960   0.368  1.7278  1.5240  0.7652
  143MOL    H9825942   4.876   2.778   0.260  0.1885 -0.5340  1.0174
  143MOL    H9925943   5.004   2.761   0.141  2.9723  0.1685  0.3603
  143MOL   H10025944   5.024   2.712   0.315 -1.8327 -1.6311 -1.0498
  143MOL   C10125945   4.923   3.250   0.112 -0.0849  0.3054 -0.0047
  143MOL   C10225946   4.988   3.386   0.132  0.8241 -0.1702 -0.4943
  143MOL   C10325947   4.773   3.258   0.161 -1.0349 -0.1015  0.3274
  143MOL   O10425948   4.683   3.293   0.087 -0.2927 -0.5578 -0.2720
  143MOL   O10525949   4.759   3.245   0.291  0.0476 -0.0138  0.0398
  143MOL   H10625950   4.911   3.237   0.005 -0.2759 -0.6348  0.1285
  143MOL   H10725951   5.096   3.377   0.125  0.7965 -0.6907 -0.3007
  143MOL   H10825952   4.946   3.450   0.055  1.9029 -0.1103 -1.0419
  143MOL   H10925953   4.963   3.428   0.230  0.0542  0.4957 -0.9715
  143MOL   C11025954   4.628   3.238   0.352  0.5568 -0.4159 -0.5108
  143MOL   C11125955   4.566   3.368   0.407 -0.2601  0.4014  0.0166
  143MOL   C11225956   4.624   3.117   0.448  0.0946 -0.2120 -0.0239
  143MOL   O11325957   4.724   3.065   0.488 -0.3806 -0.0008  0.4945
  143MOL   O11425958   4.494   3.081   0.478 -0.0779 -0.0706 -0.7407
  143MOL   H11525959   4.560   3.206   0.272 -1.7385  0.0911  1.1834
  143MOL   H11625960   4.583   3.442   0.330 -0.4859 -0.6234 -1.0329
  143MOL   H11725961   4.461   3.347   0.428  0.1334 -2.0860 -0.3414
  143MOL   H11825962   4.615   3.404   0.498 -1.0746  2.3868 -0.3151
  143MOL   C11925963   4.470   2.966   0.562 -0.2809 -0.3855 -0.2239
  143MOL   C12025964   4.321   2.939   0.579  0.3529  0.1986 -0.4560
  143MOL   C12125965   4.530   2.974   0.702 -0.3651  0.4764  0.9178
  143MOL   O12225966   4.579   2.872   0.753 -0.3638  0.1928  0.0198
  143MOL   O12325967   4.523   3.101   0.759  0.7373 -0.1627 -0.0241
  143MOL   H12425968   4.512   2.880   0.511  0.0047  0.0975 -0.8078
  143MOL   H12525969   4.292   2.853   0.639 -1.6191 -0.3651 -2.1615
  143MOL   H12625970   4.272   3.026   0.623  0.4412  0.4139 -0.7832
  143MOL   H12725971   4.291   2.923   0.475 -1.2858 -0.7565  0.1428
  143MOL   C12825972   4.594   3.139   0.882  0.5321 -0.2041  0.4658
  143MOL   C12925973   4.528   3.268   0.928  0.2166 -0.4146 -0.7278
  143MOL   C13025974   4.746   3.151   0.858 -0.3264 -0.4807  0.0053
  143MOL   O13125975   4.803   3.198   0.761 -0.7079  0.5303  0.3382
  143MOL   O13225976   4.808   3.111   0.975  0.1562  0.8009 -0.2203
  143MOL   H13325977   4.568   3.062   0.954 -0.8728 -0.7984 -0.6437
  143MOL   H13425978   4.596   3.330   0.987 -1.5910  2.3488 -1.4840
  143MOL   H13525979   4.504   3.329   0.841  1.1611  0.9277 -0.0647
  143MOL   H13625980   4.434   3.266   0.982  0.3228  0.0550 -0.5273
  143MOL   C13725981   4.950   3.112   0.996  0.7646 -0.1969 -0.1471
  143MOL   C13825982   4.996   2.985   1.057  0.4550 -0.1515 -0.1029
  143MOL   C13925983   4.988   3.230   1.085 -0.2096  0.3990  0.0061
  143MOL   O14025984   4.901   3.295   1.141  0.2103  0.1210  0.0188
  143MOL   O14125985   5.121   3.245   1.105  0.2755 -0.3175 -0.0658
  143MOL   H14225986   5.006   3.140   0.907  0.7587 -1.1808 -0.4647
  143MOL   H14325987   4.934   2.969   1.145  0.4486  1.5495  0.2289
  143MOL   H14425988   4.980   2.902   0.989  2.0854 -1.4542  1.0736
  143MOL   H14525989   5.099   2.988   1.095  0.2445  2.3160  0.4044
  143MOL   C14625990   5.176   3.335   1.200  0.6148  0.3645 -0.1320
  143MOL   C14725991   5.184   3.476   1.132 -0.0077 -0.0577  0.8543
  143MOL   C14825992   5.306   3.285   1.249  0.0731 -0.9551  0.4020
  143MOL   O14925993   5.318   3.266   1.371  0.0791  0.0191  0.4272
  143MOL   O15025994   5.402   3.273   1.156  0.0851  0.2174 -0.5805
  143MOL   H15125995   5.111   3.339   1.287  2.0621 -1.4777  1.0529
  143MOL   H15225996   5.154   3.466   1.028 -2.3577 -0.7760  1.5700
  143MOL   H15325997   5.116   3.546   1.179 -2.7059 -1.7957 -0.3409
  143MOL   H15425998   5.286   3.514   1.144  0.4672 -0.2828 -2.1774
  143MOL   C15525999   5.523   3.206   1.192  0.2950 -0.7686  0.3209
  143MOL   C15626000   5.612   3.227   1.071  0.3114  0.1700  0.0038
  143MOL   C15726001   5.502   3.054   1.218 -0.8392  0.3953  0.3892
  143MOL   O15826002   5.419   2.987   1.155 -0.3407  0.3591 -0.3770
  143MOL   O15926003   5.591   3.016   1.303 -0.2056  0.1768 -0.2104
  143MOL   H16026004   5.553   3.247   1.289  0.4367 -0.1929  0.0356
  143MOL   H16126005   5.662   3.140   1.027  0.0551 -0.2917  0.6238
  143MOL   H16226006   5.557   3.272   0.988 -0.5666 -2.2115 -0.7788
  143MOL   H16326007   5.688   3.303   1.087 -0.4852  0.7588  0.9462
  143MOL   C16426008   5.591   2.879   1.353 -0.9695  0.1709 -0.3216
  143MOL   C16526009   5.622   2.882   1.500  0.3325 -0.1826  0.3289
  143MOL   C16626010   5.682   2.788   1.270  0.1005 -0.1298 -0.0765
  143MOL   O16726011   5.768   2.727   1.328  0.1561  0.5507  0.4968
  143MOL   O16826012   5.658   2.788   1.145 -0.1189 -0.0642 -0.2984
  143MOL   H16926013   5.492   2.835   1.342 -2.2267  2.6179  0.8552
  143MOL   H17026014   5.549   2.939   1.557  1.2023  2.6637 -1.2922
  143MOL   H17126015   5.627   2.783   1.546  1.3670  0.7517  2.2898
  143MOL   H17226016   5.720   2.928   1.512  0.3417 -0.2912  0.6739
  143MOL   C17326017   5.725   2.700   1.048 -0.0045  0.3123  0.2659
  143MOL   C17426018   5.830   2.785   0.965  0.1425 -0.3755  0.0371
  143MOL   C17526019   5.618   2.645   0.960  0.2009  0.9199  0.4728
  143MOL   O17626020   5.622   2.647   0.833  0.0733 -0.5534  0.0815
  143MOL   O17726021   5.511   2.600   1.032  0.4258  0.4242  0.1339
  143MOL   H17826022   5.775   2.614   1.093  1.0890  0.8626  0.1058
  143MOL   H17926023   5.910   2.813   1.033 -0.8368 -2.4286  2.0790
  143MOL   H18026024   5.873   2.724   0.885 -1.0539 -0.3551 -0.6432
  143MOL   H18126025   5.783   2.872   0.919 -1.5264 -0.9556  0.6186
  143MOL   H18226026   5.426   2.606   0.990  0.3270  3.0473  0.6279
  144MOL     C126027   5.586   6.869   6.912  1.2111  0.3792 -0.6507
  144MOL     C226028   5.578   7.017   6.916  0.1057  0.1673  0.0417
  144MOL     C326029   5.463   6.817   6.980 -0.1522  0.3869  0.8555
  144MOL     O426030   5.379   6.757   6.913 -0.2971 -0.0396  0.1507
  144MOL     O526031   5.469   6.830   7.117 -0.1007  0.2046  0.0875
  144MOL     H626032   5.591   6.836   6.809  1.6429  0.6016 -0.6991
  144MOL     H726033   5.495   7.039   6.849  0.1468 -0.4837 -0.2306
  144MOL     H826034   5.561   7.058   7.015 -1.8684  4.0629 -1.8137
  144MOL     H926035   5.657   7.072   6.865 -0.9488  1.5503 -0.1085
  144MOL    H1026036   5.680   6.835   6.956  1.2183  2.4592  1.0620
  144MOL    C1126037   5.374   6.766   7.202 -0.3444  0.8400  0.2743
  144MOL    C1226038   5.356   6.843   7.335  0.2531 -0.1670 -0.2066
  144MOL    C1326039   5.415   6.619   7.228  0.0716  0.0800 -0.3476
  144MOL    O1426040   5.345   6.529   7.188  0.2320  0.0728 -0.7533
  144MOL    O1526041   5.530   6.609   7.292  0.1180 -0.4113  0.0527
  144MOL    H1626042   5.278   6.776   7.152 -0.4445  0.9200  0.4827
  144MOL    H1726043   5.330   6.949   7.327  1.1744  0.1299  0.5316
  144MOL    H1826044   5.277   6.805   7.399 -2.1123 -0.3897 -3.1443
  144MOL    H1926045   5.451   6.846   7.389 -0.6314  1.0988  1.3277
  144MOL    C2026046   5.579   6.483   7.330 -0.0052  0.2517 -0.2953
  144MOL    C2126047   5.668   6.506   7.447 -0.0398 -0.8691  0.6772
  144MOL    C2226048   5.655   6.429   7.207 -0.4968  0.1471  0.5512
  144MOL    O2326049   5.657   6.312   7.176  0.5125  0.4286 -0.1876
  144MOL    O2426050   5.732   6.523   7.142 -0.2133  0.8365  0.6629
  144MOL    H2526051   5.494   6.423   7.362  0.7748  0.4336  2.2885
  144MOL    H2626052   5.768   6.543   7.428 -0.2722 -0.2662  0.6192
  144MOL    H2726053   5.619   6.584   7.505 -3.0457 -0.4925 -2.2359
  144MOL    H2826054   5.682   6.418   7.510  2.5393 -2.1905 -1.6677
  144MOL    C2926055   5.806   6.495   7.026  0.5461  0.3355 -0.5288
  144MOL    C3026056   5.935   6.568   7.038 -0.4273  0.0871  0.2368
  144MOL    C3126057   5.730   6.541   6.902  0.3474 -0.7928  0.3860
  144MOL    O3226058   5.777   6.628   6.826  0.7224 -0.6132 -0.6385
  144MOL    O3326059   5.616   6.478   6.880 -0.6909 -0.0368 -0.3275
  144MOL    H3426060   5.835   6.390   7.028 -2.5805 -0.5682  2.4411
  144MOL    H3526061   6.006   6.551   6.957 -0.0821 -0.0757  0.5724
  144MOL    H3626062   5.927   6.675   7.059  1.5696  0.7250 -2.0308
  144MOL    H3726063   5.993   6.529   7.122  0.5347 -2.5449 -1.6094
  144MOL    C3826064   5.550   6.504   6.759 -0.6393 -0.6194  0.4672
  144MOL    C3926065   5.425   6.429   6.774 -0.5235 -0.0874 -0.2890
  144MOL    C4026066   5.622   6.440   6.641  0.2783 -0.2859  0.3944
  144MOL    O4126067   5.591   6.468   6.526 -0.0594  0.6896 -0.4153
  144MOL    O4226068   5.698   6.338   6.686  0.1096 -0.0676  0.1190
  144MOL    H4326069   5.537   6.610   6.737  0.0289 -0.5374  0.4597
  144MOL    H4426070   5.371   6.432   6.679 -0.4055 -2.5797 -0.4818
  144MOL    H4526071   5.450   6.326   6.801  0.2243  0.1474 -0.0917
  144MOL    H4626072   5.350   6.465   6.844 -0.6921  1.2540 -1.1528
  144MOL    C4726073   5.760   6.244   6.596  0.5646 -0.3755  0.3228
  144MOL    C4826074   5.668   6.124   6.588  0.0807 -0.4750 -0.5213
  144MOL    C4926075   5.890   6.190   6.656 -0.6466  0.3060 -0.0393
  144MOL    O5026076   5.982   6.150   6.584 -0.1447 -0.3422  0.0413
  144MOL    O5126077   5.896   6.188   6.788  0.4686  0.1967 -0.3511
  144MOL    H5226078   5.779   6.283   6.496 -1.3383 -2.9235 -1.0916
  144MOL    H5326079   5.600   6.113   6.672  1.5777 -2.6054  0.4473
  144MOL    H5426080   5.603   6.139   6.502  0.5190  2.4054 -0.4011
  144MOL    H5526081   5.725   6.033   6.565  0.1789 -0.7266  0.6938
  144MOL    C5626082   5.995   6.114   6.851 -0.2710 -0.8163 -0.3850
  144MOL    C5726083   5.925   6.041   6.960 -0.4977 -0.1665  0.3114
  144MOL    C5826084   6.109   6.208   6.910 -0.1275  1.0868  0.9842
  144MOL    O5926085   6.093   6.326   6.925 -0.2679 -0.0997  0.5956
  144MOL    O6026086   6.217   6.136   6.927  0.6638 -0.2236 -0.1485
  144MOL    H6126087   6.030   6.034   6.785 -0.9264  0.4760 -2.3614
  144MOL    H6226088   5.990   5.966   7.006 -0.8362 -0.8455 -0.2958
  144MOL    H6326089   5.882   6.106   7.036  1.1866  0.1029  1.0471
  144MOL    H6426090   5.843   5.980   6.921  0.2183 -1.3021  0.5470
  144MOL    C6526091   6.339   6.191   6.967  0.0668 -0.1631  0.5210
  144MOL    C6626092   6.342   6.226   7.117  0.0369 -0.1867 -0.4861
  144MOL    C6726093   6.393   6.300   6.876 -0.5079 -0.1090  0.2774
  144MOL    O6826094   6.411   6.413   6.912 -0.1505 -0.3797 -0.1076
  144MOL    O6926095   6.416   6.248   6.751 -0.0593 -0.1030  0.2461
  144MOL    H7026096   6.402   6.106   6.942  0.2806  0.1148  0.1180
  144MOL    H7126097   6.274   6.170   7.181  0.5598 -0.5594 -0.2573
  144MOL    H7226098   6.439   6.201   7.159  1.6322 -0.2196 -3.9928
  144MOL    H7326099   6.311   6.330   7.133  0.5610 -0.3770  1.9152
  144MOL    C7426100   6.472   6.326   6.642  0.1910 -0.2521 -0.7091
  144MOL    C7526101   6.615   6.373   6.688 -0.7209 -0.0732  0.0366
  144MOL    C7626102   6.375   6.440   6.601  0.2073 -0.6801  0.7203
  144MOL    O7726103   6.416   6.559   6.597 -0.6733  0.4410 -0.1717
  144MOL    O7826104   6.249   6.405   6.564 -0.0599 -0.1554  0.5126
  144MOL    H7926105   6.478   6.245   6.570  0.0542 -1.8649  1.0547
  144MOL    H8026106   6.680   6.300   6.734  0.6032  1.7235  1.1000
  144MOL    H8126107   6.671   6.421   6.608  1.1672 -0.5324  1.0716
  144MOL    H8226108   6.602   6.448   6.766  0.1519 -0.0001  0.1081
  144MOL    C8326109   6.158   6.504   6.517  0.2662  0.2521  0.2819
  144MOL    C8426110   6.055   6.541   6.636 -0.1081  0.1134 -0.3367
  144MOL    C8526111   6.079   6.442   6.397 -0.7474 -0.3406 -0.2162
  144MOL    O8626112   5.956   6.427   6.395 -0.3908  0.6593 -0.0296
  144MOL    O8726113   6.155   6.395   6.299  0.5010  0.6443 -0.0219
  144MOL    H8826114   6.206   6.597   6.486 -0.1765  0.8830  1.4632
  144MOL    H8926115   5.970   6.473   6.642 -1.1898  1.5059  0.6031
  144MOL    H9026116   6.105   6.559   6.731  0.0414 -1.7276 -0.0571
  144MOL    H9126117   6.015   6.636   6.599 -2.0715 -0.6432 -0.2398
  144MOL    C9226118   6.105   6.331   6.191  0.5247 -0.3974 -0.3806
  144MOL    C9326119   6.108   6.181   6.211 -0.1506 -0.2014 -0.1992
  144MOL    C9426120   6.171   6.380   6.060 -0.3261  0.4991 -0.1513
  144MOL    O9526121   6.272   6.449   6.050 -0.3792  0.2119 -0.2480
  144MOL    O9626122   6.101   6.336   5.957 -0.3992  0.0753  0.2331
  144MOL    H9726123   6.003   6.361   6.167  0.1881 -1.9966 -1.0763
  144MOL    H9826124   6.075   6.127   6.123 -1.2422 -3.6140  2.1934
  144MOL    H9926125   6.207   6.141   6.233 -0.9481 -2.6223 -0.8459
  144MOL   H10026126   6.046   6.154   6.297  1.7983 -1.1535  0.9590
  144MOL   C10126127   6.137   6.376   5.827 -0.3865 -0.3987  0.2219
  144MOL   C10226128   6.025   6.479   5.783 -0.0832 -0.7729  0.5770
  144MOL   C10326129   6.144   6.262   5.726 -0.6065  0.2460  0.0565
  144MOL   O10426130   6.133   6.148   5.755 -0.1550  0.2745  0.3493
  144MOL   O10526131   6.171   6.309   5.603  0.3079  0.3449 -0.5223
  144MOL   H10626132   6.235   6.425   5.820 -1.1186  1.0392 -0.1931
  144MOL   H10726133   6.033   6.572   5.839 -0.1315  0.1995 -1.0165
  144MOL   H10826134   6.030   6.506   5.678 -2.5419  0.5819  0.7800
  144MOL   H10926135   5.923   6.463   5.818 -0.9434  0.3598 -1.3578
  144MOL   C11026136   6.189   6.214   5.494 -0.0743  1.2678  0.5322
  144MOL   C11126137   6.285   6.283   5.391 -0.1573  0.1682  0.2116
  144MOL   C11226138   6.046   6.177   5.435  0.1534 -0.7150 -0.1560
  144MOL   O11326139   5.946   6.227   5.485 -0.3921 -0.4459  0.2331
  144MOL   O11426140   6.053   6.067   5.355  0.6210 -0.5114  0.0728
  144MOL   H11526141   6.230   6.120   5.533  1.5808  1.1211 -1.4890
  144MOL   H11626142   6.309   6.215   5.309  1.3257  0.3722  0.4564
  144MOL   H11726143   6.249   6.374   5.344 -3.1043 -1.3526 -0.5794
  144MOL   H11826144   6.376   6.317   5.442 -1.2281  2.9783  0.3343
  144MOL   C11926145   5.936   6.010   5.295 -0.4174  0.5584  0.5407
  144MOL   C12026146   5.968   5.866   5.248 -0.3840 -0.9003 -0.0673
  144MOL   C12126147   5.875   6.105   5.188 -0.6644 -0.4057  0.0196
  144MOL   O12226148   5.930   6.214   5.157  0.2378 -0.2354  0.4031
  144MOL   O12326149   5.760   6.051   5.133 -0.0441 -0.3791 -0.0411
  144MOL   H12426150   5.859   5.985   5.368 -0.1773  0.6205  0.8162
  144MOL   H12526151   6.053   5.869   5.179 -0.5184  2.9162 -0.2090
  144MOL   H12626152   5.987   5.797   5.330 -2.6428 -1.4576  0.0142
  144MOL   H12726153   5.884   5.829   5.189 -1.2054 -0.4430  0.8148
  144MOL   C12826154   5.690   6.115   5.025 -0.4154  0.2402  0.0888
  144MOL   C12926155   5.541   6.065   5.041 -0.0822 -0.6473 -0.0833
  144MOL   C13026156   5.752   6.055   4.905  0.1749 -0.8824  0.6735
  144MOL   O13126157   5.846   5.975   4.914 -0.0988  0.0966 -0.2217
  144MOL   O13226158   5.701   6.103   4.786  0.1188 -0.5220  0.4168
  144MOL   H13326159   5.688   6.224   5.019  0.4121  0.3736  2.0186
  144MOL   H13426160   5.470   6.134   4.994  0.5356  0.7343  0.9551
  144MOL   H13526161   5.528   5.964   5.002  1.7286 -0.5031 -1.1535
  144MOL   H13626162   5.518   6.075   5.146 -0.5463  1.0655 -0.3325
  144MOL   C13726163   5.736   6.048   4.659 -0.0760  0.1103 -0.3366
  144MOL   C13826164   5.686   6.148   4.555  0.0383 -0.2466 -0.3196
  144MOL   C13926165   5.678   5.914   4.631  0.0025  0.3030 -0.4997
  144MOL   O14026166   5.614   5.845   4.715  0.0072  0.3311  0.0803
  144MOL   O14126167   5.692   5.878   4.502  0.3127  0.3116 -0.2371
  144MOL   H14226168   5.844   6.043   4.645 -0.1364  0.1935 -0.8409
  144MOL   H14326169   5.578   6.156   4.567 -0.1394 -0.1656 -1.8646
  144MOL   H14426170   5.738   6.243   4.564 -2.0692  1.2636 -3.1458
  144MOL   H14526171   5.719   6.121   4.454  2.3641  0.1416  0.3144
  144MOL   C14626172   5.618   5.770   4.443  1.0201 -0.3539  0.8715
  144MOL   C14726173   5.688   5.741   4.310 -0.2158  0.1429 -0.0958
  144MOL   C14826174   5.465   5.803   4.439  0.1212 -0.0987 -0.4001
  144MOL   O14926175   5.411   5.912   4.472 -0.0791  0.3629  0.3869
  144MOL   O15026176   5.398   5.691   4.394  0.4136 -0.1502  0.1382
  144MOL   H15126177   5.630   5.678   4.501 -0.4887 -0.1937  1.4778
  144MOL   H15226178   5.742   5.820   4.258  1.1181  1.0421  2.5643
  144MOL   H15326179   5.761   5.663   4.330 -0.6787 -0.2309  0.1469
  144MOL   H15426180   5.626   5.686   4.239  1.6951 -1.0551 -0.8533
  144MOL   C15526181   5.258   5.687   4.383  0.0601  0.9663  0.0932
  144MOL   C15626182   5.212   5.542   4.350  0.6580 -0.3886 -0.3289
  144MOL   C15726183   5.204   5.787   4.279 -0.1125  0.7832 -0.1488
  144MOL   O15826184   5.098   5.846   4.302 -0.0862  0.4432 -0.3608
  144MOL   O15926185   5.278   5.794   4.175  0.0171  0.3344  0.1197
  144MOL   H16026186   5.209   5.693   4.480 -0.5793  2.1466 -0.2981
  144MOL   H16126187   5.108   5.558   4.324  0.3582  2.3244  2.1895
  144MOL   H16226188   5.253   5.498   4.259  0.2247  0.8542 -1.1464
  144MOL   H16326189   5.234   5.489   4.443 -0.0592  0.0085  0.0664
  144MOL   C16426190   5.241   5.898   4.075 -0.7128 -0.1055 -0.3980
  144MOL   C16526191   5.181   5.820   3.962  0.2254  0.1555 -0.0032
  144MOL   C16626192   5.368   5.978   4.040 -0.7165 -0.1523  0.1511
  144MOL   O16726193   5.432   5.967   3.938  0.3507  0.2838  0.4984
  144MOL   O16826194   5.406   6.062   4.143 -0.1640 -0.0106  0.5721
  144MOL   H16926195   5.163   5.962   4.117  0.5244  0.3122  1.2762
  144MOL   H17026196   5.153   5.893   3.886 -1.4451 -0.0183  0.4258
  144MOL   H17126197   5.261   5.755   3.927 -2.1478 -3.2143  0.5913
  144MOL   H17226198   5.095   5.758   3.987 -2.1679  2.9654 -0.8916
  144MOL   C17326199   5.513   6.148   4.141 -0.0933  0.3049  0.2681
  144MOL   C17426200   5.629   6.080   4.212 -0.4912 -0.2572 -0.0180
  144MOL   C17526201   5.468   6.275   4.212  0.0710 -0.0941  0.4001
  144MOL   O17626202   5.515   6.317   4.317  0.1173 -0.0330 -0.5112
  144MOL   O17726203   5.360   6.331   4.155 -0.2070 -0.1767  0.3531
  144MOL   H17826204   5.533   6.166   4.035 -0.5221  0.6507  0.2441
  144MOL   H17926205   5.726   6.131   4.210  0.1469 -1.4833 -0.7542
  144MOL   H18026206   5.596   6.051   4.312  1.0982 -0.8206  0.3570
  144MOL   H18126207   5.656   5.989   4.158  1.2239  0.9472 -1.2415
  144MOL   H18226208   5.339   6.399   4.217 -1.3477 -0.0379 -0.1844
  145MOL     C126209   2.185   2.927   1.023  0.5275  0.2491  0.1280
  145MOL     C226210   2.249   2.832   0.923 -0.0811 -0.7073 -0.0250
  145MOL     C326211   2.273   2.940   1.147 -0.5323 -0.1952  0.2665
  145MOL     O426212   2.253   2.885   1.251  0.3656 -0.1774 -0.6157
  145MOL     O526213   2.369   3.023   1.124 -0.6163  0.0927  0.3518
  145MOL     H626214   2.166   3.022   0.973 -1.3076 -0.6361 -0.8750
  145MOL     H726215   2.325   2.880   0.862 -2.4669  1.3510 -1.4787
  145MOL     H826216   2.289   2.751   0.984 -0.5052  0.8832  2.4644
  145MOL     H926217   2.170   2.804   0.852  0.8317  0.3134 -1.4540
  145MOL    H1026218   2.089   2.886   1.054  0.3360  0.5433 -0.0750
  145MOL    C1126219   2.470   3.055   1.225  0.1232 -0.3976 -1.2629
  145MOL    C1226220   2.544   3.190   1.195 -0.4662  0.4715 -0.0487
  145MOL    C1326221   2.575   2.935   1.227 -0.2366  0.6968  0.5164
  145MOL    O1426222   2.593   2.866   1.326 -0.5376  0.0620 -0.2836
  145MOL    O1526223   2.629   2.919   1.103  0.1000  0.2541  0.0547
  145MOL    H1626224   2.436   3.061   1.328  2.5555 -0.2567 -0.4215
  145MOL    H1726225   2.602   3.222   1.281  0.9360 -0.2280 -0.7129
  145MOL    H1826226   2.609   3.166   1.111  2.1604  1.9257  1.5275
  145MOL    H1926227   2.475   3.268   1.164 -1.2318 -0.7107 -1.4134
  145MOL    C2026228   2.718   2.814   1.082 -0.1654 -0.4080  0.0599
  145MOL    C2126229   2.860   2.867   1.115 -0.4052 -0.8787  0.2906
  145MOL    C2226230   2.719   2.785   0.934 -0.1608  0.2250 -0.4106
  145MOL    O2326231   2.632   2.828   0.858 -0.2191 -0.6046  0.4124
  145MOL    O2426232   2.823   2.711   0.893 -0.4724  0.7669  0.0709
  145MOL    H2526233   2.684   2.723   1.133  0.8144 -0.2244  1.0681
  145MOL    H2626234   2.941   2.794   1.121  1.3231  0.9661  0.0868
  145MOL    H2726235   2.897   2.946   1.049  1.1454 -0.2790  1.8435
  145MOL    H2826236   2.864   2.920   1.210  1.2125  0.0282 -0.2592
  145MOL    C2926237   2.855   2.700   0.755  0.4190  0.6612  0.4269
  145MOL    C3026238   2.857   2.543   0.726  0.6626  0.1824  0.1549
  145MOL    C3126239   2.985   2.768   0.740  0.5926  0.0028 -0.5774
  145MOL    O3226240   3.030   2.848   0.822 -0.0941 -0.5440 -0.3062
  145MOL    O3326241   3.043   2.729   0.625 -0.0518  0.5478  0.7759
  145MOL    H3426242   2.775   2.733   0.689  0.6407  0.3369 -0.0104
  145MOL    H3526243   2.761   2.494   0.741  0.3630  0.5595 -0.5271
  145MOL    H3626244   2.884   2.525   0.622  0.5865 -0.8493  0.3081
  145MOL    H3726245   2.931   2.498   0.793  1.4302  0.0975 -0.7514
  145MOL    C3826246   3.159   2.782   0.575  0.4861  0.1628 -0.0765
  145MOL    C3926247   3.168   2.781   0.421  0.2516  0.3235  0.4290
  145MOL    C4026248   3.286   2.728   0.643  0.3207 -0.0446  0.1044
  145MOL    O4126249   3.288   2.631   0.718 -0.2593 -0.1770  0.4101
  145MOL    O4226250   3.398   2.790   0.591 -0.3992  0.3281  0.0274
  145MOL    H4326251   3.147   2.887   0.603 -0.1782  0.3659 -1.1289
  145MOL    H4426252   3.162   2.681   0.378 -1.6627  0.3825  0.5190
  145MOL    H4526253   3.082   2.828   0.375  0.2044 -0.6114 -0.4496
  145MOL    H4626254   3.254   2.845   0.397 -0.6461  2.0010  1.5724
  145MOL    C4726255   3.536   2.769   0.637 -0.3392  0.6493 -0.4388
  145MOL    C4826256   3.567   2.863   0.753 -0.1169  0.1629 -0.2634
  145MOL    C4926257   3.635   2.780   0.516  0.5675  0.0962  0.0867
  145MOL    O5026258   3.738   2.842   0.517 -0.8572 -0.7047  0.0960
  145MOL    O5126259   3.581   2.713   0.409 -0.5636  0.5023  0.1720
  145MOL    H5226260   3.550   2.667   0.673 -0.6319  1.5419  2.2990
  145MOL    H5326261   3.661   2.834   0.799 -0.3092 -0.3987 -0.2205
  145MOL    H5426262   3.568   2.968   0.725  0.7181 -0.5280 -2.9889
  145MOL    H5526263   3.498   2.857   0.837 -1.5304  0.3168 -1.3850
  145MOL    C5626264   3.652   2.702   0.284  0.5472 -0.4930 -0.0155
  145MOL    C5726265   3.541   2.684   0.174  0.1236 -0.4514  0.0940
  145MOL    C5826266   3.751   2.585   0.292  0.3064 -0.0209  0.4810
  145MOL    O5926267   3.764   2.519   0.396  0.1247  0.7076 -0.3179
  145MOL    O6026268   3.810   2.568   0.168  0.2704 -0.8196  0.1546
  145MOL    H6126269   3.712   2.791   0.269  2.1339 -1.4047  0.8370
  145MOL    H6226270   3.461   2.621   0.213 -0.4169 -1.0148 -1.8365
  145MOL    H6326271   3.501   2.784   0.154  0.8061 -0.3384 -0.7287
  145MOL    H6426272   3.575   2.643   0.078 -3.0344 -1.2080 -0.7573
  145MOL    C6526273   3.900   2.459   0.145  1.0201  0.1000  0.0053
  145MOL    C6626274   4.020   2.496   0.058 -0.1279  0.2450  0.3914
  145MOL    C6726275   3.826   2.337   0.090  0.4182 -0.5833  0.5034
  145MOL    O6826276   3.796   2.245   0.166  0.2703 -0.3018 -0.3282
  145MOL    O6926277   3.781   2.357   8.107  0.4271 -0.0763  0.4380
  145MOL    H7026278   3.940   2.431   0.243  0.5334 -2.6317 -0.5314
  145MOL    H7126279   4.070   2.586   0.093  2.8524 -1.2783  0.1840
  145MOL    H7226280   4.086   2.410   0.060 -0.5772 -0.2408 -2.6493
  145MOL    H7326281   3.989   2.512   8.102  4.0415 -2.4268 -1.3586
  145MOL    C7426282   3.723   2.251   8.026  0.0518  0.4594 -0.1223
  145MOL    C7526283   3.572   2.240   8.061 -0.5443  0.0208  0.6053
  145MOL    C7626284   3.797   2.112   8.041 -0.1531 -0.0948 -0.2160
  145MOL    O7726285   3.732   2.012   8.057 -0.5898 -0.1910 -0.1399
  145MOL    O7826286   3.935   2.126   8.029 -0.1611 -0.2380 -0.2915
  145MOL    H7926287   3.727   2.280   7.922  1.9049  0.4979 -0.0529
  145MOL    H8026288   3.534   2.161   7.997  0.9653  0.2272 -0.5846
  145MOL    H8126289   3.569   2.202   0.016 -0.4101 -0.0508  0.5840
  145MOL    H8226290   3.509   2.327   8.045  0.3873  0.4949 -0.5716
  145MOL    C8326291   4.024   2.009   8.013 -0.6152 -0.3367  0.5506
  145MOL    C8426292   4.162   2.065   7.975  0.2463  0.1115  0.8729
  145MOL    C8526293   3.972   1.924   7.901  0.4045  0.1841 -0.0749
  145MOL    O8626294   3.979   1.801   7.915 -0.4722  0.0997 -0.2184
  145MOL    O8726295   3.922   1.987   7.791  0.0031 -0.1180  0.4565
  145MOL    H8826296   4.033   1.952   8.106  1.0034 -1.4305 -0.2720
  145MOL    H8926297   4.226   1.979   7.957 -0.7516 -0.3240 -0.6323
  145MOL    H9026298   4.157   2.122   7.883 -0.3399 -1.9705 -0.4173
  145MOL    H9126299   4.209   2.140   8.038 -1.5683  1.2450  0.9160
  145MOL    C9226300   3.847   1.913   7.690  0.5444  0.6935  0.2078
  145MOL    C9326301   3.811   2.008   7.569  0.3018  0.4179 -0.3187
  145MOL    C9426302   3.714   1.860   7.753  0.4876 -0.8148  0.1665
  145MOL    O9526303   3.618   1.938   7.783  0.6336  0.0833  0.6933
  145MOL    O9626304   3.724   1.735   7.781  0.4504 -0.0925  0.0449
  145MOL    H9726305   3.902   1.829   7.647 -1.3246  0.1621 -1.2375
  145MOL    H9826306   3.901   2.035   7.514 -0.5329  1.1012 -1.3739
  145MOL    H9926307   3.736   1.964   7.503 -0.1751  0.0648  0.4517
  145MOL   H10026308   3.766   2.103   7.597  2.9622  1.6692 -0.1823
  145MOL   C10126309   3.620   1.660   7.852  1.0663 -0.9033  0.5475
  145MOL   C10226310   3.688   1.544   7.922 -0.0695 -0.0624 -0.3475
  145MOL   C10326311   3.523   1.599   7.753 -0.5315 -0.3602  0.1815
  145MOL   O10426312   3.561   1.533   7.661  0.1742  0.3240 -0.4683
  145MOL   O10526313   3.393   1.619   7.784  0.3985 -0.3534  0.3290
  145MOL   H10626314   3.570   1.730   7.919  0.1402  0.5952 -1.6281
  145MOL   H10726315   3.756   1.598   7.988 -0.6972 -0.8559  0.9715
  145MOL   H10826316   3.628   1.486   7.992  0.1242  1.1849  0.8664
  145MOL   H10926317   3.742   1.479   7.853 -0.2566 -0.7748  0.1669
  145MOL   C11026318   3.285   1.549   7.725 -0.4979  0.3990 -0.4221
  145MOL   C11126319   3.160   1.637   7.736 -0.0923 -1.0522  0.0165
  145MOL   C11226320   3.267   1.403   7.769 -0.2471 -0.3626 -0.1163
  145MOL   O11326321   3.353   1.354   7.841  0.2541 -0.5195  1.3646
  145MOL   O11426322   3.170   1.341   7.700  0.8758  0.2147  0.3318
  145MOL   H11526323   3.301   1.551   7.617  0.0034  1.8052 -0.3367
  145MOL   H11626324   3.083   1.624   7.659 -1.0359 -0.3739  0.8304
  145MOL   H11726325   3.117   1.632   7.836 -1.4254  2.4617 -0.2995
  145MOL   H11826326   3.193   1.740   7.726 -1.7735 -0.3785  1.0625
  145MOL   C11926327   3.122   1.213   7.737  0.4540  0.6219  0.5873
  145MOL   C12026328   3.037   1.157   7.614  0.2770 -0.5474  0.9495
  145MOL   C12126329   3.018   1.222   7.856  0.3118  0.3460 -0.3090
  145MOL   O12226330   2.956   1.327   7.870  0.7889  0.5168  0.1235
  145MOL   O12326331   2.983   1.104   7.907 -0.3400 -0.4079  0.3441
  145MOL   H12426332   3.198   1.145   7.774  1.8023  1.4908 -0.5103
  145MOL   H12526333   3.097   1.172   7.524 -0.6285 -1.0212  0.2599
  145MOL   H12626334   3.030   1.048   7.625 -0.3330 -0.4465  1.6234
  145MOL   H12726335   2.940   1.203   7.597  0.9908  0.3434 -0.8889
  145MOL   C12826336   2.870   1.088   7.997 -0.1015 -0.1852  0.0127
  145MOL   C12926337   2.895   0.948   8.074 -0.1564  0.0738  0.6882
  145MOL   C13026338   2.738   1.080   7.917  0.1872  0.2424 -0.0182
  145MOL   O13126339   2.731   1.066   7.792  0.3562  0.2171  0.3136
  145MOL   O13226340   2.634   1.079   7.998  0.5653  0.0742 -1.0715
  145MOL   H13326341   2.859   1.178   8.057 -0.6435 -0.7143  0.7282
  145MOL   H13426342   2.924   0.877   7.996 -1.3958 -0.3612  0.6089
  145MOL   H13526343   2.962   0.943   0.012 -0.9304  0.9367  1.3509
  145MOL   H13626344   2.792   0.930   8.106 -1.5420  3.6351 -1.4946
  145MOL   C13726345   2.498   1.061   7.945  0.5261 -0.7467 -0.2981
  145MOL   C13826346   2.395   1.116   8.048  0.7525 -0.2452 -0.1481
  145MOL   C13926347   2.471   0.910   7.913 -0.3234 -0.2900  0.0224
  145MOL   O14026348   2.397   0.883   7.824 -0.6194 -0.4232 -0.6145
  145MOL   O14126349   2.522   0.824   8.003 -0.0156 -0.0635  0.0695
  145MOL   H14226350   2.482   1.122   7.856 -1.3480  0.7165  0.9842
  145MOL   H14326351   2.414   1.216   8.086  0.5838 -0.3503  0.2203
  145MOL   H14426352   2.295   1.118   8.005  0.0729 -0.5630  1.3867
  145MOL   H14526353   2.383   1.050   8.134 -1.0618 -0.6990 -0.7209
  145MOL   C14626354   2.502   0.680   7.992  0.2110  1.0018  0.1225
  145MOL   C14726355   2.543   0.614   8.133  0.5797 -0.4380 -0.6661
  145MOL   C14826356   2.594   0.622   7.888  0.4451  0.5056  0.5077
  145MOL   O14926357   2.560   0.528   7.817  0.0207  0.5540  0.9442
  145MOL   O15026358   2.727   0.661   7.906  0.6153 -0.0629 -0.8830
  145MOL   H15126359   2.398   0.656   7.969  0.2337  1.3808 -0.3998
  145MOL   H15226360   2.649   0.632   0.007  1.1357 -1.5854 -2.3093
  145MOL   H15326361   2.489   0.652   0.072  0.1867 -2.7054  0.1022
  145MOL   H15426362   2.541   0.505   8.126  0.9347 -0.4872 -0.0058
  145MOL   C15526363   2.815   0.617   7.800  0.3813  0.3591  0.2525
  145MOL   C15626364   2.941   0.547   7.846  0.4034 -0.0610  0.4870
  145MOL   C15726365   2.843   0.739   7.709 -1.0479 -0.4966 -0.7765
  145MOL   O15826366   2.950   0.798   7.704 -0.5709  0.4902  0.6424
  145MOL   O15926367   2.739   0.763   7.633 -0.6682  0.0951  0.0543
  145MOL   H16026368   2.773   0.542   7.733 -2.5362  1.1865  1.1049
  145MOL   H16126369   2.924   0.486   7.935 -1.7196  1.0571  0.8857
  145MOL   H16226370   2.980   0.483   7.767 -3.9697 -2.8466  0.4119
  145MOL   H16326371   3.016   0.622   7.872 -0.0283  0.6129 -0.2009
  145MOL   C16426372   2.731   0.862   7.534  0.2724  0.0984  0.1114
  145MOL   C16526373   2.585   0.894   7.495 -0.0646  0.0075 -0.6921
  145MOL   C16626374   2.800   0.812   7.401 -0.2232 -0.4763 -0.2413
  145MOL   O16726375   2.799   0.696   7.365  0.0583  0.0597  0.4571
  145MOL   O16826376   2.861   0.917   7.340  0.0121 -0.0723  0.0267
  145MOL   H16926377   2.782   0.953   7.567  3.7630 -1.2801 -1.1827
  145MOL   H17026378   2.586   1.003   7.496  2.1276  0.0143 -0.6434
  145MOL   H17126379   2.563   0.857   7.395 -0.2808  1.9401 -1.3761
  145MOL   H17226380   2.530   0.856   7.581  1.0639 -1.3838 -0.5558
  145MOL   C17326381   2.936   0.905   7.222  0.4872 -0.6389 -0.5469
  145MOL   C17426382   3.062   0.977   7.258 -0.7402 -0.5100  0.1188
  145MOL   C17526383   2.842   0.948   7.105 -0.6062 -0.0658 -0.2708
  145MOL   O17626384   2.871   1.041   7.030 -0.0059 -0.4491 -0.9590
  145MOL   O17726385   2.731   0.875   7.106  0.1386  0.5295 -0.0647
  145MOL   H17826386   2.976   0.805   7.211  0.1501 -0.8366  0.0091
  145MOL   H17926387   3.053   1.081   7.229 -1.4892 -0.4558  0.5380
  145MOL   H18026388   3.079   0.972   7.366 -1.6366 -0.4580  0.2682
  145MOL   H18126389   3.148   0.925   7.215 -1.1818 -0.7298 -0.5083
  145MOL   H18226390   2.685   0.888   7.025  1.3869  2.7603 -0.4579
  146MOL     C126391   5.331   1.503   7.940 -0.3643 -0.7007  0.3554
  146MOL     C226392   5.247   1.601   7.864  0.1283  0.1425 -0.4408
  146MOL     C326393   5.451   1.454   7.861  0.2935 -0.7968 -0.0536
  146MOL     O426394   5.518   1.545   7.809  0.0756 -0.4705  0.5125
  146MOL     O526395   5.475   1.326   7.866 -0.4341  0.1336  0.5780
  146MOL     H626396   5.361   1.556   8.030 -0.7839  2.0532 -1.0686
  146MOL     H726397   5.311   1.680   7.823  1.4204 -1.6702 -2.0027
  146MOL     H826398   5.204   1.559   7.774 -0.8574  0.7300 -0.2434
  146MOL     H926399   5.167   1.651   7.918 -0.8546 -0.2353 -1.5465
  146MOL    H1026400   5.264   1.424   7.974 -0.6831 -0.5955 -0.0193
  146MOL    C1126401   5.597   1.259   7.818  0.3870 -0.1738 -0.6076
  146MOL    C1226402   5.719   1.283   7.914  0.2258  0.1965  0.4903
  146MOL    C1326403   5.621   1.286   7.667 -0.1742 -0.2734 -0.5984
  146MOL    O1426404   5.720   1.349   7.632  0.4326  0.1532 -0.7398
  146MOL    O1526405   5.520   1.241   7.585  0.2889  0.2575  0.5514
  146MOL    H1626406   5.571   1.154   7.820  1.4528 -0.4284  0.9469
  146MOL    H1726407   5.735   1.391   7.921 -1.1856  0.4116  0.5393
  146MOL    H1826408   5.703   1.250   8.017  1.1864  0.1197  0.6107
  146MOL    H1926409   5.809   1.243   7.868  0.7907 -0.4791  2.1219
  146MOL    C2026410   5.539   1.258   7.445  0.9697 -0.4196 -0.1260
  146MOL    C2126411   5.451   1.370   7.391 -0.0614  0.2659  0.2918
  146MOL    C2226412   5.542   1.129   7.368  0.3766 -0.3401  0.7865
  146MOL    O2326413   5.531   1.123   7.247 -0.5314 -0.0196 -0.1248
  146MOL    O2426414   5.561   1.020   7.448 -0.0367  0.6891  0.0831
  146MOL    H2526415   5.641   1.289   7.422  0.3394  0.9977 -1.0328
  146MOL    H2626416   5.481   1.396   7.289 -0.3856  0.8839  0.3473
  146MOL    H2726417   5.347   1.337   7.389  0.3136 -0.9523 -2.3568
  146MOL    H2826418   5.451   1.457   7.456  1.3818  1.8788 -1.7963
  146MOL    C2926419   5.585   0.886   7.392  0.2566  0.7094 -0.5694
  146MOL    C3026420   5.529   0.784   7.488  0.5915  0.4392 -0.0856
  146MOL    C3126421   5.737   0.871   7.382 -0.4885  0.5806 -0.0396
  146MOL    O3226422   5.793   0.853   7.274  0.0506 -0.7445 -0.6304
  146MOL    O3326423   5.792   0.894   7.503  0.2173 -0.5230 -0.4567
  146MOL    H3426424   5.540   0.874   7.293 -0.2277 -1.3982 -0.1045
  146MOL    H3526425   5.571   0.685   7.472  0.1711  0.5002 -1.6271
  146MOL    H3626426   5.554   0.810   7.591  0.4676 -0.3767  0.1529
  146MOL    H3726427   5.421   0.780   7.475  0.8952  0.2641 -2.8709
  146MOL    C3826428   5.920   0.942   7.532  0.3694 -0.1450 -0.1114
  146MOL    C3926429   5.908   0.946   7.681  0.0285 -0.6362 -0.4708
  146MOL    C4026430   5.947   1.085   7.479 -0.8466  0.3609 -0.6982
  146MOL    O4126431   5.863   1.149   7.422 -0.0222 -0.3668 -0.0645
  146MOL    O4226432   6.072   1.135   7.517  0.1390  0.3215  0.3880
  146MOL    H4326433   5.993   0.870   7.495 -0.0297 -0.7739  0.3060
  146MOL    H4426434   5.845   1.026   7.721  0.0047 -0.9874  0.1983
  146MOL    H4526435   5.876   0.849   7.719  2.7060 -1.9707 -1.5717
  146MOL    H4626436   6.004   0.966   7.728 -0.2314 -1.8523  0.6176
  146MOL    C4726437   6.093   1.272   7.532  0.0239 -0.5781 -0.5572
  146MOL    C4826438   6.239   1.314   7.528  0.3300 -0.4530 -0.0633
  146MOL    C4926439   6.038   1.330   7.660 -0.3642  0.6640  0.1770
  146MOL    O5026440   6.022   1.264   7.761  0.1550 -0.4295 -0.7373
  146MOL    O5126441   6.021   1.464   7.653  0.2497 -0.4824 -0.7152
  146MOL    H5226442   6.047   1.314   7.443 -0.0104  1.0071  0.1895
  146MOL    H5326443   6.255   1.420   7.547 -0.7497 -0.7025  2.4540
  146MOL    H5426444   6.304   1.256   7.594 -1.6008 -1.2330  1.1990
  146MOL    H5526445   6.274   1.289   7.428  0.5614  0.5620 -0.2451
  146MOL    C5626446   5.988   1.541   7.778  0.3481  0.6549  0.4393
  146MOL    C5726447   5.864   1.636   7.751  0.3250 -0.3117  0.6536
  146MOL    C5826448   6.101   1.624   7.831  0.2746 -0.4968 -0.5720
  146MOL    O5926449   6.146   1.604   7.943 -0.1099 -0.4837  0.0534
  146MOL    O6026450   6.139   1.726   7.753 -0.4375 -0.3070  0.1254
  146MOL    H6126451   5.945   1.480   7.857 -2.2437  0.4717 -1.0840
  146MOL    H6226452   5.777   1.580   7.719 -1.0469  2.3895 -0.5186
  146MOL    H6326453   5.829   1.693   7.837  3.9940  2.4545  0.4601
  146MOL    H6426454   5.880   1.709   7.671 -1.1633  2.7001  2.9924
  146MOL    C6526455   6.259   1.799   7.777 -0.6146 -0.6283 -0.0061
  146MOL    C6626456   6.240   1.940   7.724 -0.2652 -0.0054  0.5306
  146MOL    C6726457   6.377   1.742   7.702 -0.2585 -0.2074 -0.6008
  146MOL    O6826458   6.368   1.640   7.630  0.1332  0.3573  0.2384
  146MOL    O6926459   6.491   1.810   7.730  0.0656 -0.7579 -0.3081
  146MOL    H7026460   6.283   1.801   7.883  0.5756 -1.6947 -0.2521
  146MOL    H7126461   6.161   1.993   7.777 -0.1051  0.8283 -0.0443
  146MOL    H7226462   6.333   1.997   7.719  0.1202 -0.5828  1.1079
  146MOL    H7326463   6.204   1.926   7.622  0.3115  0.7519  0.2228
  146MOL    C7426464   6.616   1.777   7.672 -0.2353 -0.2471 -0.3567
  146MOL    C7526465   6.708   1.885   7.715 -0.5170 -0.5064 -0.0443
  146MOL    C7626466   6.601   1.786   7.516 -0.0425  0.4361  0.2817
  146MOL    O7726467   6.660   1.708   7.446  0.0482  0.3538 -0.1950
  146MOL    O7826468   6.537   1.893   7.477  0.0738  0.3316 -0.0778
  146MOL    H7926469   6.649   1.681   7.712 -2.3027 -0.9949 -0.3834
  146MOL    H8026470   6.806   1.888   7.667  0.5922 -0.1680  2.1734
  146MOL    H8126471   6.674   1.989   7.713  2.6013  0.5530 -1.6864
  146MOL    H8226472   6.726   1.859   7.819  0.5591  1.3933  0.2562
  146MOL    C8326473   6.523   1.935   7.342  0.5117  0.4404  0.1615
  146MOL    C8426474   6.497   2.085   7.347  0.1710  0.3130  0.5706
  146MOL    C8526475   6.417   1.860   7.260  0.8436  0.0404  0.6566
  146MOL    O8626476   6.447   1.819   7.148 -0.0085  0.0610 -0.8506
  146MOL    O8726477   6.302   1.854   7.321  0.4949  0.2590 -0.0842
  146MOL    H8826478   6.619   1.924   7.291 -0.9789  1.0107 -2.8624
  146MOL    H8926479   6.439   2.112   7.436  0.0943  2.0192  0.0280
  146MOL    H9026480   6.584   2.146   7.325  2.1649 -1.4386  3.2932
  146MOL    H9126481   6.428   2.112   7.267  0.0293 -1.6565  0.0182
  146MOL    C9226482   6.180   1.813   7.252  0.6744  0.1517  0.0655
  146MOL    C9326483   6.097   1.934   7.204 -0.3343 -0.4361 -0.3404
  146MOL    C9426484   6.084   1.734   7.342  0.1245  0.3530  0.5640
  146MOL    O9526485   6.130   1.675   7.441 -0.2074 -0.0221 -0.3507
  146MOL    O9626486   5.974   1.701   7.282 -0.2171  0.0717  0.3760
  146MOL    H9726487   6.207   1.741   7.174  2.1437  1.7504 -0.9370
  146MOL    H9826488   6.073   2.002   7.287  1.2545  1.5262 -1.4405
  146MOL    H9926489   6.145   1.999   7.131  2.6017  0.4264  2.2499
  146MOL   H10026490   6.008   1.913   7.145  0.8760 -0.3735 -2.2346
  146MOL   C10126491   5.865   1.638   7.349  0.5052 -0.6466 -0.2580
  146MOL   C10226492   5.811   1.518   7.278  0.0910 -0.4254  1.2556
  146MOL   C10326493   5.758   1.746   7.385  0.4073 -0.1183 -0.0147
  146MOL   O10426494   5.754   1.861   7.334 -0.7509  0.2998 -0.0996
  146MOL   O10526495   5.658   1.699   7.460  0.0759 -0.5663  0.6118
  146MOL   H10626496   5.895   1.606   7.449 -0.0775  2.3466  0.9470
  146MOL   H10726497   5.786   1.547   7.176  1.4461 -3.3836  0.0096
  146MOL   H10826498   5.886   1.439   7.270  0.3955 -0.0252  0.0583
  146MOL   H10926499   5.718   1.480   7.321 -1.1564  1.1127 -0.0554
  146MOL   C11026500   5.551   1.774   7.515 -0.5779 -0.3162 -0.3443
  146MOL   C11126501   5.463   1.851   7.417  0.1937 -0.0035  0.1800
  146MOL   C11226502   5.605   1.861   7.626 -0.3646  0.2610 -0.5704
  146MOL   O11326503   5.711   1.923   7.631  0.9213  0.6003  0.2120
  146MOL   O11426504   5.512   1.878   7.717  0.3906 -0.0786  0.2464
  146MOL   H11526505   5.491   1.698   7.566  2.0950 -1.8943  0.5126
  146MOL   H11626506   5.380   1.905   7.464  0.7111  1.6497 -0.7905
  146MOL   H11726507   5.515   1.908   7.341  2.4722 -1.1075  0.8696
  146MOL   H11826508   5.412   1.776   7.357  1.2720 -0.9385  0.4101
  146MOL   C11926509   5.500   1.987   7.819 -0.5056 -0.2353 -0.0049
  146MOL   C12026510   5.488   1.916   7.955  0.1986 -0.6789  0.5522
  146MOL   C12126511   5.372   2.058   7.781 -0.0678 -0.7199  0.1642
  146MOL   O12226512   5.301   2.019   7.688 -0.5632 -0.3640  0.1219
  146MOL   O12326513   5.346   2.161   7.867 -0.1912  0.3832 -0.4442
  146MOL   H12426514   5.584   2.055   7.811 -2.8641  2.7096 -0.6665
  146MOL   H12526515   5.565   1.956   8.021 -0.0475  3.6720 -1.6215
  146MOL   H12626516   5.391   1.941   7.999 -0.2894 -0.5831 -0.5645
  146MOL   H12726517   5.503   1.809   7.939 -0.8116 -0.5640 -1.2945
  146MOL   C12826518   5.223   2.232   7.844  0.0248  0.4239  0.6851
  146MOL   C12926519   5.256   2.366   7.905  1.1960 -0.3161  0.7891
  146MOL   C13026520   5.098   2.174   7.910  0.0701 -0.0325  0.8910
  146MOL   O13126521   4.989   2.166   7.845 -0.1605  0.3848 -0.0824
  146MOL   O13226522   5.119   2.139   8.039 -0.4033  0.2024  0.1835
  146MOL   H13326523   5.197   2.251   7.739 -1.4650  0.4400  1.0440
  146MOL   H13426524   5.322   2.431   7.847 -0.2387  0.1351 -0.3835
  146MOL   H13526525   5.166   2.425   7.922  0.1543 -1.3943 -0.8302
  146MOL   H13626526   5.316   2.363   7.996  2.1451  0.2012  0.1886
  146MOL   C13726527   5.021   2.068   8.112  0.5605  0.1691 -0.3656
  146MOL   C13826528   5.045   2.091   0.112 -0.2766 -0.1311  0.1197
  146MOL   C13926529   5.036   1.919   8.078  0.4834  0.5810  0.2558
  146MOL   O14026530   5.147   1.871   8.080 -0.4379 -0.0536  0.7046
  146MOL   O14126531   4.922   1.847   8.077 -0.5270  0.6452 -0.1583
  146MOL   H14226532   4.918   2.095   8.086 -0.0953 -1.1229  0.8005
  146MOL   H14326533   4.960   2.066   0.175 -2.0966  0.5764 -1.9818
  146MOL   H14426534   5.139   2.041   0.135 -0.7531 -0.6480  0.9431
  146MOL   H14526535   5.055   2.200   0.119 -0.2054 -0.0739 -0.7751
  146MOL   C14626536   4.920   1.707   8.117 -0.1653  0.0816  0.3090
  146MOL   C14726537   4.815   1.637   8.032 -0.3729  0.3458  0.5049
  146MOL   C14826538   4.885   1.701   0.116  0.4251  0.0756 -0.4701
  146MOL   O14926539   4.936   1.612   0.194  0.3832  0.0377 -0.4256
  146MOL   O15026540   4.789   1.794   0.153  0.3804  0.3355  0.0582
  146MOL   H15126541   5.016   1.663   8.089 -0.7414 -0.2735 -1.1684
  146MOL   H15226542   4.828   1.631   7.924  0.4581 -0.1708  0.6321
  146MOL   H15326543   4.798   1.531   8.052  0.5352  0.2819  0.9899
  146MOL   H15426544   4.719   1.681   8.061  0.4751  2.7242 -0.1637
  146MOL   C15526545   4.742   1.791   0.287  0.2625  0.2471 -0.5635
  146MOL   C15626546   4.632   1.676   0.299  0.1751 -0.5671 -0.1573
  146MOL   C15726547   4.684   1.932   0.330  0.8793 -0.2566 -0.4892
  146MOL   O15826548   4.754   2.029   0.331 -0.1197  0.3808  0.0995
  146MOL   O15926549   4.553   1.933   0.364 -0.0135 -0.2872 -0.3096
  146MOL   H16026550   4.829   1.775   0.351  2.1201  1.0927 -2.7851
  146MOL   H16126551   4.647   1.580   0.249 -1.1528 -0.2214 -1.2521
  146MOL   H16226552   4.611   1.662   0.405  0.0060  1.2636  0.0764
  146MOL   H16326553   4.546   1.720   0.248 -0.9331 -1.4233  0.9599
  146MOL   C16426554   4.489   2.050   0.417 -0.3899 -0.6049 -0.6365
  146MOL   C16526555   4.463   2.162   0.308  0.3020  0.5467 -0.5051
  146MOL   C16626556   4.560   2.117   0.542  0.0005  0.6780 -0.5158
  146MOL   O16726557   4.594   2.237   0.542  0.6053  0.1711  0.4495
  146MOL   O16826558   4.597   2.030   0.636 -0.6576 -0.2886 -0.2734
  146MOL   H16926559   4.392   2.011   0.446  0.7957 -0.9749  3.1197
  146MOL   H17026560   4.537   2.239   0.287  0.2194  0.5957 -0.6182
  146MOL   H17126561   4.435   2.123   0.210 -0.3313  2.5434 -1.1304
  146MOL   H17226562   4.372   2.215   0.334  1.5350  1.1140  2.9535
  146MOL   C17326563   4.658   2.074   0.753  0.3641 -0.0549 -0.5165
  146MOL   C17426564   4.754   1.965   0.819  0.7691 -0.4300  0.1399
  146MOL   C17526565   4.545   2.110   0.855  0.2555 -0.6682 -0.3444
  146MOL   O17626566   4.540   2.062   0.967  0.4961  0.0771  0.0995
  146MOL   O17726567   4.450   2.193   0.809 -0.1438 -0.2266  0.1205
  146MOL   H17826568   4.731   2.152   0.728  0.1020  0.3783  0.0664
  146MOL   H17926569   4.820   1.915   0.748  0.6699  0.0506 -0.2993
  146MOL   H18026570   4.814   2.021   0.891  0.9750 -1.0220  0.4305
  146MOL   H18126571   4.705   1.888   0.877  2.1694 -0.2415  1.6081
  146MOL   H18226572   4.378   2.210   0.868 -0.2887  0.5551 -0.2711
  147MOL     C126573   1.348   0.232   6.485  0.1333  0.2723 -0.2318
  147MOL     C226574   1.250   0.117   6.478 -0.4801  0.1359 -0.0403
  147MOL     C326575   1.349   0.329   6.368 -0.4003  0.7914 -0.5426
  147MOL     O426576   1.412   0.304   6.263  0.2646  0.5095  0.0274
  147MOL     O526577   1.278   0.435   6.384 -0.2357 -0.6468 -0.6000
  147MOL     H626578   1.325   0.297   6.570 -0.9243  1.8067 -1.6618
  147MOL     H726579   1.272   0.038   6.549  0.4313 -0.7697 -1.3056
  147MOL     H826580   1.149   0.146   6.507 -0.6242 -0.7708  0.3898
  147MOL     H926581   1.259   0.069   6.381 -1.6330 -0.7866  0.2952
  147MOL    H1026582   1.453   0.210   6.503 -0.2679 -1.6629 -0.1246
  147MOL    C1126583   1.245   0.537   6.289  0.0157 -0.2762  0.5004
  147MOL    C1226584   1.239   0.672   6.355  0.2952 -0.5235  0.2707
  147MOL    C1326585   1.108   0.504   6.229  0.4408 -0.0555  0.1600
  147MOL    O1426586   1.008   0.463   6.295  0.3167 -0.1551  0.1824
  147MOL    O1526587   1.103   0.528   6.097 -0.1587 -0.3349  0.0653
  147MOL    H1626588   1.319   0.551   6.210  0.0466  0.0581  0.5898
  147MOL    H1726589   1.337   0.715   6.371  0.7716 -1.5975  0.3189
  147MOL    H1826590   1.184   0.747   6.298 -1.2623 -1.6479  0.2525
  147MOL    H1926591   1.181   0.669   6.447 -2.5558  0.4487 -1.4147
  147MOL    C2026592   0.982   0.534   6.029  0.3623  0.0976 -0.0080
  147MOL    C2126593   1.010   0.492   5.887  0.1623  0.1311  0.0692
  147MOL    C2226594   0.904   0.660   6.033  0.1239  0.2297  0.5806
  147MOL    O2326595   0.780   0.658   6.032  0.0243  0.2189  0.1854
  147MOL    O2426596   0.974   0.768   6.025 -0.0540  0.7141 -0.1458
  147MOL    H2526597   0.920   0.458   6.077  1.9689 -1.3548 -0.2101
  147MOL    H2626598   1.055   0.393   5.893 -1.3881 -0.5558  0.7516
  147MOL    H2726599   0.925   0.479   5.820 -0.8776  0.4737  1.2973
  147MOL    H2826600   1.086   0.560   5.849  0.6050 -0.7503 -0.6176
  147MOL    C2926601   0.930   0.904   6.031  0.2297 -0.5999 -0.9057
  147MOL    C3026602   0.905   0.937   6.177 -0.4691  0.4868 -0.0333
  147MOL    C3126603   0.813   0.931   5.945  0.0150  0.3679 -0.1615
  147MOL    O3226604   0.711   0.980   5.995 -0.5000  0.1269 -0.8155
  147MOL    O3326605   0.834   0.897   5.818 -0.1874  1.0207  0.3799
  147MOL    H3426606   1.008   0.975   6.003 -0.2941  0.6488  0.6868
  147MOL    H3526607   0.877   1.042   6.188 -1.1947  0.3263 -0.3105
  147MOL    H3626608   0.818   0.883   6.214  0.7251  0.5985  3.0801
  147MOL    H3726609   0.987   0.898   6.237  0.4901  2.6930  0.1510
  147MOL    C3826610   0.734   0.893   5.719  0.2934 -0.0797  0.0746
  147MOL    C3926611   0.694   0.750   5.683 -0.3551 -0.1165 -1.1349
  147MOL    C4026612   0.781   0.974   5.602  0.1810 -0.3983  0.0873
  147MOL    O4126613   0.870   0.937   5.521  0.3764  0.3206 -0.0079
  147MOL    O4226614   0.719   1.096   5.600 -0.0795 -0.1960  0.5350
  147MOL    H4326615   0.644   0.940   5.759  1.0816 -0.5130  2.4766
  147MOL    H4426616   0.609   0.753   5.614  0.4428  0.1859 -2.1198
  147MOL    H4526617   0.779   0.701   5.637 -1.1065 -2.2398 -0.3393
  147MOL    H4626618   0.676   0.703   5.779  1.0856  2.0347  0.2419
  147MOL    C4726619   0.727   1.178   5.485  0.0694 -0.0785 -0.4206
  147MOL    C4826620   0.665   1.311   5.517  0.4750  0.2350  0.4428
  147MOL    C4926621   0.659   1.116   5.370  1.0340 -0.2552  0.8686
  147MOL    O5026622   0.610   1.004   5.378 -0.2770  0.1038  0.5551
  147MOL    O5126623   0.680   1.184   5.250  0.4874 -0.6251 -0.1306
  147MOL    H5226624   0.831   1.183   5.455  0.9470 -0.6963  2.3230
  147MOL    H5326625   0.709   1.342   5.612 -1.5950  0.7340  1.2713
  147MOL    H5426626   0.710   1.374   5.439  1.6166  0.3059  1.1485
  147MOL    H5526627   0.556   1.322   5.514  0.5330  1.6357  2.5992
  147MOL    C5626628   0.626   1.134   5.128  0.1774 -0.7455  0.1918
  147MOL    C5726629   0.695   1.212   5.016 -0.3963  0.5467 -0.0189
  147MOL    C5826630   0.476   1.177   5.125  0.3917  0.4160  0.0464
  147MOL    O5926631   0.435   1.278   5.178 -0.5053  0.4046 -0.2057
  147MOL    O6026632   0.404   1.111   5.024  0.7646 -0.2702  1.0381
  147MOL    H6126633   0.631   1.026   5.113 -1.0341 -0.7341 -0.3764
  147MOL    H6226634   0.664   1.183   4.915 -2.8465  0.0113  0.8592
  147MOL    H6326635   0.695   1.320   5.028 -0.9689  0.5318  0.1158
  147MOL    H6426636   0.802   1.190   5.016 -0.0166  2.3010 -0.6350
  147MOL    C6526637   0.279   1.156   4.979  0.4998 -0.8755  0.0387
  147MOL    C6626638   0.201   1.037   4.912  0.1346 -0.6371  0.8971
  147MOL    C6726639   0.291   1.272   4.880 -0.0568 -0.1714 -0.1463
  147MOL    O6826640   0.198   1.358   4.873  0.4848  0.1095  0.4601
  147MOL    O6926641   0.406   1.289   4.813 -0.0339 -0.4607  0.5407
  147MOL    H7026642   0.216   1.180   5.065  1.5260  0.5508  0.4058
  147MOL    H7126643   0.110   1.080   4.870  1.3788  0.6883 -0.5195
  147MOL    H7226644   0.248   0.993   4.824  0.3622 -1.2129  1.3042
  147MOL    H7326645   0.174   0.961   4.985 -3.1203  1.3875  1.8972
  147MOL    C7426646   0.439   1.388   4.709  0.3785 -0.1379 -0.6509
  147MOL    C7526647   0.446   1.533   4.765 -0.4452 -0.6825 -0.4574
  147MOL    C7626648   0.346   1.367   4.592 -0.0000 -0.1445 -0.7662
  147MOL    O7726649   0.292   1.261   4.568 -0.3910  0.0697 -0.1888
  147MOL    O7826650   0.327   1.479   4.519 -0.5130 -0.4722  0.0859
  147MOL    H7926651   0.537   1.369   4.667  0.2947 -1.4626 -0.2914
  147MOL    H8026652   0.359   1.560   4.826 -0.6305 -3.1180  0.4110
  147MOL    H8126653   0.536   1.538   4.826 -1.3982 -0.5472  0.9836
  147MOL    H8226654   0.476   1.593   4.679  0.9579 -2.4869 -1.2467
  147MOL    C8326655   0.239   1.478   4.403 -0.5486 -0.2591  0.0020
  147MOL    C8426656   0.275   1.606   4.321  0.1663 -0.4357 -0.0908
  147MOL    C8526657   0.094   1.450   4.447  0.0228 -0.4999  0.1816
  147MOL    O8626658   0.014   1.392   4.369  0.5506  0.1309 -0.7558
  147MOL    O8726659   0.059   1.493   4.568  0.4122 -0.2514 -0.0585
  147MOL    H8826660   0.264   1.392   4.341 -0.9569 -1.3903  1.3932
  147MOL    H8926661   0.234   1.606   4.220  0.0698  0.0577 -0.0538
  147MOL    H9026662   0.262   1.707   4.359  1.2737 -0.5461  0.5951
  147MOL    H9126663   0.383   1.593   4.314  0.3843  1.3861 -0.3776
  147MOL    C9226664   8.075   1.495   4.632  0.4630  0.4111  0.6721
  147MOL    C9326665   8.048   1.356   4.692  0.0112 -0.0597 -0.1793
  147MOL    C9426666   7.977   1.564   4.540 -0.4376  0.2018  0.0217
  147MOL    O9526667   7.857   1.541   4.551  0.0470 -0.5865  0.4771
  147MOL    O9626668   8.020   1.646   4.444 -0.6730 -0.4580 -0.0474
  147MOL    H9726669   8.093   1.558   4.719 -0.1202 -0.5409  1.4884
  147MOL    H9826670   8.134   1.330   4.754  0.7452  2.8062  0.1002
  147MOL    H9926671   7.958   1.348   4.753  0.7104 -4.6408  0.4311
  147MOL   H10026672   8.037   1.276   4.619  1.1047 -1.1546  0.8409
  147MOL   C10126673   7.937   1.718   4.347 -0.8539  0.8409 -0.2187
  147MOL   C10226674   8.026   1.752   4.226 -0.6555 -0.1325  0.1151
  147MOL   C10326675   7.884   1.853   4.412 -0.1853 -0.3719  0.1115
  147MOL   O10426676   7.943   1.906   4.504 -0.0315  0.2960  0.2365
  147MOL   O10526677   7.765   1.893   4.370  0.2186 -0.0930  0.0360
  147MOL   H10626678   7.865   1.647   4.307 -0.3058 -0.3825  0.9293
  147MOL   H10726679   8.014   1.682   4.144  1.7558 -1.8894  1.1933
  147MOL   H10826680   7.999   1.852   4.193  2.1994  0.9591  0.8667
  147MOL   H10926681   8.134   1.755   4.244 -0.8942  1.3733  1.4488
  147MOL   C11026682   7.715   2.017   4.417 -0.4394 -0.5274 -0.1493
  147MOL   C11126683   7.581   1.986   4.486 -0.3247  0.0052  0.5770
  147MOL   C11226684   7.700   2.124   4.310 -0.0768 -0.2457 -0.7522
  147MOL   O11326685   7.750   2.237   4.331  0.0697 -0.3629  0.5047
  147MOL   O11426686   7.641   2.081   4.198 -0.2703  0.1614 -0.0042
  147MOL   H11526687   7.779   2.072   4.487  0.0112 -4.6102  2.8729
  147MOL   H11626688   7.505   2.064   4.478 -0.2664  0.2060  1.9151
  147MOL   H11726689   7.543   1.892   4.444 -0.7754 -0.3881  1.8367
  147MOL   H11826690   7.601   1.976   4.592  0.1768  2.5972  0.7558
  147MOL   C11926691   7.634   2.172   4.084 -0.2695 -0.0159  0.7580
  147MOL   C12026692   7.510   2.263   4.087  0.0899  0.1555  0.8270
  147MOL   C12126693   7.645   2.078   3.966 -0.2102 -0.3315 -0.4215
  147MOL   O12226694   7.556   2.069   3.882  0.4319 -0.6495  0.3223
  147MOL   O12326695   7.757   2.007   3.970  0.7467  0.4264  0.1817
  147MOL   H12426696   7.719   2.239   4.073 -1.5143  1.0970 -2.8460
  147MOL   H12526697   7.413   2.213   4.087  0.0737  0.1846  1.5012
  147MOL   H12626698   7.512   2.338   4.166 -0.1592  0.7052  0.3245
  147MOL   H12726699   7.513   2.315   3.991  0.6722 -2.3808 -0.5701
  147MOL   C12826700   7.799   1.943   3.843 -0.1694 -0.3501  0.7030
  147MOL   C12926701   7.925   1.848   3.873  0.2787 -0.4341 -0.4028
  147MOL   C13026702   7.831   2.053   3.736 -0.2473 -0.3219  0.4268
  147MOL   O13126703   7.813   2.032   3.616  0.1153 -0.3828 -0.6312
  147MOL   O13226704   7.904   2.155   3.782 -0.0047 -0.1940 -0.4711
  147MOL   H13326705   7.717   1.884   3.802 -0.9975  2.3135 -1.5992
  147MOL   H13426706   8.016   1.903   3.900  0.5029 -0.6358 -0.7543
  147MOL   H13526707   7.906   1.779   3.955  0.4046 -1.3288 -1.1241
  147MOL   H13626708   7.960   1.792   3.787 -0.1413 -0.9482 -0.2378
  147MOL   C13726709   7.937   2.270   3.710 -0.1255  0.0158  0.2235
  147MOL   C13826710   8.054   2.324   3.788 -0.2401  0.1933 -0.1661
  147MOL   C13926711   7.812   2.373   3.710  0.2754 -0.6450 -0.2407
  147MOL   O14026712   7.714   2.346   3.778 -0.0209 -0.2725  0.0310
  147MOL   O14126713   7.827   2.487   3.642 -0.3145  0.0387  0.3115
  147MOL   H14226714   7.964   2.255   3.605  4.1665  2.1268  0.9335
  147MOL   H14326715   8.084   2.415   3.735 -0.2704 -0.8326 -1.9747
  147MOL   H14426716   8.028   2.351   3.890  0.0176 -2.0106  0.5102
  147MOL   H14526717   8.138   2.254   3.791  0.1188  0.6694  1.5154
  147MOL   C14626718   7.712   2.568   3.611  0.4394  0.1939  0.4546
  147MOL   C14726719   7.743   2.663   3.490  0.2367  0.2805  0.2744
  147MOL   C14826720   7.674   2.645   3.741 -0.3461  0.9183  0.3195
  147MOL   O14926721   7.584   2.611   3.811 -0.3688  0.3265  0.1908
  147MOL   O15026722   7.758   2.744   3.759 -0.0349  0.2931  0.5612
  147MOL   H15126723   7.632   2.497   3.589 -0.0009  0.3983  1.3735
  147MOL   H15226724   7.761   2.597   3.405 -0.5110  1.2330 -0.6355
  147MOL   H15326725   7.656   2.716   3.453  1.4604  1.7522 -0.5330
  147MOL   H15426726   7.825   2.732   3.509  1.3590 -0.5130 -1.5130
  147MOL   C15526727   7.754   2.837   3.860 -0.3457 -0.5176  0.3177
  147MOL   C15626728   7.766   2.981   3.811  0.6015 -0.8396 -0.2440
  147MOL   C15726729   7.856   2.786   3.967  0.9585  0.2658 -0.0658
  147MOL   O15826730   7.980   2.796   3.949  0.6492  0.2235 -0.1514
  147MOL   O15926731   7.800   2.728   4.076  0.3749  0.3340  0.4000
  147MOL   H16026732   7.655   2.836   3.905 -0.1695  1.9753  0.8054
  147MOL   H16126733   7.681   3.021   3.755  0.4257  1.9184  1.9140
  147MOL   H16226734   7.762   3.042   3.901 -2.2107 -1.5579  0.1926
  147MOL   H16326735   7.857   2.990   3.752 -0.0771 -0.7917 -1.3035
  147MOL   C16426736   7.881   2.675   4.184 -0.3607 -0.2580  0.4904
  147MOL   C16526737   7.842   2.528   4.189 -0.1889  0.4580 -0.4503
  147MOL   C16626738   7.852   2.749   4.318  0.0824 -0.0906 -0.5935
  147MOL   O16726739   7.785   2.698   4.412  0.2081  0.1727 -0.1894
  147MOL   O16826740   7.900   2.877   4.312 -0.0870 -0.2287 -0.0096
  147MOL   H16926741   7.987   2.695   4.173 -0.7474  1.7848  0.2762
  147MOL   H17026742   7.733   2.523   4.192 -0.1556 -0.0343 -0.0958
  147MOL   H17126743   7.865   2.480   4.094  2.6142  0.3309  0.2457
  147MOL   H17226744   7.891   2.484   4.276  0.9993  3.6647  0.5677
  147MOL   C17326745   7.872   2.966   4.414  0.0040 -0.3528  0.1267
  147MOL   C17426746   7.919   3.102   4.358 -0.5168 -0.6206  0.9058
  147MOL   C17526747   7.953   2.936   4.542 -0.3139  0.0493 -0.0202
  147MOL   O17626748   8.051   2.858   4.549  0.7634 -0.0463 -0.8393
  147MOL   O17726749   7.915   3.012   4.644 -0.2206 -0.2076 -0.0379
  147MOL   H17826750   7.768   2.981   4.443  0.3391  0.9545  0.6993
  147MOL   H17926751   8.016   3.078   4.313 -0.6708  3.4040 -1.7751
  147MOL   H18026752   7.850   3.132   4.279  0.6922 -0.3767 -0.0860
  147MOL   H18126753   7.932   3.178   4.434  1.4384  0.2544 -0.2707
  147MOL   H18226754   7.973   3.015   4.719  1.5405  0.8560 -1.4058
  148MOL     C126755   7.801   6.911   6.958  0.0777 -0.5406  0.7541
  148MOL     C226756   7.934   6.835   6.927 -0.0407  0.5399 -0.3346
  148MOL     C326757   7.707   6.829   7.045  0.1790 -0.4995 -0.1859
  148MOL     O426758   7.633   6.881   7.124  0.0934  0.1180  0.6897
  148MOL     O526759   7.694   6.701   6.998  0.2311 -0.2310  0.3533
  148MOL     H626760   7.815   7.000   7.020  0.7810 -0.2198  0.1505
  148MOL     H726761   8.004   6.896   6.869  0.3488 -0.9539 -1.4770
  148MOL     H826762   7.991   6.809   7.016 -0.1275 -1.8649 -0.9243
  148MOL     H926763   7.913   6.736   6.884 -1.6947  0.9824 -0.5847
  148MOL    H1026764   7.741   6.935   6.870 -0.0736 -0.6781  0.8196
  148MOL    C1126765   7.623   6.608   7.081 -0.0440 -0.5365  0.2919
  148MOL    C1226766   7.659   6.474   7.040  0.3138 -0.8814 -1.2396
  148MOL    C1326767   7.470   6.641   7.074 -0.3217  0.1004 -0.2728
  148MOL    O1426768   7.417   6.674   6.967  0.0914 -0.3805 -0.3363
  148MOL    O1526769   7.411   6.638   7.195  0.3649  0.0150 -0.0982
  148MOL    H1626770   7.664   6.606   7.182  1.6038  1.7108 -0.2970
  148MOL    H1726771   7.629   6.458   6.936 -0.2985  2.0231 -1.5427
  148MOL    H1826772   7.766   6.452   7.038  1.0320  2.4483 -1.6910
  148MOL    H1926773   7.608   6.396   7.097  0.3032 -0.6723 -0.9627
  148MOL    C2026774   7.275   6.667   7.221 -0.3009  0.4128  0.0669
  148MOL    C2126775   7.182   6.561   7.160 -0.1192  0.4120 -0.3104
  148MOL    C2226776   7.231   6.811   7.191 -0.2503  0.0489  0.3826
  148MOL    O2326777   7.124   6.841   7.137 -0.0826 -0.1672 -0.2743
  148MOL    O2426778   7.329   6.895   7.224 -0.3258  0.9913  0.3126
  148MOL    H2526779   7.260   6.654   7.329  0.2412  0.5982  0.1634
  148MOL    H2626780   7.209   6.459   7.187 -1.1096  0.6357  1.5490
  148MOL    H2726781   7.080   6.579   7.193 -0.4850  1.2278 -1.8097
  148MOL    H2826782   7.193   6.562   7.051 -0.7949  1.9542 -0.3755
  148MOL    C2926783   7.308   7.039   7.222  0.3668 -0.0123 -0.3246
  148MOL    C3026784   7.436   7.124   7.205 -0.2943 -0.9729  0.0970
  148MOL    C3126785   7.228   7.090   7.343 -0.2005  0.5867 -0.2006
  148MOL    O3226786   7.105   7.081   7.333  0.4843 -0.1139  0.6150
  148MOL    O3326787   7.298   7.120   7.448 -0.3239 -0.0101  0.2260
  148MOL    H3426788   7.236   7.066   7.145 -0.6698 -1.2426  0.2115
  148MOL    H3526789   7.410   7.229   7.190 -1.4323 -1.2514  0.0369
  148MOL    H3626790   7.502   7.117   7.291 -0.4347  1.9510  0.4916
  148MOL    H3726791   7.499   7.097   7.120  1.6304  2.3424  0.3870
  148MOL    C3826792   7.244   7.180   7.570 -0.9234  0.2961  0.1233
  148MOL    C3926793   7.173   7.314   7.547 -0.4483 -0.0184 -0.3159
  148MOL    C4026794   7.358   7.168   7.673  0.1213 -0.5406  0.4745
  148MOL    O4126795   7.473   7.201   7.637 -0.2219  0.4100 -0.1921
  148MOL    O4226796   7.312   7.130   7.795  0.4029  0.0746  0.4042
  148MOL    H4326797   7.172   7.107   7.607  1.5262 -1.6398  1.2240
  148MOL    H4426798   7.245   7.387   7.511  2.0832  0.3284  4.9069
  148MOL    H4526799   7.089   7.301   7.479 -0.5709  1.4254 -0.4536
  148MOL    H4626800   7.128   7.346   7.641  0.6640  0.7228 -0.0212
  148MOL    C4726801   7.395   7.132   7.906 -0.0799 -0.0875 -0.1031
  148MOL    C4826802   7.332   7.068   8.032 -0.1243 -0.2856 -0.4362
  148MOL    C4926803   7.442   7.278   7.936 -0.7876 -0.5162 -0.6083
  148MOL    O5026804   7.557   7.308   7.914 -0.6510  0.2385  0.5236
  148MOL    O5126805   7.353   7.357   7.977 -0.3648 -0.2746  0.2781
  148MOL    H5226806   7.484   7.074   7.885  2.0903  2.7878  0.8680
  148MOL    H5326807   7.240   7.115   8.068  0.8726 -0.5752  2.5926
  148MOL    H5426808   7.319   6.960   8.022 -1.9578 -0.0939 -0.3937
  148MOL    H5526809   7.398   7.082   8.117 -0.1250 -1.0037 -0.3191
  148MOL    C5626810   7.384   7.501   7.998  0.6028 -0.1607 -0.6053
  148MOL    C5726811   7.333   7.551   8.134 -0.1563 -0.3122 -0.4297
  148MOL    C5826812   7.296   7.579   7.897 -0.4123 -0.4501  0.4855
  148MOL    O5926813   7.221   7.514   7.819  0.6102  0.0347  0.3005
  148MOL    O6026814   7.321   7.715   7.898 -0.3345  0.2816 -0.1083
  148MOL    H6126815   7.484   7.535   7.973 -0.3432  3.7309  0.5347
  148MOL    H6226816   7.225   7.536   8.138 -0.1365 -0.3720 -0.1217
  148MOL    H6326817   7.381   7.509   0.074  1.1090  2.9547  0.5202
  148MOL    H6426818   7.355   7.658   8.139 -2.6589  0.2116 -0.0283
  148MOL    C6526819   7.259   7.810   7.812  0.1472  0.3740 -0.6487
  148MOL    C6626820   7.123   7.847   7.869 -0.4520 -0.1295  0.2469
  148MOL    C6726821   7.265   7.778   7.659  0.9354  0.2818  0.1004
  148MOL    O6826822   7.169   7.808   7.582  0.0533  0.0587  0.0903
  148MOL    O6926823   7.386   7.720   7.619 -0.3652 -0.0060  0.4879
  148MOL    H7026824   7.315   7.904   7.809  1.2030  0.0156  3.6836
  148MOL    H7126825   7.048   7.768   7.863  0.2672 -0.7613 -0.5596
  148MOL    H7226826   7.135   7.868   7.975  1.3616 -0.9612  0.2248
  148MOL    H7326827   7.083   7.934   7.816 -1.0807 -2.3547 -3.1431
  148MOL    C7426828   7.399   7.671   7.487  0.0185  0.2274  0.1169
  148MOL    C7526829   7.482   7.539   7.486  0.1397 -0.2628 -0.3735
  148MOL    C7626830   7.462   7.776   7.397 -0.0881 -0.1043 -0.0600
  148MOL    O7726831   7.425   7.796   7.285  0.2886  0.0900 -0.2781
  148MOL    O7826832   7.561   7.835   7.457  0.7385 -0.1842 -0.3796
  148MOL    H7926833   7.299   7.648   7.451 -1.3224  2.1841  2.4282
  148MOL    H8026834   7.476   7.491   7.388  0.6096  0.8237 -0.9438
  148MOL    H8126835   7.586   7.564   7.503 -0.3194  0.2306  1.8402
  148MOL    H8226836   7.441   7.470   7.560 -1.5997 -0.4801 -1.4961
  148MOL    C8326837   7.627   7.945   7.394 -0.6266 -0.1180  0.3315
  148MOL    C8426838   7.772   7.951   7.425 -0.4045 -0.2655 -0.5235
  148MOL    C8526839   7.554   8.083   7.422 -0.3349  0.4544 -0.3593
  148MOL    O8626840   7.461   8.092   7.497 -0.5065 -0.0707  0.5142
  148MOL    O8726841   7.619   0.036   7.366 -0.2579 -0.4965  0.2719
  148MOL    H8826842   7.612   7.926   7.287 -2.8365 -1.9105  0.9023
  148MOL    H8926843   7.800   8.020   7.505 -0.0308  0.6672 -1.4558
  148MOL    H9026844   7.795   7.846   7.447 -0.4607 -0.2343 -0.3085
  148MOL    H9126845   7.840   7.970   7.342 -1.0908  2.2363 -0.5405
  148MOL    C9226846   7.572   0.173   7.374 -0.1570 -0.1083  0.0464
  148MOL    C9326847   7.597   0.232   7.517 -0.1182  0.2441  0.1215
  148MOL    C9426848   7.430   0.189   7.325  0.1229  0.0459 -0.6361
  148MOL    O9526849   7.356   0.281   7.363 -0.1417  0.3478 -0.2931
  148MOL    O9626850   7.397   0.094   7.234  0.0805 -0.0836  0.5138
  148MOL    H9726851   7.631   0.241   7.312  1.9657 -2.9433 -1.1918
  148MOL    H9826852   7.702   0.245   7.543 -0.0718 -0.9416  0.5249
  148MOL    H9926853   7.556   0.333   7.522 -0.2608  0.1448  1.0326
  148MOL   H10026854   7.549   0.169   7.591 -0.0818  0.2313  0.1333
  148MOL   C10126855   7.268   0.088   7.191  0.2854 -0.1397  0.6426
  148MOL   C10226856   7.220   8.093   7.222 -0.5577  0.5060  0.4043
  148MOL   C10326857   7.269   0.117   7.044 -0.7055 -0.0315 -0.2787
  148MOL   O10426858   7.186   0.198   6.997  0.0221  0.0238 -0.3353
  148MOL   O10526859   7.377   0.051   6.974  0.9958  0.1153  0.7092
  148MOL   H10626860   7.201   0.161   7.237  1.0960 -0.8378  3.0064
  148MOL   H10726861   7.290   8.024   7.175 -0.9381  1.0604 -1.0096
  148MOL   H10826862   7.214   8.069   7.328 -1.3338  0.2640  0.3106
  148MOL   H10926863   7.125   8.071   7.173 -0.3016 -3.0235  1.4088
  148MOL   C11026864   7.404   0.074   6.840  0.3372 -0.5105 -0.0816
  148MOL   C11126865   7.447   0.223   6.819 -0.0702 -0.1396 -0.0701
  148MOL   C11226866   7.293   0.035   6.741  0.0936 -0.0104  0.1035
  148MOL   O11326867   7.260   0.106   6.646 -0.1495  0.1672 -0.4349
  148MOL   O11426868   7.248   8.056   6.769 -0.0849  0.1083  0.2539
  148MOL   H11526869   7.488   0.007   6.822  1.8913  1.1987  0.7193
  148MOL   H11626870   7.362   0.291   6.827  1.2221  1.3791  0.8835
  148MOL   H11726871   7.525   0.257   6.887  0.4827 -0.9754 -0.2797
  148MOL   H11826872   7.485   0.246   6.719 -2.7569  1.1784 -0.8567
  148MOL   C11926873   7.137   7.986   6.711 -0.5380 -0.0119  0.2157
  148MOL   C12026874   7.178   7.931   6.570 -0.1144 -0.4379  0.4421
  148MOL   C12126875   7.008   8.071   6.713 -0.4057 -0.3475  0.3165
  148MOL   O12226876   6.931   8.077   6.616 -0.3053 -0.4865 -0.2970
  148MOL   O12326877   6.990   8.135   6.838 -0.1523  0.0163  0.4312
  148MOL   H12426878   7.127   7.891   6.763  4.6917 -0.0662  1.4241
  148MOL   H12526879   7.172   8.022   6.510  2.7190 -0.1020  0.6187
  148MOL   H12626880   7.271   7.875   6.567  1.2419  1.7609  0.4879
  148MOL   H12726881   7.096   7.867   6.539 -0.6520  1.0340 -1.2127
  148MOL   C12826882   6.860   0.056   6.853  0.3673  0.1585 -0.7682
  148MOL   C12926883   6.876   0.209   6.797 -0.1925  0.7843 -0.4480
  148MOL   C13026884   6.815   0.062   6.992 -0.1510 -0.1606 -0.0055
  148MOL   O13126885   6.883   0.011   7.081 -0.0121  0.4282  0.5246
  148MOL   O13226886   6.694   0.107   7.015 -0.2454 -0.2222  0.3509
  148MOL   H13326887   6.781   0.006   6.798  2.1633 -2.5942 -0.9607
  148MOL   H13426888   6.978   0.243   6.779 -0.0818  0.4403 -0.4820
  148MOL   H13526889   6.827   0.223   6.700 -0.8704  0.4353 -0.1550
  148MOL   H13626890   6.828   0.284   6.860 -0.8953  0.1274 -0.1917
  148MOL   C13726891   6.635   0.102   7.150 -0.0072 -0.2878  0.1213
  148MOL   C13826892   6.492   0.144   7.148 -0.3111  0.3795 -0.2820
  148MOL   C13926893   6.721   0.189   7.240  0.8523  0.0965 -0.0650
  148MOL   O14026894   6.725   0.170   7.358 -0.3042 -1.0566  0.0866
  148MOL   O14126895   6.765   0.290   7.170 -0.4048  0.3370  0.7576
  148MOL   H14226896   6.645   8.146   7.182 -0.4452  0.0994  1.5491
  148MOL   H14326897   6.450   0.143   7.248 -0.2305 -1.1471 -0.2624
  148MOL   H14426898   6.471   0.245   7.111 -0.5487  1.1618  1.9194
  148MOL   H14526899   6.427   0.080   7.087 -2.1604  0.7677  1.2322
  148MOL   C14626900   6.843   0.404   7.219  0.2171  0.1782 -0.1749
  148MOL   C14726901   6.983   0.370   7.248  0.4953  0.0632  0.7266
  148MOL   C14826902   6.765   0.477   7.332 -0.1811 -0.1577  0.0548
  148MOL   O14926903   6.818   0.513   7.438 -0.1173 -0.7723 -0.1588
  148MOL   O15026904   6.638   0.483   7.313 -0.9675 -0.3378 -0.6619
  148MOL   H15126905   6.843   0.474   7.136 -0.7902 -0.9129 -1.1257
  148MOL   H15226906   7.026   0.444   7.316  0.9667  0.3847  0.0878
  148MOL   H15326907   6.998   0.283   7.312  1.1904  0.7509  1.5180
  148MOL   H15426908   7.040   0.373   7.155 -0.6176  2.4960  0.0983
  148MOL   C15526909   6.549   0.505   7.427  0.3762  0.0648  0.0394
  148MOL   C15626910   6.415   0.435   7.404  0.1533  0.4632 -0.8222
  148MOL   C15726911   6.526   0.649   7.461  0.5279 -0.6564 -0.1802
  148MOL   O15826912   6.551   0.743   7.383 -0.6561 -0.1089  0.0511
  148MOL   O15926913   6.470   0.664   7.572 -0.0822  0.1395 -0.6258
  148MOL   H16026914   6.599   0.461   7.513 -0.4296 -1.5793 -0.3065
  148MOL   H16126915   6.355   0.438   7.495 -0.1851  1.8878 -1.0717
  148MOL   H16226916   6.352   0.496   7.337 -2.5928  0.7169  1.8829
  148MOL   H16326917   6.432   0.335   7.365  1.0138  1.2523 -2.5200
  148MOL   C16426918   6.437   0.785   7.633 -0.1813 -0.6380 -0.1207
  148MOL   C16526919   6.313   0.860   7.582  0.7348  0.4828  0.0815
  148MOL   C16626920   6.559   0.875   7.657  0.1591  0.2107  0.0723
  148MOL   O16726921   6.565   0.995   7.636  0.8001 -0.3779 -0.4612
  148MOL   O16826922   6.665   0.804   7.690  0.0997 -0.0248 -0.0714
  148MOL   H16926923   6.429   0.762   7.739 -0.8210  0.2999  0.0385
  148MOL   H17026924   6.325   0.870   7.474  1.8830 -1.7724 -0.0194
  148MOL   H17126925   6.223   0.802   7.602  1.0836  0.8460  2.8920
  148MOL   H17226926   6.298   0.960   7.623 -2.2963 -1.4454  4.0383
  148MOL   C17326927   6.787   0.867   7.726 -0.0566 -0.3311 -0.6766
  148MOL   C17426928   6.898   0.816   7.628  0.0441  0.3678  0.1317
  148MOL   C17526929   6.826   0.839   7.866 -0.9464 -0.2352 -0.3723
  148MOL   O17626930   6.938   0.812   7.901  0.2908 -0.0077  0.1665
  148MOL   O17726931   6.715   0.862   7.945 -0.2414 -0.0454 -0.4976
  148MOL   H17826932   6.772   0.975   7.718 -1.3571 -0.4366  0.1615
  148MOL   H17926933   6.992   0.869   7.645 -1.2691  2.6561  0.4727
  148MOL   H18026934   6.918   0.709   7.622 -1.7939  0.0576 -0.8069
  148MOL   H18126935   6.876   0.832   7.522 -0.6337 -1.7443 -0.0833
  148MOL   H18226936   6.729   0.840   8.036 -1.3138  3.1804  0.5306
  149MOL     C126937   5.951   3.874   6.872  0.1405  0.9128 -0.2072
  149MOL     C226938   5.892   3.974   6.960  0.5536  1.1457 -0.1102
  149MOL     C326939   6.009   3.932   6.745  0.1775 -0.0216 -1.5446
  149MOL     O426940   5.991   4.049   6.708 -0.6077 -0.1512  0.3503
  149MOL     O526941   6.087   3.839   6.689  0.4492  0.5363 -0.1539
  149MOL     H626942   6.020   3.811   6.928  0.2531 -1.1794 -2.6084
  149MOL     H726943   5.818   3.917   7.017  0.9751  1.4122  0.7105
  149MOL     H826944   5.962   4.013   7.033 -1.2484  2.1429  1.1312
  149MOL     H926945   5.830   4.051   6.914 -0.2874 -0.3777 -1.6079
  149MOL    H1026946   5.874   3.811   6.827 -0.1225  1.2170 -0.1857
  149MOL    C1126947   6.158   3.867   6.567 -0.3439 -0.4202 -0.0068
  149MOL    C1226948   6.202   3.732   6.508 -0.5411 -0.4606 -0.1848
  149MOL    C1326949   6.274   3.969   6.581  0.2092  1.0780  0.0100
  149MOL    O1426950   6.292   4.043   6.483 -0.7684 -0.0888  0.2525
  149MOL    O1526951   6.345   3.966   6.702 -0.0509  0.5046  0.4789
  149MOL    H1626952   6.089   3.911   6.494 -1.3499 -0.4604  0.9033
  149MOL    H1726953   6.273   3.752   6.428  1.6632 -0.1053  1.7878
  149MOL    H1826954   6.251   3.677   6.588 -0.3608  1.0603  0.7816
  149MOL    H1926955   6.118   3.670   6.479 -0.6759 -0.4601  0.1990
  149MOL    C2026956   6.453   4.060   6.724 -0.1973  0.7501  0.3751
  149MOL    C2126957   6.525   4.019   6.861 -0.1781  0.0474 -0.6223
  149MOL    C2226958   6.386   4.196   6.735 -0.0049 -0.1009 -0.9657
  149MOL    O2326959   6.422   4.288   6.659 -0.3059 -0.4636  0.4302
  149MOL    O2426960   6.307   4.209   6.845  0.3495 -0.4330  0.8650
  149MOL    H2526961   6.518   4.070   6.638 -1.8255 -0.9678 -1.1135
  149MOL    H2626962   6.548   3.912   6.867  0.8145  0.2764 -0.1491
  149MOL    H2726963   6.612   4.082   6.880  0.6404 -1.6127  1.4362
  149MOL    H2826964   6.461   4.034   6.948  0.5666  0.3376 -0.1124
  149MOL    C2926965   6.234   4.327   6.881 -0.1575 -0.8097  0.3709
  149MOL    C3026966   6.200   4.334   7.032  0.3172  0.9353 -0.2549
  149MOL    C3126967   6.111   4.339   6.795  0.0010 -0.6835 -0.1574
  149MOL    O3226968   6.004   4.334   6.854 -0.0242 -0.1473 -0.1706
  149MOL    O3326969   6.137   4.352   6.667  0.1544 -0.1680  0.4314
  149MOL    H3426970   6.305   4.409   6.867 -1.7332  0.5532  0.2603
  149MOL    H3526971   6.153   4.426   7.067 -0.1393 -0.0164  1.7209
  149MOL    H3626972   6.138   4.252   7.066  0.3856  0.2212 -1.8289
  149MOL    H3726973   6.296   4.316   7.080 -0.2969 -1.5567  0.0847
  149MOL    C3826974   6.023   4.374   6.578  0.0193  0.8514  0.5078
  149MOL    C3926975   6.055   4.344   6.434  0.0812  0.1526 -0.6155
  149MOL    C4026976   5.965   4.512   6.589  0.2549  0.5790 -0.0694
  149MOL    O4126977   6.038   4.606   6.599  0.4088  0.2786  0.2584
  149MOL    O4226978   5.829   4.517   6.572  0.0587  0.0892 -0.5334
  149MOL    H4326979   5.953   4.295   6.606 -0.3990  0.9430 -0.2756
  149MOL    H4426980   6.123   4.259   6.425 -2.3522 -1.8666 -0.4999
  149MOL    H4526981   5.961   4.317   6.387 -0.1717 -0.2580  0.1195
  149MOL    H4626982   6.099   4.433   6.388  1.0067  0.2496  0.4232
  149MOL    C4726983   5.762   4.645   6.547  0.4425  0.1649 -0.1651
  149MOL    C4826984   5.615   4.619   6.574 -0.4651  0.2745 -0.2530
  149MOL    C4926985   5.788   4.697   6.406  0.8245  0.3134 -0.2777
  149MOL    O5026986   5.779   4.820   6.384 -0.2696 -0.1959 -0.4850
  149MOL    O5126987   5.801   4.598   6.312 -0.2070  0.4305 -0.6225
  149MOL    H5226988   5.792   4.716   6.624  1.2152 -0.8637  0.4887
  149MOL    H5326989   5.614   4.586   6.678 -0.9795  1.3274  0.0842
  149MOL    H5426990   5.561   4.714   6.571  0.5769  0.8858  0.0166
  149MOL    H5526991   5.571   4.537   6.517 -1.3750  2.1737 -2.3425
  149MOL    C5626992   5.807   4.638   6.180  0.4379  0.5678  0.1795
  149MOL    C5726993   5.751   4.518   6.101 -0.6574 -0.1468  0.2200
  149MOL    C5826994   5.946   4.674   6.128 -0.8203  0.3977  0.2975
  149MOL    O5926995   6.032   4.698   6.210 -0.4639 -0.7175  0.1366
  149MOL    O6026996   5.956   4.687   5.988 -0.0906  0.6678 -0.7000
  149MOL    H6126997   5.739   4.722   6.163  1.4313  1.6732  1.6159
  149MOL    H6226998   5.645   4.494   6.110 -0.4958 -1.2895 -0.8842
  149MOL    H6326999   5.771   4.528   5.995  0.1764 -2.2966  0.1518
  149MOL    H6427000   5.803   4.427   6.133 -0.2679  0.9728  2.9828
  149MOL    C6527001   6.082   4.712   5.924 -0.2092 -0.5012 -0.1167
  149MOL    C6627002   6.121   4.863   5.928  0.1850  0.2105  0.1289
  149MOL    C6727003   6.077   4.656   5.780  0.2186 -0.8350  0.4633
  149MOL    O6827004   5.969   4.643   5.718  0.5560 -0.1487  0.0630
  149MOL    O6927005   6.201   4.643   5.730 -0.1763  0.0695 -0.3864
  149MOL    H7027006   6.161   4.656   5.974 -0.9192 -0.5956  0.9025
  149MOL    H7127007   6.032   4.919   5.899  0.3629 -1.3166 -3.6955
  149MOL    H7227008   6.162   4.892   6.024  0.6153  1.5920 -0.4606
  149MOL    H7327009   6.206   4.886   5.864 -2.1901 -0.7937 -3.6207
  149MOL    C7427010   6.219   4.587   5.598  0.2436 -0.0869  0.4194
  149MOL    C7527011   6.159   4.680   5.483 -0.3176  0.2368  0.2473
  149MOL    C7627012   6.170   4.443   5.594  0.1485  0.0895 -0.2018
  149MOL    O7727013   6.135   4.381   5.693 -0.4766 -0.0630 -0.5393
  149MOL    O7827014   6.164   4.382   5.470  0.4180  0.2367  1.2908
  149MOL    H7927015   6.326   4.584   5.580 -0.0702  0.5211 -1.6871
  149MOL    H8027016   6.211   4.775   5.468 -2.2684  1.5340  1.4421
  149MOL    H8127017   6.167   4.628   5.387  0.3532 -0.7393  0.8285
  149MOL    H8227018   6.056   4.709   5.501  0.0122  1.1005  0.7772
  149MOL    C8327019   6.104   4.247   5.447 -0.1667 -0.2657  0.1373
  149MOL    C8427020   6.157   4.180   5.321  0.1083 -0.7403 -0.1114
  149MOL    C8527021   5.949   4.264   5.450  0.7941  0.4556  0.1623
  149MOL    O8627022   5.873   4.169   5.488 -0.4808 -0.7977 -0.0326
  149MOL    O8727023   5.911   4.381   5.406  0.0285 -0.3186  0.3439
  149MOL    H8827024   6.140   4.180   5.526  1.3454  1.4389  0.9440
  149MOL    H8927025   6.102   4.101   5.270  1.9306 -2.0504 -0.0973
  149MOL    H9027026   6.154   4.264   5.251 -2.0166 -0.0436  0.7813
  149MOL    H9127027   6.258   4.142   5.337  1.7532  2.5463 -2.1141
  149MOL    C9227028   5.779   4.398   5.351 -0.1969  0.4871 -0.1256
  149MOL    C9327029   5.794   4.505   5.237  0.3634  0.2969  0.5561
  149MOL    C9427030   5.674   4.448   5.454  0.0911  0.2404  0.0607
  149MOL    O9527031   5.710   4.492   5.561  0.0628 -0.1778  0.4243
  149MOL    O9627032   5.542   4.451   5.408 -0.1324 -0.1645  0.6042
  149MOL    H9727033   5.744   4.304   5.308  1.6597  0.3124 -1.3212
  149MOL    H9827034   5.700   4.533   5.189 -0.8685 -1.6522  1.7296
  149MOL    H9927035   5.847   4.586   5.287 -1.8601  3.5018 -2.0543
  149MOL   H10027036   5.864   4.475   5.160  0.4870  0.6014  0.5492
  149MOL   C10127037   5.437   4.511   5.490 -0.5927 -0.3666  0.2054
  149MOL   C10227038   5.306   4.442   5.456  0.2373  0.1364  0.0031
  149MOL   C10327039   5.431   4.658   5.452  0.0201  0.0172  0.3345
  149MOL   O10427040   5.464   4.698   5.344  0.3989 -0.0007 -0.1843
  149MOL   O10527041   5.377   4.740   5.546  0.7278  0.3755 -0.1272
  149MOL   H10627042   5.469   4.507   5.594 -1.7268 -0.0481  0.5704
  149MOL   H10727043   5.317   4.380   5.367  1.1579  1.1474 -0.5917
  149MOL   H10827044   5.287   4.373   5.539 -1.0219 -0.4457 -0.7511
  149MOL   H10927045   5.226   4.516   5.451  1.1480  1.3287  2.5016
  149MOL   C11027046   5.359   4.879   5.521  0.1813  0.4201  0.2587
  149MOL   C11127047   5.357   4.947   5.659 -0.5774 -0.2916  0.6706
  149MOL   C11227048   5.228   4.899   5.450 -0.0193 -0.7918 -0.3297
  149MOL   O11327049   5.124   4.830   5.467  0.6303  0.3406 -0.1962
  149MOL   O11427050   5.236   5.010   5.371 -0.1501  0.1028  0.0124
  149MOL   H11527051   5.450   4.909   5.470 -0.0851  0.0602 -0.4483
  149MOL   H11627052   5.324   5.051   5.656  0.1717 -0.0829 -0.9149
  149MOL   H11727053   5.302   4.896   5.738 -1.4871  0.0096  0.2355
  149MOL   H11827054   5.460   4.951   5.693  0.2805  0.8202 -1.9020
  149MOL   C11927055   5.119   5.056   5.300 -0.1220 -0.2387 -0.7441
  149MOL   C12027056   5.160   5.142   5.174 -0.0000 -0.1343  0.4657
  149MOL   C12127057   5.018   5.126   5.395  0.0364 -0.2156  0.9315
  149MOL   O12227058   5.040   5.142   5.514  0.1277 -0.1187 -0.6287
  149MOL   O12327059   4.910   5.161   5.330  0.2601 -0.3695 -0.6785
  149MOL   H12427060   5.065   4.970   5.262 -0.0982 -0.6324  0.1115
  149MOL   H12527061   5.242   5.202   5.214 -0.6166  0.5428  0.7173
  149MOL   H12627062   5.194   5.075   5.095  0.1518 -2.3624  2.3533
  149MOL   H12727063   5.078   5.206   5.141 -0.8488 -0.6774  1.4990
  149MOL   C12827064   4.797   5.229   5.385 -0.1393  0.1191  0.2231
  149MOL   C12927065   4.706   5.255   5.265 -0.2650  0.2620 -0.0829
  149MOL   C13027066   4.826   5.351   5.468  0.0226 -0.0677 -0.7606
  149MOL   O13127067   4.880   5.451   5.424  0.4185  0.5952 -0.2804
  149MOL   O13227068   4.777   5.338   5.598 -0.3177  0.7573 -0.2811
  149MOL   H13327069   4.748   5.153   5.446 -0.0383 -1.0278 -1.0950
  149MOL   H13427070   4.747   5.329   5.196  0.9086 -1.0436 -0.8032
  149MOL   H13527071   4.692   5.161   5.212  0.2530 -0.7823  1.5943
  149MOL   H13627072   4.608   5.283   5.304 -0.0283  2.3439 -0.8799
  149MOL   C13727073   4.827   5.422   5.697  0.5006  0.2817 -0.1739
  149MOL   C13827074   4.806   5.343   5.826 -0.1437  0.4402 -0.2589
  149MOL   C13927075   4.736   5.553   5.700  0.3226  0.8521 -0.6215
  149MOL   O14027076   4.650   5.569   5.615  0.0457  0.6609 -0.5056
  149MOL   O14127077   4.763   5.640   5.803 -0.0353 -0.2390 -0.0997
  149MOL   H14227078   4.927   5.463   5.684  0.8642 -0.0852  1.4215
  149MOL   H14327079   4.703   5.310   5.845 -0.1941  0.8191  0.1368
  149MOL   H14427080   4.880   5.263   5.826  0.0240  0.5663 -2.8421
  149MOL   H14527081   4.834   5.396   5.917 -1.0433 -3.4098  2.3985
  149MOL   C14627082   4.672   5.754   5.829 -0.7376 -0.4211 -0.4584
  149MOL   C14727083   4.731   5.842   5.937  0.0206 -0.4945  0.3417
  149MOL   C14827084   4.526   5.711   5.862  0.2369  0.8211  0.5414
  149MOL   O14927085   4.427   5.741   5.794 -0.0418  0.0553 -0.2266
  149MOL   O15027086   4.520   5.636   5.978 -0.5131  0.0225 -0.1015
  149MOL   H15127087   4.661   5.812   5.737 -0.2458 -4.0495 -2.9583
  149MOL   H15227088   4.754   5.782   6.025  0.2017 -0.3860  0.3684
  149MOL   H15327089   4.817   5.897   5.898 -0.4497  1.1075  1.4920
  149MOL   H15427090   4.646   5.908   5.956  1.6004  2.1028 -1.2636
  149MOL   C15527091   4.400   5.582   6.035  0.0045  0.2864  0.3168
  149MOL   C15627092   4.429   5.532   6.174  0.2578  0.2938 -0.1547
  149MOL   C15727093   4.346   5.470   5.946  0.1043  0.4602  0.2143
  149MOL   O15827094   4.416   5.374   5.915 -0.0787  0.2179  0.4414
  149MOL   O15927095   4.217   5.477   5.918 -0.2884 -0.7590 -0.0768
  149MOL   H16027096   4.331   5.666   6.040 -0.1321  0.1201  1.3678
  149MOL   H16127097   4.333   5.529   6.226  0.4329 -0.0143  0.1494
  149MOL   H16227098   4.470   5.431   6.170 -0.8784 -0.1451 -1.1664
  149MOL   H16327099   4.510   5.584   6.224 -0.7583 -0.0846  1.9327
  149MOL   C16427100   4.163   5.386   5.818  0.2356 -0.1034 -0.4482
  149MOL   C16527101   4.041   5.463   5.749  0.5868  0.3621 -0.0219
  149MOL   C16627102   4.103   5.267   5.892 -0.1027  0.0581  0.2666
  149MOL   O16727103   4.057   5.269   6.011 -0.7487 -0.8406  0.5469
  149MOL   O16827104   4.102   5.159   5.816 -0.0667 -0.5898  0.2675
  149MOL   H16927105   4.234   5.347   5.745 -0.5834 -1.2481 -0.6618
  149MOL   H17027106   4.072   5.555   5.701  2.2560 -0.2229 -0.0848
  149MOL   H17127107   3.987   5.403   5.676  1.7402 -1.9353  0.9567
  149MOL   H17227108   3.962   5.481   5.822 -1.4147  0.4106 -2.1256
  149MOL   C17327109   4.034   5.042   5.846 -0.2732 -1.2705  0.5921
  149MOL   C17427110   4.097   4.929   5.762  0.5363 -1.3067 -0.3889
  149MOL   C17527111   3.888   5.063   5.813 -0.0009 -0.2662  0.1097
  149MOL   O17627112   3.854   5.164   5.748  0.1737 -0.4636  0.5356
  149MOL   O17727113   3.806   4.967   5.861 -0.3727 -0.1123  0.0068
  149MOL   H17827114   4.046   5.022   5.953  2.2132 -1.7255  0.2458
  149MOL   H17927115   4.200   4.912   5.792  0.5325  0.3576  0.6091
  149MOL   H18027116   4.053   4.833   5.790  0.1591 -1.0279 -0.0234
  149MOL   H18127117   4.087   4.931   5.654  1.7911  1.2931 -0.4850
  149MOL   H18227118   3.854   4.896   5.901 -0.8452 -0.2541  0.3326
  150MOL     C127119   5.782   7.098   2.556  0.3097  0.4099  0.1388
  150MOL     C227120   5.792   7.059   2.705 -0.1238  0.2604 -0.5330
  150MOL     C327121   5.805   7.247   2.530  0.2854 -0.1131 -0.3213
  150MOL     O427122   5.716   7.319   2.486 -0.0875 -0.0117 -0.0053
  150MOL     O527123   5.928   7.291   2.561 -0.4685 -0.0319 -0.3663
  150MOL     H627124   5.856   7.052   2.490  2.6774  1.7218  1.8079
  150MOL     H727125   5.798   6.952   2.723  1.6033  0.4610  0.1785
  150MOL     H827126   5.889   7.100   2.734  0.0904 -0.7051  0.1234
  150MOL     H927127   5.718   7.121   2.756  1.8618  0.0905  2.7008
  150MOL    H1027128   5.678   7.083   2.524  0.1881 -0.0335  0.7419
  150MOL    C1127129   5.980   7.419   2.515 -0.5869  0.1061 -0.0988
  150MOL    C1227130   5.903   7.542   2.565  1.0377 -0.4565  0.8889
  150MOL    C1327131   6.002   7.414   2.363  0.0150 -0.5177 -0.4087
  150MOL    O1427132   6.014   7.309   2.302 -0.0378  0.5270  0.0323
  150MOL    O1527133   6.012   7.535   2.312  0.4784  0.2499 -0.2396
  150MOL    H1627134   6.076   7.434   2.564 -0.4646 -2.0957  0.3684
  150MOL    H1727135   5.866   7.513   2.663  0.0231 -0.8939  0.3801
  150MOL    H1827136   5.953   7.638   2.555 -0.0670 -0.1596 -2.3663
  150MOL    H1927137   5.814   7.552   2.503  0.4940 -1.1129  1.5594
  150MOL    C2027138   6.016   7.540   2.173 -0.3847 -0.0634  0.7926
  150MOL    C2127139   6.057   7.676   2.117 -0.3565  0.1065 -0.4427
  150MOL    C2227140   5.878   7.498   2.113 -0.8703  0.2309 -0.4419
  150MOL    O2327141   5.865   7.474   1.992 -0.2757  0.2059 -0.0549
  150MOL    O2427142   5.778   7.519   2.198 -0.3383 -0.2512 -0.1300
  150MOL    H2527143   6.098   7.474   2.144 -0.0362 -0.1068  1.8460
  150MOL    H2627144   5.994   7.751   2.165 -0.5325  0.4448 -1.1851
  150MOL    H2727145   6.164   7.694   2.122 -0.4626  0.5716  0.1825
  150MOL    H2827146   6.028   7.693   2.013  1.3316 -3.0886 -1.4909
  150MOL    C2927147   5.642   7.488   2.156 -0.1362 -0.0592 -0.4028
  150MOL    C3027148   5.554   7.542   2.269  0.3656  0.4451 -0.5268
  150MOL    C3127149   5.629   7.337   2.130  0.5008  0.2113  0.0043
  150MOL    O3227150   5.647   7.247   2.216 -0.0121  0.3005  0.5801
  150MOL    O3327151   5.588   7.316   2.008 -0.0457  0.0124 -0.2718
  150MOL    H3427152   5.614   7.548   2.069 -2.3397 -0.1186  0.2226
  150MOL    H3527153   5.449   7.523   2.248  0.0934  1.0255  0.2798
  150MOL    H3627154   5.587   7.503   2.365  1.4964  0.3798 -0.9338
  150MOL    H3727155   5.554   7.651   2.272 -1.4593  0.4530  0.0306
  150MOL    C3827156   5.572   7.184   1.955 -0.0179  0.8413 -0.3839
  150MOL    C3927157   5.625   7.189   1.806  0.1532  0.3651 -0.6936
  150MOL    C4027158   5.428   7.143   1.966  0.4689 -0.5222  0.3507
  150MOL    O4127159   5.352   7.190   2.050  0.1068 -0.0415 -0.1657
  150MOL    O4227160   5.389   7.049   1.877 -1.1059  0.2564 -0.0372
  150MOL    H4327161   5.636   7.108   1.999 -0.1572  0.8438 -0.1724
  150MOL    H4427162   5.712   7.255   1.799  0.2507  0.2404 -0.6523
  150MOL    H4527163   5.640   7.091   1.762 -1.1548  0.0047 -0.3338
  150MOL    H4627164   5.548   7.243   1.751 -0.0075 -0.8895 -1.7145
  150MOL    C4727165   5.259   7.008   1.852 -0.3425 -0.3116  0.0536
  150MOL    C4827166   5.283   6.877   1.781 -0.0085  0.2016  0.1566
  150MOL    C4927167   5.190   7.116   1.772  0.5344 -0.4765 -0.1194
  150MOL    O5027168   5.247   7.163   1.671  0.0615 -0.1653  0.0150
  150MOL    O5127169   5.069   7.146   1.822  0.1198  0.1081  0.0793
  150MOL    H5227170   5.219   6.978   1.949 -0.0736 -0.9034 -0.0184
  150MOL    H5327171   5.337   6.807   1.845 -0.6389 -0.8356 -0.4181
  150MOL    H5427172   5.183   6.837   1.766  0.1001 -1.0278  2.4571
  150MOL    H5527173   5.341   6.893   1.690  1.9265  0.6520  1.4465
  150MOL    C5627174   4.980   7.234   1.755 -0.2913 -0.7921  0.2492
  150MOL    C5727175   4.920   7.186   1.622 -0.4338  0.2540  0.7037
  150MOL    C5827176   5.035   7.376   1.736  0.2685 -0.9033  0.8545
  150MOL    O5927177   5.019   7.440   1.632  0.2541 -0.4584 -0.1507
  150MOL    O6027178   5.103   7.415   1.842  0.3995  0.0641 -0.2847
  150MOL    H6127179   4.901   7.257   1.826 -1.5302  0.5932 -1.5250
  150MOL    H6227180   4.997   7.160   1.550 -0.1861 -1.0529  1.4251
  150MOL    H6327181   4.864   7.096   1.649  2.0497 -0.8692  2.2212
  150MOL    H6427182   4.856   7.264   1.581 -2.1168  0.6189  3.8578
  150MOL    C6527183   5.177   7.536   1.850  0.9526  0.0417 -0.4001
  150MOL    C6627184   5.320   7.506   1.895  0.2900 -0.5392  0.4045
  150MOL    C6727185   5.111   7.630   1.949  0.2879 -0.6021 -0.2606
  150MOL    O6827186   4.989   7.626   1.987 -0.8851 -0.6723 -0.0422
  150MOL    O6927187   5.194   7.730   1.978  0.1476  0.8460 -0.4719
  150MOL    H7027188   5.172   7.594   1.758  2.0205  2.3893  0.9834
  150MOL    H7127189   5.319   7.466   1.996  2.0542  3.9801  2.3426
  150MOL    H7227190   5.359   7.427   1.831  0.3537 -0.4630  0.3481
  150MOL    H7327191   5.384   7.594   1.889 -1.7850  1.0426  0.6356
  150MOL    C7427192   5.162   7.834   2.080  0.8963  0.2983  0.1996
  150MOL    C7527193   5.254   7.951   2.043  0.0388 -0.5489 -0.0078
  150MOL    C7627194   5.190   7.797   2.219 -0.1194 -0.2895 -0.1056
  150MOL    O7727195   5.285   7.732   2.248 -0.0033 -0.6088  0.6699
  150MOL    O7827196   5.102   7.840   2.296 -0.2577  0.3398  0.1197
  150MOL    H7927197   5.060   7.873   2.076  0.0342 -1.9496 -1.0207
  150MOL    H8027198   5.358   7.924   2.061 -0.4979 -1.8475  1.2311
  150MOL    H8127199   5.234   7.970   1.937 -1.9139  2.8430  0.8977
  150MOL    H8227200   5.239   8.046   2.094  0.9317 -0.4476  0.0706
  150MOL    C8327201   5.114   7.824   2.441  0.4795  0.8615  0.2320
  150MOL    C8427202   4.979   7.807   2.508  0.4965 -0.5507  0.4694
  150MOL    C8527203   5.210   7.921   2.507  0.0840 -0.0248  0.4106
  150MOL    O8627204   5.258   8.016   2.447  0.4085  0.0752  0.8685
  150MOL    O8727205   5.226   7.896   2.638 -0.3676 -0.3517  0.1002
  150MOL    H8827206   5.158   7.727   2.466  1.4052  1.1034 -0.4172
  150MOL    H8927207   4.926   7.713   2.494 -0.5690  0.1132 -0.0171
  150MOL    H9027208   4.990   7.831   2.613 -1.2177  0.2915  0.4660
  150MOL    H9127209   4.919   7.893   2.476  2.6356  0.1477 -1.8972
  150MOL    C9227210   5.298   7.985   2.731  0.3550 -0.7562  0.1003
  150MOL    C9327211   5.302   7.918   2.868 -0.2191  0.2966  0.2784
  150MOL    C9427212   5.234   8.122   2.733  0.5624  0.6368 -0.4467
  150MOL    O9527213   5.295   0.074   2.735  0.5472 -0.1082  0.2521
  150MOL    O9627214   5.101   8.116   2.730  0.4711  0.2587 -0.0207
  150MOL    H9727215   5.398   7.998   2.690 -0.7754 -0.1214 -2.5765
  150MOL    H9827216   5.337   7.992   2.941 -1.0540  0.7251  0.2502
  150MOL    H9927217   5.201   7.885   2.893 -0.0575 -0.1292  0.3831
  150MOL   H10027218   5.374   7.837   2.858  3.4376  3.5245 -0.6726
  150MOL   C10127219   5.021   0.082   2.699  0.4739 -0.4954 -0.1645
  150MOL   C10227220   4.879   0.045   2.750 -0.8499 -0.1547 -0.7900
  150MOL   C10327221   5.009   0.112   2.551  0.6099 -0.3170  0.1724
  150MOL   O10427222   5.042   0.226   2.509  0.1273 -0.4352  0.3683
  150MOL   O10527223   4.969   0.004   2.480 -0.2831  0.3248  0.0932
  150MOL   H10627224   5.047   0.174   2.752 -1.0997  0.4071 -0.8990
  150MOL   H10727225   4.830   8.109   2.699  0.7867 -1.6059 -0.0592
  150MOL   H10827226   4.885   0.019   2.856 -0.2893 -0.1128 -0.8116
  150MOL   H10927227   4.820   0.135   2.737 -0.5285  0.0926 -0.5377
  150MOL   C11027228   4.923   0.013   2.349 -0.8371 -0.9909  0.0653
  150MOL   C11127229   5.028   0.055   2.242  0.7003 -0.0379 -0.1796
  150MOL   C11227230   4.793   0.099   2.344 -0.1432 -0.2561  0.7203
  150MOL   O11327231   4.777   0.185   2.257  0.1609 -0.4463  0.9048
  150MOL   O11427232   4.706   0.076   2.441 -0.7735  0.2557 -0.5088
  150MOL   H11527233   4.893   8.059   2.324 -0.4854 -0.9631 -0.4652
  150MOL   H11627234   5.061   0.157   2.260 -0.9985  0.3340  0.9778
  150MOL   H11727235   5.112   8.135   2.256 -0.7329 -1.1235  3.5743
  150MOL   H11827236   4.986   0.042   2.142 -0.9499 -0.6438  0.5851
  150MOL   C11927237   4.574   0.140   2.445 -0.4530 -0.5213  0.2633
  150MOL   C12027238   4.541   0.152   2.589  0.3173 -0.7347  0.0421
  150MOL   C12127239   4.478   0.061   2.356 -0.4852  0.2937 -0.4509
  150MOL   O12227240   4.438   0.107   2.246  0.1121  0.3291  0.2368
  150MOL   O12327241   4.454   8.087   2.414  0.2999  0.2687  0.4485
  150MOL   H12427242   4.571   0.246   2.418 -1.2101 -0.8260 -0.9006
  150MOL   H12527243   4.529   0.050   2.624 -1.7627 -0.8688 -1.0148
  150MOL   H12627244   4.618   0.193   2.655 -0.2897  0.2975  0.1166
  150MOL   H12727245   4.445   0.198   2.612 -0.4618 -3.0654  1.5998
  150MOL   C12827246   4.366   7.998   2.344  0.4136 -0.9786 -0.2847
  150MOL   C12927247   4.328   7.888   2.448  0.7645 -0.6505 -0.7555
  150MOL   C13027248   4.439   7.925   2.236 -0.2425  0.4886 -0.1023
  150MOL   O13127249   4.380   7.896   2.133  0.0884 -0.1730 -0.2962
  150MOL   O13227250   4.560   7.869   2.268 -0.3878  0.4246  0.2297
  150MOL   H13327251   4.279   8.058   2.318  0.7487 -0.1229  0.5364
  150MOL   H13427252   4.415   7.834   2.485 -1.1061 -0.0054  5.2029
  150MOL   H13527253   4.272   7.925   2.535  1.2930  1.6508 -1.3551
  150MOL   H13627254   4.268   7.811   2.401  0.1718  0.2123 -1.4308
  150MOL   C13727255   4.635   7.796   2.172  0.5845  0.3740  0.5789
  150MOL   C13827256   4.723   7.714   2.260 -0.3817  0.3063 -0.0714
  150MOL   C13927257   4.712   7.892   2.080  0.5636  0.0731 -0.6933
  150MOL   O14027258   4.768   7.990   2.124 -0.0591 -0.2970 -0.2473
  150MOL   O14127259   4.696   7.858   1.952 -0.7446  0.2033 -0.1108
  150MOL   H14227260   4.570   7.728   2.116  2.2543 -1.0401  0.3061
  150MOL   H14327261   4.790   7.768   2.327 -0.4963  1.0797 -0.5780
  150MOL   H14427262   4.672   7.641   2.323  0.4604 -0.2560 -0.0277
  150MOL   H14527263   4.806   7.673   2.203 -1.3811 -0.9278 -0.6872
  150MOL   C14627264   4.728   7.960   1.848  0.6937  0.9710  0.2792
  150MOL   C14727265   4.662   7.909   1.718 -0.7527  0.0653 -0.3528
  150MOL   C14827266   4.880   7.974   1.815 -0.4640  0.1355 -0.2754
  150MOL   O14927267   4.960   7.884   1.836 -0.1319 -0.0337 -0.1492
  150MOL   O15027268   4.904   8.099   1.750 -0.2386 -0.3549 -0.0677
  150MOL   H15127269   4.684   8.058   1.865  0.2674  0.9779 -0.8246
  150MOL   H15227270   4.558   7.878   1.726 -0.5260 -0.0833  2.3531
  150MOL   H15327271   4.667   7.991   1.645  0.4454  0.2592 -0.0534
  150MOL   H15427272   4.712   7.823   1.672 -2.0564 -0.8799 -0.0348
  150MOL   C15527273   5.026   8.125   1.686 -0.5908 -0.1903 -0.3906
  150MOL   C15627274   5.039   0.128   1.653 -0.5143  0.0914  1.0147
  150MOL   C15727275   5.041   8.034   1.562 -0.1434  0.2748  0.0902
  150MOL   O15827276   4.984   8.060   1.452 -0.0359  0.4141  0.0912
  150MOL   O15927277   5.113   7.915   1.594  0.2034  0.2786  0.0226
  150MOL   H16027278   5.104   8.095   1.756 -0.6502  0.3587 -0.0884
  150MOL   H16127279   4.969   0.159   1.576 -0.3573 -0.7299  0.5325
  150MOL   H16227280   5.054   0.197   1.736  0.6896 -1.4972  2.1584
  150MOL   H16327281   5.128   0.136   1.591 -1.4092  0.2209 -0.2721
  150MOL   C16427282   5.131   7.823   1.492  0.3712  0.5359  0.8829
  150MOL   C16527283   5.009   7.737   1.511 -0.0190 -0.4758  1.3948
  150MOL   C16627284   5.264   7.750   1.508  0.4470  0.1184  0.2172
  150MOL   O16727285   5.355   7.792   1.573  0.5621  0.3930 -0.0948
  150MOL   O16827286   5.268   7.635   1.440  0.5690 -0.6167 -0.8174
  150MOL   H16927287   5.137   7.864   1.391 -3.0802  2.6573  1.4549
  150MOL   H17027288   4.914   7.785   1.488  0.6910  1.1676  1.7546
  150MOL   H17127289   5.011   7.647   1.450  0.3020  0.0617  0.5973
  150MOL   H17227290   5.000   7.700   1.613  0.4276 -0.4605  1.4443
  150MOL   C17327291   5.387   7.559   1.424 -0.3729 -0.4044 -0.0707
  150MOL   C17427292   5.384   7.524   1.277  0.5980  0.5203  0.4312
  150MOL   C17527293   5.376   7.437   1.516  0.2613  0.1866 -0.0397
  150MOL   O17627294   5.457   7.409   1.600 -0.4343 -0.4057  0.0842
  150MOL   O17727295   5.270   7.364   1.489  0.0043 -0.0367  0.0135
  150MOL   H17827296   5.477   7.616   1.450 -0.8168 -0.0268  0.6589
  150MOL   H17927297   5.292   7.476   1.244 -0.6728  0.8804  3.3471
  150MOL   H18027298   5.398   7.615   1.219 -2.4509  0.3147 -0.7143
  150MOL   H18127299   5.467   7.458   1.249  1.2461  1.9486 -1.1035
  150MOL   H18227300   5.257   7.294   1.552  2.6630 -0.3598  0.2453
  151MOL     C127301   4.671   0.118   1.353  0.7910 -0.3201 -0.2097
  151MOL     C227302   4.799   0.205   1.355 -0.5028 -0.0483  0.3418
  151MOL     C327303   4.698   8.141   1.275 -0.2335 -0.8932  0.2968
  151MOL     O427304   4.744   8.045   1.333  0.3144  1.1019  0.3076
  151MOL     O527305   4.646   8.138   1.149 -0.0799 -0.0041  0.6695
  151MOL     H627306   4.646   0.082   1.453  0.4596 -2.2417 -0.9635
  151MOL     H727307   4.798   0.258   1.450 -0.0324  0.2465  0.1835
  151MOL     H827308   4.885   0.140   1.341 -0.9031 -0.4746 -0.1677
  151MOL     H927309   4.804   0.283   1.279  3.3014 -0.2617  0.3098
  151MOL    H1027310   4.592   0.182   1.315  0.9924 -0.4632 -0.8708
  151MOL    C1127311   4.660   8.019   1.073  0.4880 -0.5537  0.0647
  151MOL    C1227312   4.625   8.059   0.930 -0.1191  0.1373  0.3729
  151MOL    C1327313   4.564   7.909   1.121 -0.1166 -0.4610 -0.2167
  151MOL    O1427314   4.460   7.885   1.058 -0.2601  0.2616  0.7320
  151MOL    O1527315   4.607   7.846   1.222  0.5713 -0.2823 -0.1065
  151MOL    H1627316   4.762   7.982   1.077  0.4356 -0.5784  1.4533
  151MOL    H1727317   4.634   7.978   0.857  0.4222 -1.3741  2.0785
  151MOL    H1827318   4.524   8.101   0.930  0.4202  1.4935 -1.5193
  151MOL    H1927319   4.697   8.128   0.885 -0.4286 -0.5180 -1.1430
  151MOL    C2027320   4.539   7.734   1.275 -0.5293 -0.1655  0.1547
  151MOL    C2127321   4.613   7.714   1.410 -0.0147 -0.5005 -0.0403
  151MOL    C2227322   4.531   7.605   1.194 -0.0122 -0.0296 -0.0941
  151MOL    O2327323   4.564   7.591   1.076 -0.4079 -0.2015 -0.0480
  151MOL    O2427324   4.476   7.507   1.269  0.4316  0.1645  0.2922
  151MOL    H2527325   4.437   7.766   1.295 -0.0382  1.1800  0.6092
  151MOL    H2627326   4.720   7.707   1.388 -0.3967 -1.2102 -1.8155
  151MOL    H2727327   4.592   7.800   1.474  0.2412  0.5129 -1.3039
  151MOL    H2827328   4.581   7.626   1.466  0.1610 -0.3367  0.3170
  151MOL    C2927329   4.441   7.378   1.208 -0.2089  0.6531  0.4396
  151MOL    C3027330   4.309   7.327   1.274  0.9453 -0.2984 -0.3674
  151MOL    C3127331   4.562   7.275   1.218  0.1530 -0.1320 -0.5219
  151MOL    O3227332   4.545   7.151   1.214 -0.5309  0.0021 -0.2501
  151MOL    O3327333   4.681   7.345   1.224 -0.0667 -0.2382 -0.2895
  151MOL    H3427334   4.422   7.395   1.102 -1.5541  0.3824  0.6306
  151MOL    H3527335   4.278   7.230   1.235 -0.0302  0.1579 -0.7479
  151MOL    H3627336   4.303   7.321   1.383 -3.5070 -1.1300 -0.5868
  151MOL    H3727337   4.224   7.392   1.253 -0.1943 -1.1584  1.4299
  151MOL    C3827338   4.807   7.283   1.234  0.6706 -0.1876 -0.5504
  151MOL    C3927339   4.925   7.378   1.289 -0.0837 -0.4470 -0.1483
  151MOL    C4027340   4.832   7.207   1.102  0.0606  0.1288  1.0166
  151MOL    O4127341   4.818   7.087   1.078  0.1149 -1.1789 -1.1600
  151MOL    O4227342   4.879   7.300   1.010 -0.7850  0.2402 -0.0762
  151MOL    H4327343   4.796   7.194   1.296  2.5458  0.4677  0.7620
  151MOL    H4427344   5.022   7.329   1.277 -0.5910 -1.0019 -2.0578
  151MOL    H4527345   4.935   7.477   1.246  1.1925  0.5599  2.3087
  151MOL    H4627346   4.895   7.397   1.393  3.1644 -0.4203  0.8476
  151MOL    C4727347   4.938   7.255   0.883 -0.7591 -0.5032  0.1411
  151MOL    C4827348   5.087   7.282   0.871 -0.1738 -0.0360  0.1041
  151MOL    C4927349   4.862   7.329   0.773  0.0042  0.5751 -0.1700
  151MOL    O5027350   4.809   7.264   0.678 -0.3555 -0.6103  0.0098
  151MOL    O5127351   4.868   7.461   0.789 -0.5728 -0.1178  0.4747
  151MOL    H5227352   4.917   7.149   0.873  0.5336 -0.9381  1.8452
  151MOL    H5327353   5.149   7.200   0.906  0.8490  1.0760  0.9294
  151MOL    H5427354   5.103   7.280   0.763 -0.0269  0.6165  0.1142
  151MOL    H5527355   5.129   7.375   0.909 -0.5912  0.4140 -0.5285
  151MOL    C5627356   4.816   7.562   0.698 -0.6333  1.1803 -0.4001
  151MOL    C5727357   4.674   7.602   0.723 -0.0483  0.9833 -0.0182
  151MOL    C5827358   4.838   7.527   0.550 -0.0817 -0.3257 -0.2709
  151MOL    O5927359   4.748   7.532   0.464  0.2633 -0.4985 -0.4124
  151MOL    O6027360   4.960   7.499   0.511  0.0542  0.0756  0.1415
  151MOL    H6127361   4.879   7.650   0.714  1.3343 -0.1873 -0.3436
  151MOL    H6227362   4.606   7.547   0.657  0.5619 -0.7031  0.7490
  151MOL    H6327363   4.669   7.571   0.827  0.0312  1.7980  0.2365
  151MOL    H6427364   4.653   7.705   0.692 -2.3171  0.4596 -0.2971
  151MOL    C6527365   4.997   7.505   0.374 -0.0815 -0.4593  0.2053
  151MOL    C6627366   5.136   7.430   0.370  0.0335 -0.0230 -0.4117
  151MOL    C6727367   5.000   7.651   0.318  0.1281  0.1206 -0.2571
  151MOL    O6827368   5.077   7.731   0.367  0.2328 -0.6248  0.2211
  151MOL    O6927369   4.913   7.672   0.220  0.1741  0.2686  0.4415
  151MOL    H7027370   4.924   7.451   0.313  0.1057 -0.4169 -0.0572
  151MOL    H7127371   5.132   7.328   0.332 -1.0124  0.8549 -2.7711
  151MOL    H7227372   5.201   7.477   0.296  0.4581 -1.1309 -0.7528
  151MOL    H7327373   5.188   7.422   0.466 -3.2807 -2.2871  1.2782
  151MOL    C7427374   4.900   7.798   0.157 -0.9027 -0.5777  0.0626
  151MOL    C7527375   4.758   7.813   0.087 -0.4735 -0.1445 -0.2338
  151MOL    C7627376   5.009   7.821   0.051 -0.2907  0.7907 -0.1465
  151MOL    O7727377   5.082   7.724   0.009 -0.3106  0.2513 -0.7192
  151MOL    O7827378   5.012   7.951   0.010  0.0522  0.3511  0.4076
  151MOL    H7927379   4.905   7.881   0.228  0.8760 -0.7433  0.1573
  151MOL    H8027380   4.688   7.810   0.171  2.3561 -0.0984  2.2455
  151MOL    H8127381   4.760   7.907   0.032 -1.9105 -0.4616 -0.8388
  151MOL    H8227382   4.736   7.729   0.022  0.7529 -0.2050 -0.5840
  151MOL    C8327383   5.085   7.995   8.048 -0.1145  0.0852 -0.3374
  151MOL    C8427384   5.101   8.147   8.046 -0.2226  0.2114  0.0186
  151MOL    C8527385   5.027   7.946   7.915  0.3007  0.7937  0.9171
  151MOL    O8627386   5.095   7.917   7.824 -0.2130 -0.1952  1.0985
  151MOL    O8727387   4.886   7.951   7.915  0.2838  0.6338 -0.3027
  151MOL    H8827388   5.182   7.945   8.057 -0.3506 -0.7724 -2.2895
  151MOL    H8927389   5.115   0.037   7.945 -1.3611 -2.7840 -1.3392
  151MOL    H9027390   5.008   0.046   8.077 -0.6913  0.4697 -1.7152
  151MOL    H9127391   5.164   0.042   8.124  1.7961 -0.5476 -1.1526
  151MOL    C9227392   4.814   7.916   7.793 -0.0680 -0.1196  0.1236
  151MOL    C9327393   4.700   8.020   7.781  0.4597  1.0861 -0.6326
  151MOL    C9427394   4.756   7.772   7.803 -0.3665  0.3910  0.0264
  151MOL    O9527395   4.782   7.705   7.904  0.4116  0.0603 -0.1922
  151MOL    O9627396   4.691   7.728   7.690 -0.0015 -0.5073 -0.3250
  151MOL    H9727397   4.885   7.925   7.711 -1.0676 -0.3433 -0.7699
  151MOL    H9827398   4.643   8.009   7.688 -4.2094 -0.0248  2.1461
  151MOL    H9927399   4.624   7.999   7.856  1.5962  2.5860  0.9807
  151MOL   H10027400   4.736   8.121   7.798  1.8852  0.4858 -0.0350
  151MOL   C10127401   4.639   7.596   7.680  0.9760  0.1465  1.2399
  151MOL   C10227402   4.642   7.576   7.526 -0.1600  0.4781 -0.3144
  151MOL   C10327403   4.498   7.593   7.735 -0.3015 -0.4783  0.1376
  151MOL   O10427404   4.448   7.679   7.799  0.0040  0.5689 -0.3289
  151MOL   O10527405   4.435   7.491   7.691 -0.3337  0.5418  0.2889
  151MOL   H10627406   4.706   7.521   7.720  1.3037  0.7430  1.8061
  151MOL   H10727407   4.744   7.597   7.491 -0.8015  1.2746 -1.7470
  151MOL   H10827408   4.612   7.478   7.491 -0.9182  0.5870  0.0300
  151MOL   H10927409   4.576   7.650   7.482 -0.0651 -0.5486 -2.2305
  151MOL   C11027410   4.301   7.465   7.707 -0.7548 -1.1181  0.7656
  151MOL   C11127411   4.267   7.313   7.685 -0.4805  0.0665  0.1088
  151MOL   C11227412   4.216   7.553   7.622  0.5858 -0.3315 -0.5630
  151MOL   O11327413   4.264   7.637   7.545  0.6205  0.1892 -0.3791
  151MOL   O11427414   4.076   7.519   7.630 -0.5036  0.8053 -0.0297
  151MOL   H11527415   4.263   7.484   7.807 -0.5314 -1.9094  1.0077
  151MOL   H11627416   4.291   7.287   7.582 -1.6791  1.4346 -0.5316
  151MOL   H11727417   4.318   7.243   7.751 -0.5586 -1.9285 -1.8920
  151MOL   H11827418   4.161   7.289   7.695 -0.1945 -1.4891 -0.4836
  151MOL   C11927419   3.985   7.589   7.551  0.1886 -0.0821  0.1534
  151MOL   C12027420   3.843   7.574   7.614 -0.7021  0.4618 -0.4720
  151MOL   C12127421   4.002   7.550   7.405  0.4228 -0.3955  0.3974
  151MOL   O12227422   4.060   7.449   7.365  0.5304 -0.0382  0.0345
  151MOL   O12327423   3.968   7.655   7.327  0.1075  0.7905 -0.4368
  151MOL   H12427424   4.007   7.695   7.553  0.4955 -0.1540  0.7425
  151MOL   H12527425   3.768   7.613   7.545 -1.3583  1.1841  0.6326
  151MOL   H12627426   3.816   7.469   7.623 -2.8641  1.1267  0.9864
  151MOL   H12727427   3.829   7.637   7.702  0.3199 -1.8428  1.4076
  151MOL   C12827428   3.970   7.641   7.187  0.1068  1.6212  0.2171
  151MOL   C12927429   4.101   7.692   7.136 -0.7763 -0.3910  0.6054
  151MOL   C13027430   3.857   7.727   7.139 -0.6458  0.2760 -0.2685
  151MOL   O13127431   3.760   7.674   7.088 -0.1027  0.1245 -0.1595
  151MOL   O13227432   3.883   7.860   7.140 -0.0171  0.4248 -0.1167
  151MOL   H13327433   3.951   7.539   7.156 -0.6631  1.1814  2.0485
  151MOL   H13427434   4.188   7.632   7.161 -0.4845  0.4172  1.5432
  151MOL   H13527435   4.090   7.691   7.027  1.8149  1.7892  0.2839
  151MOL   H13627436   4.144   7.786   7.170  0.5428 -1.4376  1.8616
  151MOL   C13727437   3.806   7.954   7.070  0.1361 -0.2858  0.3334
  151MOL   C13827438   3.887   8.086   7.073 -0.5196  0.1567 -0.2767
  151MOL   C13927439   3.665   7.974   7.140 -0.1141  0.1588  0.0313
  151MOL   O14027440   3.562   7.931   7.095 -0.3902 -0.0196 -0.2201
  151MOL   O14127441   3.689   8.012   7.266 -0.6614 -0.0394  0.4728
  151MOL   H14227442   3.790   7.926   6.965  0.1662  1.5517 -0.1835
  151MOL   H14327443   3.894   8.127   7.174 -0.6797 -0.3447 -0.0639
  151MOL   H14427444   3.990   8.070   7.040 -0.8049  2.4790 -2.4368
  151MOL   H14527445   3.845   0.006   6.999  1.2844 -1.5178 -2.8899
  151MOL   C14627446   3.588   7.996   7.368 -0.0774  0.6316  0.2083
  151MOL   C14727447   3.628   8.085   7.489 -0.0698  0.0390  0.0432
  151MOL   C14827448   3.578   7.845   7.412 -0.2622 -0.3270 -0.2403
  151MOL   O14927449   3.669   7.768   7.399 -0.0224  0.2052 -0.9385
  151MOL   O15027450   3.448   7.810   7.460  0.7020  0.0153  0.6812
  151MOL   H15127451   3.489   8.016   7.328 -1.3846 -0.8429  2.6102
  151MOL   H15227452   3.648   0.041   7.461 -0.6999  0.2316  0.2953
  151MOL   H15327453   3.554   8.072   7.568 -0.1731  1.0185  0.1116
  151MOL   H15427454   3.718   8.052   7.541  1.3566 -0.4133 -2.6226
  151MOL   C15527455   3.437   7.676   7.515  0.0485  0.5011  0.2178
  151MOL   C15627456   3.289   7.637   7.515 -0.3658 -0.7883  0.1643
  151MOL   C15727457   3.496   7.669   7.655  0.5709  0.4988 -0.3347
  151MOL   O15827458   3.551   7.766   7.704  0.3323  0.1635 -0.4039
  151MOL   O15927459   3.482   7.551   7.715  0.0385  0.3322 -0.4255
  151MOL   H16027460   3.492   7.607   7.451  1.1254 -0.8762  2.5586
  151MOL   H16127461   3.264   7.541   7.560 -0.8949 -0.0544  1.4516
  151MOL   H16227462   3.224   7.703   7.573 -0.0575 -0.3555  0.0217
  151MOL   H16327463   3.250   7.645   7.414 -0.2348 -1.2690  0.0730
  151MOL   C16427464   3.521   7.524   7.847 -0.0583 -0.0918 -0.2161
  151MOL   C16527465   3.481   7.380   7.868  0.3832 -0.4776  0.1779
  151MOL   C16627466   3.465   7.618   7.959  0.6084 -0.1324  0.1710
  151MOL   O16727467   3.356   7.594   8.011 -0.2393 -0.9637  0.0193
  151MOL   O16827468   3.550   7.718   7.994 -0.1311  0.2779 -0.5215
  151MOL   H16927469   3.630   7.535   7.851 -0.2387  1.1608  1.7425
  151MOL   H17027470   3.376   7.353   7.856 -0.0074  0.3155  1.6972
  151MOL   H17127471   3.538   7.317   7.800  0.2541  1.3182 -1.6596
  151MOL   H17227472   3.494   7.351   7.972 -0.8627  1.5393  0.9222
  151MOL   C17327473   3.537   7.808   8.098 -0.5118 -0.3477 -0.3453
  151MOL   C17427474   3.638   7.930   8.079 -0.0146  0.6144  0.6859
  151MOL   C17527475   3.546   7.737   0.085  0.1502  0.0327  0.0900
  151MOL   O17627476   3.457   7.732   0.165 -0.8492  0.0359 -0.2599
  151MOL   O17727477   3.667   7.690   0.115 -0.6374 -0.1884 -0.0824
  151MOL   H17827478   3.433   7.843   8.097  0.6764  3.3754  0.2849
  151MOL   H17927479   3.616   8.006   0.006  0.9842  1.0187  0.5786
  151MOL   H18027480   3.744   7.907   8.086 -0.0307  1.3009  3.4508
  151MOL   H18127481   3.626   7.975   7.980  0.0665 -3.1485 -1.1064
  151MOL   H18227482   3.689   7.689   0.207 -0.2911  1.5219 -0.1348
  152MOL     C127483   0.829   5.710   6.760 -0.0726 -0.2762 -0.6965
  152MOL     C227484   0.804   5.846   6.814 -0.3176  0.0344  0.1861
  152MOL     C327485   0.755   5.700   6.625 -0.4044  0.2279 -0.4183
  152MOL     O427486   0.818   5.688   6.517  0.0199 -0.0235 -0.3286
  152MOL     O527487   0.623   5.708   6.645  0.5724 -0.5440  0.4337
  152MOL     H627488   0.935   5.689   6.745 -0.5308 -2.4392 -1.1099
  152MOL     H727489   0.840   5.925   6.749 -0.2133  2.6148  3.2539
  152MOL     H827490   0.698   5.866   6.827 -0.0373  1.0776  0.9582
  152MOL     H927491   0.863   5.863   6.905 -1.1247 -1.6279  1.0374
  152MOL    H1027492   0.788   5.637   6.830  0.7573  0.4389  0.5732
  152MOL    C1127493   0.532   5.696   6.537 -0.3095 -0.6696  0.1705
  152MOL    C1227494   0.393   5.665   6.598 -0.3226 -0.0833  0.4988
  152MOL    C1327495   0.575   5.594   6.420  0.0667 -0.4785 -0.4534
  152MOL    O1427496   0.605   5.635   6.307  0.8136  0.2414  0.3258
  152MOL    O1527497   0.572   5.466   6.457 -0.6462 -0.2078  0.3609
  152MOL    H1627498   0.530   5.800   6.505  0.2000 -1.5479 -2.8860
  152MOL    H1727499   0.397   5.563   6.636 -0.1846 -1.3521 -2.7494
  152MOL    H1827500   0.364   5.740   6.672  0.9243 -0.7008  1.6477
  152MOL    H1927501   0.313   5.669   6.524  0.1599 -1.8742 -0.1433
  152MOL    C2027502   0.616   5.366   6.361  1.0968  0.4870 -0.7309
  152MOL    C2127503   0.557   5.236   6.410 -0.7991 -0.4195  0.5380
  152MOL    C2227504   0.775   5.358   6.363 -0.3835 -0.3891  0.3595
  152MOL    O2327505   0.840   5.411   6.454  0.6717 -0.2745  0.2913
  152MOL    O2427506   0.826   5.295   6.245  0.3782  0.0994 -0.1377
  152MOL    H2527507   0.590   5.391   6.258 -1.1196 -0.3880 -0.4280
  152MOL    H2627508   0.449   5.232   6.395 -0.7144  2.1467 -0.9290
  152MOL    H2727509   0.595   5.150   6.354 -0.6605 -0.3625  0.5463
  152MOL    H2827510   0.580   5.201   6.511  1.0614 -0.0406  0.2571
  152MOL    C2927511   0.961   5.292   6.208 -0.8138 -0.2791  0.6165
  152MOL    C3027512   0.968   5.287   6.053  0.3200 -0.3679  0.0831
  152MOL    C3127513   1.040   5.180   6.281  1.4598 -0.3631 -0.0432
  152MOL    O3227514   1.110   5.201   6.375  0.2129 -0.3693  0.7921
  152MOL    O3327515   1.032   5.058   6.216 -0.2193 -0.3877 -0.5472
  152MOL    H3427516   0.999   5.386   6.248  0.5773  0.8845 -3.2067
  152MOL    H3527517   0.911   5.367   6.006 -0.5180 -0.0351  1.6378
  152MOL    H3627518   1.070   5.294   6.016 -0.8787  1.4208 -3.1168
  152MOL    H3727519   0.928   5.194   6.012 -0.1279 -0.0176 -0.2936
  152MOL    C3827520   1.086   4.937   6.274 -0.7093  0.2764 -0.9345
  152MOL    C3927521   1.101   4.824   6.170  0.1603  0.8381 -0.5077
  152MOL    C4027522   0.997   4.871   6.380  0.6038 -0.1940 -0.2775
  152MOL    O4127523   1.038   4.834   6.486 -0.3763 -0.6323  0.1297
  152MOL    O4227524   0.872   4.880   6.345 -0.2082  0.3716  0.9134
  152MOL    H4327525   1.189   4.938   6.310 -0.3051 -1.3313 -2.0026
  152MOL    H4427526   1.007   4.790   6.127  0.0642 -0.8959  1.0208
  152MOL    H4527527   1.185   4.848   6.105  1.5840 -0.4182  0.8147
  152MOL    H4627528   1.133   4.736   6.226 -0.1455  1.3470  0.4597
  152MOL    C4727529   0.768   4.856   6.440  0.2667  0.3069 -0.0755
  152MOL    C4827530   0.641   4.814   6.366  0.0385  0.2524 -0.4278
  152MOL    C4927531   0.745   4.975   6.539 -0.1258 -0.1044 -0.6623
  152MOL    O5027532   0.800   5.087   6.519 -0.6825 -0.5984  0.0503
  152MOL    O5127533   0.668   4.949   6.649  0.0054 -0.0683 -0.9883
  152MOL    H5227534   0.798   4.767   6.496  0.0111 -0.1981 -0.7311
  152MOL    H5327535   0.595   4.892   6.305  0.6827 -0.6852 -2.1395
  152MOL    H5427536   0.651   4.728   6.300  0.2599 -1.4306  1.7518
  152MOL    H5527537   0.564   4.787   6.438 -3.3889 -3.0296 -5.0125
  152MOL    C5627538   0.642   5.050   6.752  0.3176  0.4777  1.0102
  152MOL    C5727539   0.721   5.010   6.875 -0.1950  0.4854  0.6026
  152MOL    C5827540   0.491   5.062   6.772  0.2693  0.7321 -0.3507
  152MOL    O5927541   0.440   5.066   6.889 -0.3668  0.7855  0.0096
  152MOL    O6027542   0.425   5.067   6.658 -0.1643 -0.0969  1.1094
  152MOL    H6127543   0.674   5.151   6.726  0.8958 -0.6156 -2.7091
  152MOL    H6227544   0.700   5.074   6.960 -0.5062 -1.5063  2.0677
  152MOL    H6327545   0.711   4.904   6.900 -1.2555  1.2578  3.6951
  152MOL    H6427546   0.824   5.035   6.853 -0.0893  0.1735  0.7479
  152MOL    C6527547   0.291   5.096   6.645 -0.2272 -0.6023  0.0393
  152MOL    C6627548   0.232   5.050   6.505  0.1222 -0.5555  0.2306
  152MOL    C6727549   0.270   5.247   6.663 -0.3608  0.2807  0.1271
  152MOL    O6827550   0.364   5.325   6.665 -0.4416 -0.0962  0.1679
  152MOL    O6927551   0.146   5.275   6.685 -0.2476 -0.0572 -0.6738
  152MOL    H7027552   0.235   5.047   6.724 -0.2340 -0.6916 -0.0198
  152MOL    H7127553   0.271   5.121   6.432 -1.2201 -0.9925 -0.9336
  152MOL    H7227554   0.256   4.947   6.479  0.0638 -0.2056 -1.2696
  152MOL    H7327555   0.123   5.059   6.504 -0.0723 -2.0659  2.8974
  152MOL    C7427556   0.100   5.417   6.695 -0.4561  0.4369  0.5141
  152MOL    C7527557   8.116   5.413   6.773 -0.4321  0.0901 -0.3173
  152MOL    C7627558   0.069   5.464   6.552 -0.4109  0.0309  0.6725
  152MOL    O7727559   0.084   5.583   6.524 -0.0924 -0.1607 -0.6618
  152MOL    O7827560   0.021   5.367   6.469 -0.0419  0.3567 -0.3775
  152MOL    H7927561   0.176   5.485   6.734  2.8025  0.1032 -4.7799
  152MOL    H8027562   8.048   5.493   6.744  0.1579  1.0180  0.8279
  152MOL    H8127563   8.062   5.320   6.755 -1.3059  0.4846  0.2529
  152MOL    H8227564   8.139   5.422   6.879 -0.9234  1.7773 -0.3500
  152MOL    C8327565   0.008   5.389   6.332 -0.2054 -0.9108 -0.1331
  152MOL    C8427566   8.098   5.259   6.273  0.6001  0.5790 -0.4085
  152MOL    C8527567   0.140   5.428   6.257  0.5931  0.5313 -0.5246
  152MOL    O8627568   0.251   5.386   6.288 -0.0024  0.0066 -0.3009
  152MOL    O8727569   0.118   5.510   6.141  0.2851 -0.3630 -0.8356
  152MOL    H8827570   8.086   5.474   6.334  1.5269  0.5174  0.6284
  152MOL    H8927571   8.045   5.265   6.178  0.4734  1.1313 -0.2998
  152MOL    H9027572   0.032   5.186   6.275 -0.9770 -1.1952  0.7255
  152MOL    H9127573   8.028   5.223   6.348  1.3118  0.7073  0.3226
  152MOL    C9227574   0.222   5.549   6.056 -0.4222 -0.0039  0.1380
  152MOL    C9327575   0.177   5.677   5.979  0.0464  0.1105  0.3454
  152MOL    C9427576   0.242   5.435   5.953  0.0075  0.7380  0.1072
  152MOL    O9527577   0.147   5.386   5.894  0.5625 -0.1635  0.4156
  152MOL    O9627578   0.374   5.406   5.940 -0.1747  0.6074  0.0246
  152MOL    H9727579   0.311   5.572   6.115 -1.4892 -0.5133  1.9483
  152MOL    H9827580   0.121   5.738   6.049 -1.4889 -0.0160 -0.7514
  152MOL    H9927581   0.263   5.712   5.923  1.0284 -1.8289  0.6097
  152MOL   H10027582   0.106   5.652   5.901  0.4052  0.4000 -0.0750
  152MOL   C10127583   0.421   5.308   5.841 -0.6846 -0.2679  0.4235
  152MOL   C10227584   0.567   5.257   5.881 -0.0411 -0.5539 -0.1669
  152MOL   C10327585   0.422   5.369   5.700  0.3562 -0.0751 -0.4858
  152MOL   O10427586   0.362   5.311   5.609  0.1347 -0.1691  0.0524
  152MOL   O10527587   0.483   5.492   5.705 -0.7282 -0.1447 -0.0452
  152MOL   H10627588   0.351   5.224   5.841  1.7219 -2.3432 -0.7680
  152MOL   H10727589   0.628   5.223   5.798  0.5915 -2.4841  1.0607
  152MOL   H10827590   0.618   5.349   5.912 -0.5498 -0.2601 -0.1936
  152MOL   H10927591   0.575   5.187   5.964  1.9980  0.6800  0.7112
  152MOL   C11027592   0.464   5.583   5.591 -0.1024  0.0465 -0.2078
  152MOL   C11127593   0.592   5.663   5.586  0.1395  0.1875 -0.0141
  152MOL   C11227594   0.334   5.665   5.603  0.2665 -0.2901  0.3170
  152MOL   O11327595   0.335   5.782   5.639  0.1057  0.4862  0.0343
  152MOL   O11427596   0.227   5.584   5.573 -0.0461 -0.1714 -0.1266
  152MOL   H11527597   0.458   5.535   5.494  0.2539 -1.9513  0.7401
  152MOL   H11627598   0.617   5.688   5.483  1.2972  2.7673  0.8613
  152MOL   H11727599   0.587   5.755   5.644 -4.1517 -0.3039  0.5469
  152MOL   H11827600   0.675   5.605   5.626  0.7962  0.3483 -1.1287
  152MOL   C11927601   0.095   5.640   5.576  0.3722 -0.3750  0.0479
  152MOL   C12027602   8.135   5.535   5.618  0.2321  0.7521  0.4643
  152MOL   C12127603   0.065   5.725   5.455  0.0953  0.3362  0.0704
  152MOL   O12227604   0.010   5.674   5.362  0.8807  0.3108 -0.0856
  152MOL   O12327605   0.124   5.852   5.459  0.6631  0.4670  0.3231
  152MOL   H12427606   0.092   5.705   5.664 -0.2030 -0.7028  0.2769
  152MOL   H12527607   0.018   5.440   5.575  2.0179  1.3380  0.4105
  152MOL   H12627608   8.126   5.523   5.726 -1.2670  0.7207  0.3441
  152MOL   H12727609   8.042   5.576   5.578  0.2066  2.8097  2.5142
  152MOL   C12827610   0.086   5.958   5.371 -0.8905  0.3411  0.1031
  152MOL   C12927611   0.172   6.084   5.367 -0.0815 -0.7409 -0.5740
  152MOL   C13027612   8.093   6.005   5.406 -0.0952 -0.3264  0.7126
  152MOL   O13127613   8.007   5.990   5.323 -0.0592  0.1056 -0.0842
  152MOL   O13227614   8.075   6.033   5.534 -0.4784 -0.9240  0.5843
  152MOL   H13327615   0.100   5.913   5.273  1.0594  0.2136  0.4332
  152MOL   H13427616   0.126   6.155   5.298  0.0916  0.7174  0.7830
  152MOL   H13527617   0.185   6.122   5.468 -1.6770  1.1563 -1.0437
  152MOL   H13627618   0.277   6.062   5.350  0.7907  2.1446  0.8172
  152MOL   C13727619   7.944   6.050   5.586  0.3046  0.9933  0.7938
  152MOL   C13827620   7.951   6.143   5.708 -0.5974 -0.1505 -0.3762
  152MOL   C13927621   7.893   5.915   5.643  0.7118  0.5366  0.3592
  152MOL   O14027622   7.975   5.829   5.680  0.0910  0.0163  0.1077
  152MOL   O14127623   7.758   5.905   5.643 -0.3028 -0.0632 -0.2497
  152MOL   H14227624   7.870   6.072   5.509 -2.6768 -1.1181  2.9241
  152MOL   H14327625   7.860   6.134   5.766 -0.7286 -1.1130 -0.7104
  152MOL   H14427626   8.041   6.119   5.765 -1.6723 -0.2462  1.2925
  152MOL   H14527627   7.962   6.249   5.685  0.0964 -0.3641 -1.0584
  152MOL   C14627628   7.683   5.803   5.725 -0.5764  0.3704  0.2145
  152MOL   C14727629   7.537   5.834   5.714  0.6362  0.4152 -0.6556
  152MOL   C14827630   7.730   5.808   5.874 -0.1244  0.8085 -0.6477
  152MOL   O14927631   7.681   5.884   5.959  0.6324  0.2764  0.6024
  152MOL   O15027632   7.819   5.713   5.897  0.2142 -0.2331 -0.4476
  152MOL   H15127633   7.700   5.701   5.690  0.5654  0.6556 -0.0885
  152MOL   H15227634   7.479   5.765   5.652  0.7546  1.4287 -1.8964
  152MOL   H15327635   7.491   5.831   5.813  1.0984 -1.2646 -0.4691
  152MOL   H15427636   7.518   5.935   5.679 -0.9080  0.2960 -0.2157
  152MOL   C15527637   7.829   5.639   6.024  0.3641  0.0501  0.1518
  152MOL   C15627638   7.929   5.529   6.003 -0.0194 -0.5491  0.3211
  152MOL   C15727639   7.694   5.571   6.054  0.1304  0.3346  0.1211
  152MOL   O15827640   7.666   5.534   6.170 -0.1823  0.0453  0.3464
  152MOL   O15927641   7.624   5.536   5.941  0.1118  0.0202 -0.1805
  152MOL   H16027642   7.854   5.711   6.101  1.7851  0.3447 -0.5489
  152MOL   H16127643   7.903   5.455   5.928  0.4612 -1.0081  0.5988
  152MOL   H16227644   8.025   5.564   5.963 -1.5555  0.6830 -2.3913
  152MOL   H16327645   7.945   5.486   6.102  0.2482  2.7725  1.8176
  152MOL   C16427646   7.490   5.478   5.959  0.5249  0.4617  0.9647
  152MOL   C16527647   7.449   5.438   5.823 -0.0108  0.2106 -0.0948
  152MOL   C16627648   7.392   5.571   6.023  0.5405  0.3193  0.9085
  152MOL   O16727649   7.409   5.693   6.034  0.6811  0.1637 -0.1928
  152MOL   O16827650   7.269   5.512   6.073 -0.9152 -0.0926  0.0709
  152MOL   H16927651   7.504   5.385   6.014  3.4511 -0.2379 -0.8808
  152MOL   H17027652   7.345   5.405   5.830 -0.1526  0.5201 -0.6595
  152MOL   H17127653   7.449   5.519   5.750  2.4243  0.9566  0.6939
  152MOL   H17227654   7.516   5.363   5.782  0.0513 -0.0310  0.4456
  152MOL   C17327655   7.155   5.604   6.107  0.7263 -0.1792  0.3582
  152MOL   C17427656   7.047   5.529   6.179 -0.4353 -0.2493 -0.4071
  152MOL   C17527657   7.105   5.674   5.979 -0.1820  0.1226  0.2133
  152MOL   O17627658   7.089   5.797   5.973  0.4724 -0.1952  0.2164
  152MOL   O17727659   7.074   5.584   5.885  0.4742 -0.0267 -0.1320
  152MOL   H17827660   7.194   5.685   6.168  0.8937  0.5024 -0.6356
  152MOL   H17927661   6.994   5.458   6.116 -0.0180 -1.0169  0.0964
  152MOL   H18027662   7.090   5.476   6.264 -1.0668  0.6713  0.4986
  152MOL   H18127663   6.988   5.613   6.217 -0.0890 -0.1316 -0.1282
  152MOL   H18227664   7.034   5.631   5.814 -1.0503  0.9065  1.3048
  153MOL     C127665   4.571   0.275   0.890 -0.1734 -0.0984 -0.0735
  153MOL     C227666   4.655   0.390   0.952 -0.3771 -0.0081  0.2835
  153MOL     C327667   4.500   0.303   0.760  0.2586  0.3836  0.0440
  153MOL     O427668   4.500   0.412   0.709 -0.0014 -0.4267  0.0941
  153MOL     O527669   4.446   0.190   0.704 -0.2055  0.0553  0.2236
  153MOL     H627670   4.615   0.176   0.888 -0.8604 -0.3871 -0.9310
  153MOL     H727671   4.667   0.359   1.056 -0.2553 -1.0479 -0.0378
  153MOL     H827672   4.757   0.396   0.915 -1.1946  1.7876 -1.7712
  153MOL     H927673   4.609   0.489   0.950 -3.2110 -1.2676  0.3463
  153MOL    H1027674   4.500   0.263   0.972  3.1555 -2.0640  2.6077
  153MOL    C1127675   4.389   0.196   0.575  0.7843 -0.5727 -0.3951
  153MOL    C1227676   4.236   0.204   0.573 -0.0690  0.2935  0.5168
  153MOL    C1327677   4.444   0.083   0.492 -0.0201 -0.7012 -1.1334
  153MOL    O1427678   4.475   0.098   0.373 -0.1672  0.2030  0.0121
  153MOL    O1527679   4.446   8.114   0.559 -0.5537  0.2308  0.1176
  153MOL    H1627680   4.416   0.288   0.523  0.2476  0.0722  0.4385
  153MOL    H1727681   4.193   0.109   0.606  1.0774 -0.3750  0.0864
  153MOL    H1827682   4.204   0.290   0.633 -0.5821  2.1789 -2.3540
  153MOL    H1927683   4.203   0.219   0.470  0.7088  1.6164  0.4491
  153MOL    C2027684   4.477   7.984   0.507  0.3718 -0.0915 -0.2385
  153MOL    C2127685   4.434   7.878   0.612  0.5723 -0.6410 -0.0240
  153MOL    C2227686   4.626   7.986   0.479 -0.0370  0.1407 -0.1522
  153MOL    O2327687   4.669   7.951   0.369 -0.0727  0.3305 -0.0436
  153MOL    O2427688   4.695   8.025   0.587  0.1191 -0.0625 -0.0220
  153MOL    H2527689   4.415   7.972   0.418 -0.2012  0.9483  0.0055
  153MOL    H2627690   4.329   7.894   0.634  0.6966  0.5703 -0.2918
  153MOL    H2727691   4.447   7.779   0.567 -2.7167 -0.8273 -0.6844
  153MOL    H2827692   4.498   7.895   0.699  0.8825  0.2139 -0.4100
  153MOL    C2927693   4.827   8.074   0.576  0.5523 -0.2659  0.1438
  153MOL    C3027694   4.896   7.973   0.669 -0.0777  0.2868  0.0456
  153MOL    C3127695   4.830   0.074   0.608  0.8456 -0.2558  0.3720
  153MOL    O3227696   4.888   0.113   0.705  0.2364  0.5383 -0.5694
  153MOL    O3327697   4.772   0.144   0.514  0.4278 -0.6159  0.4624
  153MOL    H3427698   4.865   8.063   0.475 -1.4421 -2.3002 -0.4271
  153MOL    H3527699   4.889   7.868   0.642  1.5308 -0.7529  3.3547
  153MOL    H3627700   5.001   8.002   0.682  0.6088 -1.6022 -1.0934
  153MOL    H3727701   4.846   7.965   0.765 -0.2365 -2.5207 -0.2448
  153MOL    C3827702   4.796   0.288   0.501  1.0410 -0.7817 -0.0351
  153MOL    C3927703   4.701   0.355   0.403  0.4220  0.5163  0.3298
  153MOL    C4027704   4.947   0.310   0.459 -0.0511  0.1441 -0.5666
  153MOL    O4127705   5.021   0.401   0.501  0.4545  0.0085  0.5083
  153MOL    O4227706   4.988   0.213   0.373  0.1854 -0.1290  0.2818
  153MOL    H4327707   4.779   0.346   0.591  2.3239  0.0300 -0.2978
  153MOL    H4427708   4.612   0.295   0.381  0.0433  1.0170  0.4762
  153MOL    H4527709   4.667   0.449   0.447  0.1251 -0.4682  2.2881
  153MOL    H4627710   4.753   0.372   0.309 -0.3748  0.6552 -0.0995
  153MOL    C4727711   5.119   0.215   0.318 -0.1000 -0.2470  0.1391
  153MOL    C4827712   5.107   0.264   0.168  0.2928 -0.2287  0.7632
  153MOL    C4927713   5.193   0.077   0.329 -0.3633 -0.6575  0.0659
  153MOL    O5027714   5.143   8.140   0.404 -0.0310 -0.3826 -0.1801
  153MOL    O5127715   5.311   0.069   0.266 -0.1463 -0.0257 -0.3929
  153MOL    H5227716   5.187   0.286   0.365 -1.3921  2.3007 -1.7495
  153MOL    H5327717   5.104   0.372   0.178  0.1621  0.1299 -2.6413
  153MOL    H5427718   5.201   0.257   0.113 -0.3359 -1.3413 -0.2047
  153MOL    H5527719   5.025   0.227   0.106 -0.2408 -0.1343  1.4044
  153MOL    C5627720   5.410   8.121   0.292  0.1772  0.1487  0.1442
  153MOL    C5727721   5.544   0.044   0.293  0.5375 -0.8358 -0.4556
  153MOL    C5827722   5.403   8.017   0.186 -0.3691  0.0485  0.1310
  153MOL    O5927723   5.339   8.024   0.083 -0.6399 -0.6619 -0.2281
  153MOL    O6027724   5.464   7.907   0.228 -0.0822  0.0160 -0.0507
  153MOL    H6127725   5.388   8.074   0.388 -0.2756  1.4722  0.7026
  153MOL    H6227726   5.626   8.119   0.299  0.5949 -0.9700 -2.6239
  153MOL    H6327727   5.560   0.101   0.202 -0.1853 -1.7901 -1.1968
  153MOL    H6427728   5.560   0.103   0.383  1.1492 -0.7599 -0.6124
  153MOL    C6527729   5.490   7.799   0.141  0.3346 -0.2996  0.0657
  153MOL    C6627730   5.470   7.671   0.216  0.2547  0.5165  0.1016
  153MOL    C6727731   5.636   7.819   0.087 -0.1806  0.0624  0.2300
  153MOL    O6827732   5.660   7.830   8.113  0.0130  0.0083 -1.2436
  153MOL    O6927733   5.720   7.838   0.182 -0.3127  0.3061  0.4888
  153MOL    H7027734   5.423   7.808   0.056 -1.0083  2.1784  1.2927
  153MOL    H7127735   5.548   7.639   0.285  1.6207 -1.2734 -2.1609
  153MOL    H7227736   5.376   7.664   0.270 -0.9638  1.2706 -1.8814
  153MOL    H7327737   5.445   7.593   0.143 -2.0732  0.2605  1.1575
  153MOL    C7427738   5.861   7.871   0.160  0.1187  0.7365 -0.5854
  153MOL    C7527739   5.896   8.003   0.086 -0.9828  0.0006 -0.5153
  153MOL    C7627740   5.931   7.746   0.093 -0.1285  0.5478 -0.6132
  153MOL    O7727741   5.871   7.642   0.070 -0.0778  0.1731  0.5723
  153MOL    O7827742   6.068   7.767   0.064  0.0093 -0.3053  0.4424
  153MOL    H7927743   5.892   7.881   0.264  0.3460 -0.2525 -0.5504
  153MOL    H8027744   5.872   7.999   8.127 -0.4714 -1.8636 -0.5750
  153MOL    H8127745   5.838   8.088   0.122  1.5790  1.9202 -0.8093
  153MOL    H8227746   6.001   8.029   0.092 -0.3761 -2.6150  0.8146
  153MOL    C8327747   6.142   7.678   8.124  0.0738  0.1733 -0.3598
  153MOL    C8427748   6.295   7.696   8.137 -0.4770 -0.2588  0.1909
  153MOL    C8527749   6.095   7.700   7.982 -0.4031  0.9373  0.0195
  153MOL    O8627750   6.110   7.807   7.924 -0.4255 -0.3825  0.2060
  153MOL    O8727751   6.031   7.596   7.931 -0.9194 -0.2627 -0.3013
  153MOL    H8827752   6.119   7.581   0.020 -0.4072  0.0807 -0.8138
  153MOL    H8927753   6.356   7.629   8.077 -1.1888 -0.8440  0.1129
  153MOL    H9027754   6.333   7.794   8.110  0.1396 -0.4637  0.3149
  153MOL    H9127755   6.327   7.684   0.093 -0.9200 -2.4763  0.1008
  153MOL    C9227756   5.957   7.598   7.805  0.1388 -0.6386  0.0750
  153MOL    C9327757   5.834   7.693   7.839 -0.0190 -0.1591 -0.5727
  153MOL    C9427758   5.928   7.451   7.771 -0.8209 -0.2604  0.6785
  153MOL    O9527759   5.818   7.408   7.758  0.3345  0.2866 -0.5686
  153MOL    O9627760   6.045   7.388   7.746  0.5814 -0.3372 -0.1454
  153MOL    H9727761   6.017   7.632   7.720  1.1218 -1.3001  0.5015
  153MOL    H9827762   5.808   7.716   7.943 -0.2693  2.3189 -1.1665
  153MOL    H9927763   5.861   7.786   7.789 -0.7684 -0.8995 -2.3800
  153MOL   H10027764   5.740   7.673   7.787 -0.0301  0.8916 -0.9718
  153MOL   C10127765   6.037   7.274   7.651  0.2149  0.1857  0.0558
  153MOL   C10227766   6.174   7.201   7.677  0.3097 -0.5576  0.1953
  153MOL   C10327767   6.024   7.314   7.505 -0.0546  0.1118 -0.3809
  153MOL   O10427768   5.926   7.281   7.441  0.1949 -0.5190  0.4331
  153MOL   O10527769   6.138   7.374   7.463  0.3227 -0.4693 -0.2297
  153MOL   H10627770   5.951   7.212   7.676  0.1472 -0.2638 -1.2670
  153MOL   H10727771   6.190   7.171   7.781 -0.0137  0.4157  0.5385
  153MOL   H10827772   6.182   7.115   7.611  0.7406  0.0208 -0.5180
  153MOL   H10927773   6.248   7.272   7.639 -0.6249  0.1642 -0.2997
  153MOL   C11027774   6.133   7.485   7.376 -0.7562 -0.4770 -0.1628
  153MOL   C11127775   6.209   7.462   7.238  0.4310 -0.4706 -0.3599
  153MOL   C11227776   6.203   7.598   7.456 -0.2890  0.5084  0.2124
  153MOL   O11327777   6.255   7.587   7.564 -0.1784 -0.1113 -0.4120
  153MOL   O11427778   6.196   7.706   7.382 -0.2830 -0.6210  0.3089
  153MOL   H11527779   6.033   7.509   7.341 -0.3129  1.6935 -0.0374
  153MOL   H11627780   6.198   7.538   7.160 -0.7894 -0.8324 -0.5552
  153MOL   H11727781   6.311   7.443   7.271  0.3832 -2.5830 -1.3603
  153MOL   H11827782   6.175   7.371   7.188  0.7829 -0.7863 -0.0301
  153MOL   C11927783   6.279   7.816   7.402  0.1426 -0.1758 -0.0496
  153MOL   C12027784   6.223   7.891   7.513 -0.5556 -0.0605 -0.9142
  153MOL   C12127785   6.298   7.898   7.272 -0.3182  0.0579  0.4937
  153MOL   O12227786   6.345   8.013   7.272 -0.2087  0.1084  0.7890
  153MOL   O12327787   6.257   7.841   7.154 -0.3442 -1.0041 -0.7552
  153MOL   H12427788   6.377   7.780   7.431 -0.2659 -0.8036  0.5717
  153MOL   H12527789   6.130   7.940   7.484  0.1645  0.3685 -2.5237
  153MOL   H12627790   6.217   7.826   7.600  0.7123 -0.2908 -0.9977
  153MOL   H12727791   6.299   7.966   7.538 -0.6965 -0.1883 -0.0881
  153MOL   C12827792   6.290   7.899   7.031  0.6103 -0.5521 -0.5054
  153MOL   C12927793   6.216   7.815   6.934 -0.2756  0.5543  0.1998
  153MOL   C13027794   6.441   7.879   7.005 -0.3121 -0.7489 -0.1771
  153MOL   O13127795   6.508   7.970   6.964 -0.2266 -0.8142 -0.4799
  153MOL   O13227796   6.484   7.754   7.037 -0.2851  0.4180 -0.2366
  153MOL   H13327797   6.273   8.006   7.021 -0.9216 -0.2989  3.8385
  153MOL   H13427798   6.201   7.709   6.955  0.4343  0.3730 -0.2193
  153MOL   H13527799   6.121   7.866   6.914 -1.2269 -1.3013 -0.1463
  153MOL   H13627800   6.268   7.806   6.839 -1.0761  0.3973 -0.2293
  153MOL   C13727801   6.616   7.709   6.990  0.8075  0.1250 -0.3282
  153MOL   C13827802   6.723   7.748   7.093  0.6870 -0.2183 -0.1036
  153MOL   C13927803   6.666   7.745   6.849  0.3040  0.0426  0.4195
  153MOL   O14027804   6.774   7.797   6.824 -0.1646 -0.9399 -0.1855
  153MOL   O14127805   6.571   7.728   6.758 -0.3199 -0.3172 -0.5226
  153MOL   H14227806   6.604   7.600   6.985  1.5568  0.0908 -1.6519
  153MOL   H14327807   6.735   7.854   7.113  0.5499 -0.5138  1.6729
  153MOL   H14427808   6.692   7.712   7.191 -0.4083 -1.1084 -0.7561
  153MOL   H14527809   6.819   7.703   7.067  0.9409  1.1285 -1.5880
  153MOL   C14627810   6.592   7.772   6.625  0.2190 -0.5828  0.2965
  153MOL   C14727811   6.522   7.913   6.625 -0.0083 -0.4016 -0.8517
  153MOL   C14827812   6.514   7.674   6.529 -0.2238  0.1805  0.1804
  153MOL   O14927813   6.446   7.578   6.573  0.2703 -0.5411 -0.4593
  153MOL   O15027814   6.517   7.709   6.403 -0.5275 -0.2585 -0.1896
  153MOL   H15127815   6.694   7.781   6.590 -0.2798 -0.0795 -1.0754
  153MOL   H15227816   6.420   7.903   6.664  0.3714 -1.5345 -0.1465
  153MOL   H15327817   6.583   7.975   6.690  1.0550 -0.3442 -1.8921
  153MOL   H15427818   6.507   7.960   6.527 -1.4600  1.9807  0.4565
  153MOL   C15527819   6.430   7.645   6.301  0.6910 -0.3977 -0.1776
  153MOL   C15627820   6.471   7.678   6.162 -0.1951  0.2796  0.0790
  153MOL   C15727821   6.291   7.699   6.338 -0.4305  0.6898 -0.2225
  153MOL   O15827822   6.193   7.628   6.340  0.2951  0.3055 -0.1163
  153MOL   O15927823   6.289   7.841   6.354 -0.0659  0.2658 -0.7922
  153MOL   H16027824   6.424   7.536   6.310 -2.7816 -0.1653  1.1002
  153MOL   H16127825   6.406   7.629   6.089  0.5441 -0.0153 -0.3826
  153MOL   H16227826   6.463   7.785   6.141 -1.9044  0.7322  2.7276
  153MOL   H16327827   6.571   7.638   6.149  0.4677  1.4914  1.2911
  153MOL   C16427828   6.161   7.903   6.372 -0.5745 -0.5390  1.2417
  153MOL   C16527829   6.178   8.055   6.347  0.3945 -0.1782  0.1779
  153MOL   C16627830   6.087   7.874   6.505  1.1594 -0.4185 -0.4436
  153MOL   O16727831   6.139   7.820   6.597 -0.1480 -0.3000 -0.2461
  153MOL   O16827832   5.962   7.926   6.502  0.4077  0.0216  0.3339
  153MOL   H16927833   6.095   7.867   6.292 -2.3436  0.4250  2.2271
  153MOL   H17027834   6.246   8.087   6.426 -0.7479  1.0182  0.6959
  153MOL   H17127835   6.222   8.070   6.248  0.5277  1.3369  0.4568
  153MOL   H17227836   6.091   8.120   6.340  0.4037  0.0051  1.5140
  153MOL   C17327837   5.876   7.927   6.613  0.5653 -0.1708 -0.8364
  153MOL   C17427838   5.850   7.783   6.670 -0.1056 -0.0897  0.2045
  153MOL   C17527839   5.749   8.006   6.590  0.1912  0.1213 -0.8640
  153MOL   O17627840   5.712   8.109   6.651 -0.6717  0.0963  0.1061
  153MOL   O17727841   5.695   7.956   6.475 -0.1630 -0.0697 -0.3535
  153MOL   H17827842   5.930   7.984   6.689  0.1544  1.0728 -1.4553
  153MOL   H17927843   5.805   7.713   6.600 -1.7069 -0.7723  1.8656
  153MOL   H18027844   5.942   7.738   6.707  0.1037  0.1789  0.0125
  153MOL   H18127845   5.781   7.775   6.754 -1.1690 -1.9397 -0.8234
  153MOL   H18227846   5.617   7.998   6.443 -1.5087 -1.3056  1.2039
  154MOL     C127847   3.778   3.599   1.127 -0.5247  0.1162 -0.1177
  154MOL     C227848   3.685   3.690   1.045  0.3409  0.1304 -0.3396
  154MOL     C327849   3.728   3.461   1.161  0.4054 -0.4075  0.3293
  154MOL     O427850   3.621   3.425   1.117 -0.0107  0.1443  0.2719
  154MOL     O527851   3.813   3.397   1.247  0.0349 -0.0358 -0.5314
  154MOL     H627852   3.868   3.590   1.066  0.6202 -2.8931  1.8969
  154MOL     H727853   3.714   3.793   1.027  2.4715 -0.6854 -1.7943
  154MOL     H827854   3.665   3.646   0.948  0.5119  1.0880 -0.8145
  154MOL     H927855   3.595   3.685   1.106 -0.3232 -1.7663 -1.4526
  154MOL    H1027856   3.807   3.638   1.224  2.1773 -2.1469  0.0612
  154MOL    C1127857   3.778   3.260   1.278 -0.5219  0.9661  0.2002
  154MOL    C1227858   3.764   3.243   1.425  0.4961 -0.1728 -0.8381
  154MOL    C1327859   3.886   3.163   1.223 -0.0512  0.1862 -0.9203
  154MOL    O1427860   3.862   3.050   1.175 -0.1320 -0.4209  0.2457
  154MOL    O1527861   4.010   3.216   1.246  0.1133 -0.4875  0.0509
  154MOL    H1627862   3.687   3.229   1.227  1.1190 -1.4399 -1.3547
  154MOL    H1727863   3.703   3.321   1.472 -0.6026 -0.5569 -1.5959
  154MOL    H1827864   3.697   3.158   1.440 -0.4374  0.7785  0.5041
  154MOL    H1927865   3.860   3.222   1.471 -0.3062 -0.2048  0.8639
  154MOL    C2027866   4.123   3.147   1.205 -1.2588  0.5963 -0.4859
  154MOL    C2127867   4.230   3.203   1.298  0.8349 -0.5132  0.2078
  154MOL    C2227868   4.155   3.168   1.063 -0.0787  0.8659 -0.2253
  154MOL    O2327869   4.235   3.091   1.001 -0.4134  0.1176 -0.8827
  154MOL    O2427870   4.107   3.276   1.011 -0.0971  0.6489 -0.2231
  154MOL    H2527871   4.116   3.039   1.221 -0.4071  0.5544 -0.3569
  154MOL    H2627872   4.198   3.207   1.402  0.5678  0.8272  0.0836
  154MOL    H2727873   4.305   3.124   1.303 -0.0291 -1.4006 -0.6342
  154MOL    H2827874   4.268   3.302   1.273 -0.0050  0.4407  2.5213
  154MOL    C2927875   4.120   3.324   0.884  0.3975 -0.6384  0.1089
  154MOL    C3027876   4.035   3.448   0.868  0.6968 -0.3709 -0.7826
  154MOL    C3127877   4.068   3.225   0.786 -0.0628 -0.2116  0.0506
  154MOL    O3227878   3.987   3.136   0.815  0.3793  0.1572 -0.2909
  154MOL    O3327879   4.112   3.248   0.661 -0.3579 -0.3352 -1.2028
  154MOL    H3427880   4.224   3.345   0.861 -0.0651  0.3785 -1.0998
  154MOL    H3527881   4.063   3.518   0.947 -0.0073 -0.8905 -0.0517
  154MOL    H3627882   4.045   3.499   0.773  0.0755  0.9304 -0.1699
  154MOL    H3727883   3.928   3.430   0.881  0.7044  1.7626  3.1079
  154MOL    C3827884   4.041   3.196   0.544  0.2829  0.2042  0.0031
  154MOL    C3927885   4.130   3.225   0.424 -0.1986 -0.5975  0.4214
  154MOL    C4027886   3.914   3.276   0.524  0.2206  0.2969  0.2502
  154MOL    O4127887   3.891   3.384   0.576  0.0075  0.3395 -0.5791
  154MOL    O4227888   3.823   3.217   0.446  0.2919 -0.4460 -0.1744
  154MOL    H4327889   4.006   3.093   0.547  1.1095 -0.0738  0.1818
  154MOL    H4427890   4.078   3.222   0.328  1.3670 -2.3113 -0.4038
  154MOL    H4527891   4.170   3.326   0.420  0.7424 -1.0032 -0.7004
  154MOL    H4627892   4.212   3.154   0.418  0.6240  0.2824  1.2153
  154MOL    C4727893   3.708   3.278   0.393 -0.1612  0.3435 -0.6808
  154MOL    C4827894   3.637   3.162   0.322  0.6672  0.2604  0.4602
  154MOL    C4927895   3.737   3.402   0.300 -0.6022  0.2305 -0.1789
  154MOL    O5027896   3.709   3.517   0.331  0.6278 -0.7785  0.5157
  154MOL    O5127897   3.797   3.364   0.185 -0.9735  0.1303 -0.2639
  154MOL    H5227898   3.649   3.316   0.476 -0.3049  0.9492 -1.0624
  154MOL    H5327899   3.604   3.079   0.385 -0.4618 -0.0717 -0.5691
  154MOL    H5427900   3.551   3.204   0.270  0.8466 -0.3089 -0.2902
  154MOL    H5527901   3.688   3.117   0.237 -0.2286 -0.7154  0.4318
  154MOL    C5627902   3.853   3.468   0.100  0.3193  0.6698  0.1426
  154MOL    C5727903   3.867   3.420   8.105  0.2544 -0.1567  0.4476
  154MOL    C5827904   3.976   3.546   0.164 -0.5927  0.5949  0.3989
  154MOL    O5927905   4.036   3.493   0.257 -0.4824  0.6847  0.2805
  154MOL    O6027906   3.983   3.663   0.120  0.5203  0.1759 -0.1182
  154MOL    H6127907   3.778   3.547   0.106  0.2962  0.5414  1.6079
  154MOL    H6227908   3.952   3.354   8.088  1.1830  0.9886  0.5912
  154MOL    H6327909   3.774   3.373   8.073 -0.5009 -1.0445  3.7285
  154MOL    H6427910   3.871   3.505   8.037  0.0628 -1.2399 -0.9351
  154MOL    C6527911   4.102   3.755   0.135  0.6087  0.2492 -0.3018
  154MOL    C6627912   4.136   3.806   8.142 -0.5610  0.6963  0.0209
  154MOL    C6727913   4.228   3.703   0.211  0.1117 -0.1908 -0.1636
  154MOL    O6827914   4.329   3.672   0.152  0.3033 -0.4488  0.2774
  154MOL    O6927915   4.219   3.695   0.346 -0.1841  0.1987 -0.0562
  154MOL    H7027916   4.063   3.843   0.186 -2.4271  0.1920 -2.4096
  154MOL    H7127917   4.054   3.860   8.094 -1.4996 -0.6366  0.0908
  154MOL    H7227918   4.213   3.882   8.147 -1.5807  1.8746 -1.7618
  154MOL    H7327919   4.166   3.723   8.078  0.4910  0.7238  0.4799
  154MOL    C7427920   4.332   3.672   0.427  0.2882  0.6505 -0.3639
  154MOL    C7527921   4.284   3.613   0.566  0.1515  0.3303 -0.7393
  154MOL    C7627922   4.417   3.800   0.438 -0.2401 -0.5242  0.8062
  154MOL    O7727923   4.386   3.904   0.379 -0.2971 -0.1569  0.0218
  154MOL    O7827924   4.525   3.781   0.508  0.0847  0.4819  0.0452
  154MOL    H7927925   4.400   3.598   0.384  0.3275  0.9965 -0.8889
  154MOL    H8027926   4.222   3.526   0.545 -0.3401 -0.0507  2.1099
  154MOL    H8127927   4.367   3.592   0.632  0.4973  1.6612 -0.7303
  154MOL    H8227928   4.214   3.681   0.615 -0.2923 -0.6336 -0.0183
  154MOL    C8327929   4.631   3.872   0.509 -0.4598  0.1921 -0.4401
  154MOL    C8427930   4.608   3.996   0.596  0.1202 -0.6041  0.4198
  154MOL    C8527931   4.690   3.891   0.366  0.3943  0.0003 -0.0947
  154MOL    O8627932   4.696   4.004   0.320 -0.0774 -0.3949  0.1924
  154MOL    O8727933   4.716   3.772   0.304  0.3705 -0.1541  0.1032
  154MOL    H8827934   4.700   3.806   0.562 -0.0153 -1.1463 -2.6346
  154MOL    H8927935   4.545   4.057   0.532 -0.3568 -2.1232 -0.6035
  154MOL    H9027936   4.548   3.971   0.684 -1.2979  0.8289 -0.1117
  154MOL    H9127937   4.697   4.057   0.609  0.7701 -1.3322 -0.6127
  154MOL    C9227938   4.716   3.773   0.163 -0.1511  0.4087  0.0802
  154MOL    C9327939   4.690   3.624   0.142  0.0112 -0.0000 -0.9155
  154MOL    C9427940   4.847   3.833   0.112  0.1502 -0.1253 -0.2422
  154MOL    O9527941   4.853   3.911   0.015 -0.0216 -0.2453 -0.0750
  154MOL    O9627942   4.954   3.754   0.156  0.3706  0.5065  0.0174
  154MOL    H9727943   4.636   3.832   0.118  0.3033  0.6384 -0.4365
  154MOL    H9827944   4.738   3.561   0.217  0.8290  0.5357 -0.9900
  154MOL    H9927945   4.584   3.598   0.151 -0.1849  1.3010  0.7977
  154MOL   H10027946   4.723   3.586   0.046 -0.3290 -0.9378 -0.6697
  154MOL   C10127947   5.086   3.761   0.094 -0.1446  0.6892 -0.0464
  154MOL   C10227948   5.155   3.889   0.147 -0.4611 -0.8012  0.6083
  154MOL   C10327949   5.093   3.742   8.087  0.1981 -0.2403 -0.1559
  154MOL   O10427950   5.181   3.791   8.018  0.0774  0.3789  0.3902
  154MOL   O10527951   4.995   3.662   8.039 -0.2286 -0.2911  0.5483
  154MOL   H10627952   5.145   3.678   0.135 -1.1156 -0.9816 -1.9110
  154MOL   H10727953   5.103   3.979   0.113 -1.8936 -1.4167  1.1260
  154MOL   H10827954   5.163   3.884   0.255 -0.2911 -1.3505  0.5701
  154MOL   H10927955   5.258   3.910   0.118 -0.7901  1.7475  1.1369
  154MOL   C11027956   4.983   3.637   7.897 -0.1294 -0.1094  0.3147
  154MOL   C11127957   4.849   3.560   7.869  0.3153  0.0784 -0.1917
  154MOL   C11227958   5.109   3.558   7.841 -0.4160  1.0162 -0.1904
  154MOL   O11327959   5.174   3.475   7.906 -0.3225  0.1478 -0.2934
  154MOL   O11427960   5.127   3.596   7.711 -0.1711  0.2144  0.5679
  154MOL   H11527961   4.981   3.737   7.853  0.0715 -0.6897 -1.0501
  154MOL   H11627962   4.858   3.456   7.899 -2.2477 -0.1784 -0.1756
  154MOL   H11727963   4.763   3.603   7.921  1.7906  2.5033  0.3508
  154MOL   H11827964   4.827   3.564   7.763  1.0854  1.6193 -0.3104
  154MOL   C11927965   5.236   3.557   7.624 -0.1144  0.0486  0.4942
  154MOL   C12027966   5.195   3.621   7.488  0.3355 -0.0274  0.3475
  154MOL   C12127967   5.253   3.405   7.627  0.7753 -0.2071 -0.8627
  154MOL   O12227968   5.354   3.352   7.671  0.0307 -0.2173 -0.3340
  154MOL   O12327969   5.141   3.339   7.581  0.1802  0.1328  0.3016
  154MOL   H12427970   5.318   3.610   7.673 -0.7169  0.0625  1.5166
  154MOL   H12527971   5.120   3.572   7.426  0.8897 -0.1738 -0.2132
  154MOL   H12627972   5.176   3.727   7.502 -0.5128 -0.2492  0.9268
  154MOL   H12727973   5.291   3.622   7.437  0.6942 -1.1544  0.9910
  154MOL   C12827974   5.137   3.197   7.591 -0.2353  0.5175  0.5582
  154MOL   C12927975   5.064   3.131   7.479  0.5039 -0.2391  0.3238
  154MOL   C13027976   5.069   3.161   7.725  0.3731 -0.7124  0.2264
  154MOL   O13127977   4.998   3.240   7.789  0.2500  0.2294  0.1602
  154MOL   O13227978   5.104   3.041   7.771  0.5292  0.2888 -0.4175
  154MOL   H13327979   5.236   3.152   7.601 -0.5485 -0.5143 -0.8022
  154MOL   H13427980   4.960   3.162   7.485  0.8740  0.7853  1.5793
  154MOL   H13527981   5.099   3.165   7.381 -1.1685  2.3973  0.5911
  154MOL   H13627982   5.061   3.022   7.487 -0.4854 -0.0629  2.6672
  154MOL   C13727983   5.050   2.992   7.894  0.0962  0.0786  0.5451
  154MOL   C13827984   5.163   2.904   7.953  0.7935  0.2582 -0.0505
  154MOL   C13927985   4.926   2.911   7.856  0.6201 -0.2700 -0.1855
  154MOL   O14027986   4.814   2.937   7.901  0.2285  0.2220  0.0653
  154MOL   O14127987   4.954   2.801   7.769 -0.1127 -0.0315 -0.4830
  154MOL   H14227988   5.022   3.066   7.968 -0.7129 -0.1387  0.4513
  154MOL   H14327989   5.245   2.964   7.994  0.9084  0.6125 -0.7904
  154MOL   H14427990   5.115   2.839   8.026 -1.2047 -0.3653 -1.8595
  154MOL   H14527991   5.202   2.834   7.879  0.8958  1.0368 -0.7395
  154MOL   C14627992   4.839   2.722   7.731  0.1165 -0.2806  0.3291
  154MOL   C14727993   4.885   2.581   7.691  0.2726  0.2250  0.3931
  154MOL   C14827994   4.762   2.792   7.617 -0.2287  0.2141  0.1601
  154MOL   O14927995   4.813   2.873   7.536 -0.1632 -0.1322 -0.3008
  154MOL   O15027996   4.636   2.753   7.611 -0.5847 -0.1617 -0.4388
  154MOL   H15127997   4.763   2.714   7.809  0.1647  2.6961  0.7338
  154MOL   H15227998   4.917   2.580   7.587 -0.9177  0.7315  0.0170
  154MOL   H15327999   4.966   2.553   7.758  0.1912  0.6655  0.6846
  154MOL   H15428000   4.802   2.512   7.702  0.0205  0.1881 -1.5676
  154MOL   C15528001   4.545   2.815   7.521  0.1389  0.6590 -0.3418
  154MOL   C15628002   4.397   2.776   7.563 -0.5336  0.7972  0.1832
  154MOL   C15728003   4.580   2.773   7.379  0.2314 -0.1091 -0.0074
  154MOL   O15828004   4.557   2.849   7.289 -0.5126  0.3784  0.1601
  154MOL   O15928005   4.629   2.653   7.373  0.2983 -0.3563 -0.1087
  154MOL   H16028006   4.566   2.922   7.518 -0.1329  0.9278  4.2726
  154MOL   H16128007   4.389   2.841   7.650  2.2351  4.3305 -2.0539
  154MOL   H16228008   4.319   2.800   7.491 -1.0724 -0.4010  0.3435
  154MOL   H16328009   4.379   2.674   7.599 -0.9500  0.0541 -2.0330
  154MOL   C16428010   4.667   2.589   7.248 -0.5203 -0.1245 -0.0399
  154MOL   C16528011   4.726   2.448   7.281  0.0159  0.2674  0.8772
  154MOL   C16628012   4.758   2.671   7.167 -0.2737 -0.2410 -0.5318
  154MOL   O16728013   4.738   2.709   7.054  0.3673  0.0720 -0.4880
  154MOL   O16828014   4.872   2.702   7.239  0.2742  0.2148 -0.2789
  154MOL   H16928015   4.581   2.568   7.184 -2.5045  2.4416  1.6997
  154MOL   H17028016   4.793   2.419   7.200  0.3153 -0.6838  1.4719
  154MOL   H17128017   4.793   2.446   7.367 -0.9605  0.9714  1.6715
  154MOL   H17228018   4.658   2.365   7.301 -1.2906  1.4241  1.3940
  154MOL   C17328019   4.963   2.809   7.205 -0.0708  0.2972  0.0793
  154MOL   C17428020   4.889   2.943   7.192  0.5124  0.6151  0.2279
  154MOL   C17528021   5.038   2.770   7.071 -0.4656  0.0671  0.9946
  154MOL   O17628022   5.033   2.846   6.972  0.3686  0.6193 -0.4713
  154MOL   O17728023   5.123   2.659   7.083  0.4709 -0.0063  0.5647
  154MOL   H17828024   5.041   2.820   7.281  1.3286 -0.8707 -1.1575
  154MOL   H17928025   4.825   2.946   7.104 -0.5875 -2.6138  0.8454
  154MOL   H18028026   4.835   2.956   7.286  1.8479  1.1211  0.9288
  154MOL   H18128027   4.953   3.029   7.174  1.1906  0.3797  1.5020
  154MOL   H18228028   5.114   2.610   7.163 -0.9602 -0.7204 -0.0390
  155MOL     C128029   6.958   5.514   3.875  0.2335 -0.3029 -0.4118
  155MOL     C228030   6.984   5.628   3.777  0.3840 -0.0498 -0.0025
  155MOL     C328031   7.046   5.504   4.001  0.2031  0.2264 -0.0768
  155MOL     O428032   7.119   5.592   4.044 -0.0002 -0.2501  0.6034
  155MOL     O528033   7.029   5.383   4.054  0.2287 -0.1749  0.6378
  155MOL     H628034   6.858   5.532   3.915 -0.1653 -3.4687  0.1677
  155MOL     H728035   7.048   5.603   3.692 -0.8020  0.2261 -0.9775
  155MOL     H828036   6.890   5.670   3.740  0.1942  0.6519  1.2433
  155MOL     H928037   7.035   5.713   3.822  0.9357 -0.0339 -0.6368
  155MOL    H1028038   6.959   5.416   3.826 -0.0678 -1.4588  1.8629
  155MOL    C1128039   7.112   5.330   4.162 -0.2732  0.6045 -0.1468
  155MOL    C1228040   7.096   5.180   4.144  0.1981  0.2393  0.3878
  155MOL    C1328041   7.065   5.381   4.290  0.8071 -0.2814 -0.1002
  155MOL    O1428042   6.944   5.371   4.328 -0.4420 -0.3453  0.4689
  155MOL    O1528043   7.165   5.444   4.362  0.3776 -0.1893 -0.0199
  155MOL    H1628044   7.219   5.352   4.157 -0.1529  0.1563  0.4639
  155MOL    H1728045   6.995   5.141   4.129  0.4560 -0.7504  1.1128
  155MOL    H1828046   7.154   5.137   4.063 -0.9955 -1.4702  0.4140
  155MOL    H1928047   7.138   5.131   4.232 -0.3023  1.6356  1.4192
  155MOL    C2028048   7.178   5.425   4.498 -0.0836  0.8323  0.3885
  155MOL    C2128049   7.185   5.559   4.573  0.5281  0.4016  0.2392
  155MOL    C2228050   7.304   5.337   4.508 -0.3843  0.0508 -0.3023
  155MOL    O2328051   7.409   5.383   4.546 -0.4299  0.0858 -0.1863
  155MOL    O2428052   7.293   5.211   4.448  0.2701  0.3562  0.1112
  155MOL    H2528053   7.095   5.362   4.531  1.3465 -0.9820  0.6119
  155MOL    H2628054   7.278   5.616   4.562  0.4209  0.9983  2.1726
  155MOL    H2728055   7.110   5.630   4.539  0.9076  0.0344 -1.3794
  155MOL    H2828056   7.183   5.540   4.680 -1.5853 -2.1268 -0.2106
  155MOL    C2928057   7.391   5.111   4.472  0.2523  0.1100 -0.5744
  155MOL    C3028058   7.376   5.013   4.355 -0.0492  0.8999  0.1539
  155MOL    C3128059   7.375   5.038   4.608  0.5866 -0.4234  0.5361
  155MOL    O3228060   7.412   4.921   4.627 -0.3191  1.2500  0.3362
  155MOL    O3328061   7.312   5.110   4.704 -0.2688 -0.4730 -0.4629
  155MOL    H3428062   7.493   5.145   4.457  0.1062  1.5982  1.4903
  155MOL    H3528063   7.412   5.057   4.262  1.3744 -1.5038 -0.4973
  155MOL    H3628064   7.434   4.921   4.366 -0.4373  0.6088 -0.1912
  155MOL    H3728065   7.271   4.990   4.335 -0.1451  1.9914 -0.6114
  155MOL    C3828066   7.309   5.063   4.838  0.7388  0.1395 -0.5267
  155MOL    C3928067   7.171   5.042   4.893  0.3889 -0.0536  0.3584
  155MOL    C4028068   7.377   5.180   4.913  0.2536  0.5267 -0.0431
  155MOL    O4128069   7.321   5.265   4.976  0.3455 -0.3545  0.6420
  155MOL    O4228070   7.506   5.166   4.896  0.3301  0.0865 -0.4576
  155MOL    H4328071   7.363   4.969   4.849  0.5355  0.1242  0.3489
  155MOL    H4428072   7.103   5.127   4.880 -0.4829 -0.4920  1.9465
  155MOL    H4528073   7.130   4.957   4.839 -1.2242  1.9596 -1.7367
  155MOL    H4628074   7.178   5.011   4.997 -0.9154  1.0906  0.8120
  155MOL    C4728075   7.597   5.249   4.963  0.4337 -0.2766 -0.0802
  155MOL    C4828076   7.734   5.227   4.905 -0.0715 -0.8233  0.7227
  155MOL    C4928077   7.595   5.216   5.117 -0.0678  0.4556 -0.8076
  155MOL    O5028078   7.634   5.113   5.169 -0.1400  0.6468 -0.3819
  155MOL    O5128079   7.549   5.313   5.191 -0.3636 -0.0484 -0.6466
  155MOL    H5228080   7.570   5.353   4.946  0.1660 -0.5280 -1.2503
  155MOL    H5328081   7.769   5.124   4.890 -3.1975 -1.8062 -0.1125
  155MOL    H5428082   7.746   5.276   4.808 -1.6798 -0.3210  0.7643
  155MOL    H5528083   7.812   5.265   4.971  1.4703 -0.1072 -1.4320
  155MOL    C5628084   7.534   5.304   5.334  0.0648  0.6818 -0.3980
  155MOL    C5728085   7.464   5.429   5.381  0.3924  0.6756 -0.2941
  155MOL    C5828086   7.679   5.310   5.394 -0.0880  0.2196  0.2698
  155MOL    O5928087   7.754   5.405   5.374 -0.4667 -0.2730 -0.2828
  155MOL    O6028088   7.711   5.198   5.460  0.4145  0.2655  0.1399
  155MOL    H6128089   7.470   5.220   5.358  1.5738  0.0575  1.6199
  155MOL    H6228090   7.361   5.418   5.349  1.1265 -0.9028 -2.2071
  155MOL    H6328091   7.481   5.434   5.488  0.7428  0.0321 -0.3150
  155MOL    H6428092   7.503   5.521   5.337  0.2535  0.3205 -1.1804
  155MOL    C6528093   7.848   5.173   5.498  0.3970  0.1895 -0.4606
  155MOL    C6628094   7.861   5.016   5.484 -0.4065  0.1095  0.2973
  155MOL    C6728095   7.872   5.225   5.639 -0.1911 -0.6489 -0.7231
  155MOL    O6828096   7.797   5.297   5.708  0.1710 -0.0291 -0.2077
  155MOL    O6928097   7.983   5.162   5.689 -0.4544 -0.3445 -0.1098
  155MOL    H7028098   7.926   5.218   5.437  0.0229  1.8025  0.2187
  155MOL    H7128099   7.947   4.972   5.534  1.3602  0.1341 -2.6106
  155MOL    H7228100   7.783   4.957   5.532  1.4512 -1.8694  0.9660
  155MOL    H7328101   7.858   4.993   5.377  0.7209  1.0702  0.0469
  155MOL    C7428102   8.031   5.161   5.830  1.0758 -0.5205  0.6969
  155MOL    C7528103   0.031   5.109   5.838 -0.3546  0.4139  0.5492
  155MOL    C7628104   7.934   5.072   5.910  0.0727 -0.3296  0.0486
  155MOL    O7728105   7.899   4.966   5.862 -0.0771  0.5839  0.0142
  155MOL    O7828106   7.872   5.130   6.015  0.0785 -0.1789  0.1119
  155MOL    H7928107   8.028   5.263   5.869  1.5782  0.0661 -0.7646
  155MOL    H8028108   0.048   5.009   5.798 -2.9057 -0.4053  1.3823
  155MOL    H8128109   0.097   5.160   5.768 -1.1845  0.5342 -0.1442
  155MOL    H8228110   0.081   5.101   5.935  0.1431 -2.3314  0.1038
  155MOL    C8328111   7.790   5.049   6.102  0.2550  0.5148  0.6311
  155MOL    C8428112   7.671   5.131   6.154  0.2825  0.0282 -0.1957
  155MOL    C8528113   7.880   4.994   6.213 -0.2981 -0.4483 -0.2457
  155MOL    O8628114   8.003   4.998   6.212  0.4796  0.0318  0.3606
  155MOL    O8728115   7.812   4.945   6.319  0.0373 -0.0414  0.1664
  155MOL    H8828116   7.746   4.958   6.059  1.7426 -0.0437  0.2769
  155MOL    H8928117   7.702   5.230   6.189  2.1126 -0.4729 -0.3529
  155MOL    H9028118   7.596   5.160   6.080 -0.0126 -0.9997 -0.3102
  155MOL    H9128119   7.611   5.082   6.230 -1.3278  2.4911  0.1901
  155MOL    C9228120   7.866   4.899   6.442 -0.6914 -0.5975  0.1658
  155MOL    C9328121   7.772   4.792   6.496  0.1253  0.1937  0.1783
  155MOL    C9428122   7.901   5.016   6.536  0.1299  0.2102 -0.2129
  155MOL    O9528123   8.008   5.018   6.591  0.2334 -0.0036 -0.3796
  155MOL    O9628124   7.803   5.109   6.557 -0.3852 -0.1992  0.0115
  155MOL    H9728125   7.960   4.853   6.411 -0.0178  1.6143 -1.2277
  155MOL    H9828126   7.810   4.742   6.584 -1.7262  0.3880  1.1102
  155MOL    H9928127   7.676   4.841   6.512  1.9928  4.2029 -0.2292
  155MOL   H10028128   7.756   4.718   6.417 -1.2345  1.0310 -0.3521
  155MOL   C10128129   7.810   5.207   6.672  0.1651  0.0091  0.4129
  155MOL   C10228130   7.668   5.188   6.730  0.2603  0.1683 -0.6682
  155MOL   C10328131   7.820   5.347   6.612  0.9013  0.1755 -0.7365
  155MOL   O10428132   7.868   5.366   6.501 -0.0449  0.2202  0.4553
  155MOL   O10528133   7.760   5.447   6.685  0.0474 -0.4777 -1.0886
  155MOL   H10628134   7.885   5.182   6.747  0.8729 -0.2261 -0.3682
  155MOL   H10728135   7.652   5.082   6.752  1.0793  0.0350 -0.7113
  155MOL   H10828136   7.655   5.232   6.829 -1.4828 -1.8789  0.0596
  155MOL   H10928137   7.577   5.201   6.670 -0.7375 -0.6060  0.6378
  155MOL   C11028138   7.771   5.584   6.645 -0.0322  0.0876 -0.8871
  155MOL   C11128139   7.747   5.669   6.773 -0.2841  0.8588 -0.6290
  155MOL   C11228140   7.670   5.615   6.543 -0.1653 -0.3931 -0.1482
  155MOL   O11328141   7.585   5.531   6.508  0.4693  0.5148  0.2745
  155MOL   O11428142   7.685   5.737   6.489 -0.1550  0.1572 -0.0610
  155MOL   H11528143   7.867   5.616   6.606  0.5315 -0.1620  0.2743
  155MOL   H11628144   7.644   5.676   6.805 -0.5722 -0.2979 -1.2744
  155MOL   H11728145   7.803   5.618   6.852 -0.7856 -1.0629 -1.4834
  155MOL   H11828146   7.776   5.774   6.760  3.9449 -0.3669 -2.0626
  155MOL   C11928147   7.587   5.795   6.403 -0.2949 -0.2117  0.3313
  155MOL   C12028148   7.638   5.901   6.308 -0.0412 -0.3105  0.0939
  155MOL   C12128149   7.481   5.865   6.491 -0.1590  0.7377 -0.6833
  155MOL   O12228150   7.360   5.840   6.474 -0.5020 -0.2719 -0.2064
  155MOL   O12328151   7.533   5.962   6.569 -0.0420 -0.1379 -0.1756
  155MOL   H12428152   7.540   5.719   6.341  1.0457  0.2147 -1.2720
  155MOL   H12528153   7.711   5.864   6.235 -0.4622 -0.6101 -0.1775
  155MOL   H12628154   7.557   5.937   6.244  0.3588 -1.5917 -1.1558
  155MOL   H12728155   7.669   5.990   6.361  0.7437  0.7588 -2.0922
  155MOL   C12828156   7.447   6.059   6.625 -0.3132 -0.2941  0.4002
  155MOL   C12928157   7.520   6.201   6.625 -0.3437 -0.3757  0.0181
  155MOL   C13028158   7.414   6.021   6.770  0.4732 -0.7590 -0.2983
  155MOL   O13128159   7.453   5.913   6.821  0.3779 -0.1192 -0.5351
  155MOL   O13228160   7.328   6.103   6.831 -0.0075 -0.0705 -0.1646
  155MOL   H13328161   7.348   6.071   6.582  0.1532 -0.2271 -0.6816
  155MOL   H13428162   7.616   6.211   6.675  0.2956  0.9605 -1.4534
  155MOL   H13528163   7.527   6.231   6.521  1.0907 -0.2411  0.1486
  155MOL   H13628164   7.460   6.281   6.667  1.0115  1.0285 -0.6946
  155MOL   C13728165   7.288   6.076   6.961  0.5883 -0.5025 -0.2514
  155MOL   C13828166   7.179   6.179   6.997  0.4538 -0.8114  0.4431
  155MOL   C13928167   7.407   6.090   7.066  0.3253  0.3560  0.0731
  155MOL   O14028168   7.508   6.147   7.036  0.3667  0.7255 -0.2861
  155MOL   O14128169   7.374   6.033   7.183  0.7686 -0.1495 -0.5018
  155MOL   H14228170   7.244   5.977   6.950  0.2862 -0.4076  0.0977
  155MOL   H14328171   7.211   6.278   6.968 -1.6001  0.3298  1.9477
  155MOL   H14428172   7.088   6.150   6.945 -0.5109  2.9690 -0.0485
  155MOL   H14528173   7.149   6.168   7.101 -1.7003  0.8428  0.0158
  155MOL   C14628174   7.452   6.045   7.303 -0.6375 -0.0178 -0.4883
  155MOL   C14728175   7.403   5.939   7.405 -0.9677 -0.1379  0.1167
  155MOL   C14828176   7.443   6.189   7.365  0.4190  0.1978 -0.0946
  155MOL   O14928177   7.346   6.262   7.347 -0.1153 -0.1012 -0.1092
  155MOL   O15028178   7.561   6.241   7.416  0.1088  0.2930 -0.6870
  155MOL   H15128179   7.558   6.021   7.295 -0.4735  1.1415 -1.7704
  155MOL   H15228180   7.351   5.857   7.354  1.2668 -0.5981 -1.4792
  155MOL   H15328181   7.480   5.887   7.461  1.5406  2.1798 -1.0909
  155MOL   H15428182   7.322   5.972   7.471 -0.1802 -3.3675  2.8522
  155MOL   C15528183   7.570   6.376   7.444 -1.1930  0.6567  0.9634
  155MOL   C15628184   7.724   6.402   7.466  0.3197 -0.1318  0.7198
  155MOL   C15728185   7.490   6.405   7.568  0.2997 -0.0877  0.5105
  155MOL   O15828186   7.438   6.313   7.631  0.0638  0.3708 -0.2799
  155MOL   O15928187   7.488   6.531   7.600 -0.4335 -0.9444  0.1543
  155MOL   H16028188   7.542   6.435   7.357  1.9203 -0.0682 -0.6096
  155MOL   H16128189   7.746   6.509   7.469  4.2026 -0.8110 -0.7875
  155MOL   H16228190   7.753   6.366   7.564 -0.2285 -1.6460  0.3333
  155MOL   H16328191   7.786   6.371   7.382  0.4372 -1.2967  1.2297
  155MOL   C16428192   7.433   6.586   7.719 -0.5019 -0.3536 -0.1023
  155MOL   C16528193   7.351   6.718   7.676  0.4495 -0.4187  0.5525
  155MOL   C16628194   7.549   6.621   7.808 -0.0515  0.2216 -0.5621
  155MOL   O16728195   7.597   6.733   7.827 -0.3518  0.1176 -0.5653
  155MOL   O16828196   7.606   6.512   7.857 -0.1523 -0.2780  0.0837
  155MOL   H16928197   7.360   6.516   7.760 -1.0268  0.1071 -0.2454
  155MOL   H17028198   7.258   6.724   7.732  0.3170 -1.4793  0.4585
  155MOL   H17128199   7.398   6.814   7.695 -0.5563  0.1661  0.1263
  155MOL   H17228200   7.339   6.730   7.569  2.9846  2.1329  0.4827
  155MOL   C17328201   7.727   6.516   7.937  0.1142  0.0947  0.2782
  155MOL   C17428202   7.842   6.521   7.845 -0.3092 -0.6662 -0.0163
  155MOL   C17528203   7.733   6.390   8.020 -0.1507  0.8905  0.4670
  155MOL   O17628204   7.748   6.387   8.143  0.6239  0.2678  0.1691
  155MOL   O17728205   7.717   6.277   7.942 -0.3800  0.1538  0.2841
  155MOL   H17828206   7.727   6.595   8.012 -0.0866  0.3093  0.0532
  155MOL   H17928207   7.905   6.432   7.855  0.2483 -0.5109 -2.0057
  155MOL   H18028208   7.813   6.517   7.740 -0.1499 -0.7596 -0.0572
  155MOL   H18128209   7.901   6.611   7.861  0.8377 -1.1636 -1.3198
  155MOL   H18228210   7.708   6.207   8.004  3.5388 -1.3768 -0.7030
  156MOL     C128211   3.155   1.950   8.028  0.0091  0.2388  1.4306
  156MOL     C228212   3.164   2.040   7.902 -0.3265 -0.4934  0.1599
  156MOL     C328213   3.261   1.971   8.140  0.7218 -0.2117 -0.2654
  156MOL     O428214   3.277   2.081   0.050 -0.0815  0.1349 -0.0892
  156MOL     O528215   3.333   1.859   0.015 -0.3444 -0.1331  0.1743
  156MOL     H628216   3.061   1.973   8.077 -0.2848  1.0118  0.5328
  156MOL     H728217   3.181   2.139   7.945  1.0042 -0.3985 -0.5617
  156MOL     H828218   3.240   2.010   7.830 -1.0540  0.1634 -0.9008
  156MOL     H928219   3.067   2.039   7.853  0.9107 -3.9551 -2.3279
  156MOL    H1028220   3.147   1.844   8.008  1.4634  0.5060 -0.7919
  156MOL    C1128221   3.423   1.849   0.122 -0.0186  0.6426 -0.1738
  156MOL    C1228222   3.489   1.713   0.112  0.4099 -0.4499 -0.8549
  156MOL    C1328223   3.349   1.865   0.258  0.0922  0.1548  0.1388
  156MOL    O1428224   3.225   1.854   0.281  0.1237  0.4362  0.2180
  156MOL    O1528225   3.432   1.887   0.364  0.6577 -0.1853 -0.2651
  156MOL    H1628226   3.501   1.923   0.104  1.8405 -1.6855 -2.0662
  156MOL    H1728227   3.562   1.729   0.033  0.4351 -1.2191 -0.9862
  156MOL    H1828228   3.547   1.694   0.202  0.1954  1.0554 -0.3753
  156MOL    H1928229   3.418   1.636   0.082  1.3648 -1.3634 -0.7834
  156MOL    C2028230   3.392   1.924   0.491 -0.2519  0.1439  0.1551
  156MOL    C2128231   3.304   1.810   0.548 -0.3427 -0.1844 -0.2811
  156MOL    C2228232   3.336   2.069   0.495 -0.0206  0.8240  0.3656
  156MOL    O2328233   3.227   2.099   0.546  0.2044  0.9636  0.1875
  156MOL    O2428234   3.409   2.152   0.430 -0.3751 -0.3405  0.2691
  156MOL    H2528235   3.479   1.932   0.556 -0.2083  0.5758  0.0483
  156MOL    H2628236   3.322   1.708   0.514 -0.6138 -0.0760 -0.7670
  156MOL    H2728237   3.319   1.825   0.655 -0.6201  0.3711 -0.3176
  156MOL    H2828238   3.200   1.836   0.530 -1.1392 -2.2451  1.2354
  156MOL    C2928239   3.386   2.289   0.417 -0.4131  0.3983 -0.5374
  156MOL    C3028240   3.443   2.353   0.548  0.1584  0.2862  0.4293
  156MOL    C3128241   3.247   2.331   0.373 -0.5268  0.1869  0.4995
  156MOL    O3228242   3.193   2.417   0.434  1.2836 -0.0533  0.0305
  156MOL    O3328243   3.205   2.281   0.254 -0.6831  0.4023 -0.7611
  156MOL    H3428244   3.447   2.328   0.336  0.9925 -1.5638 -0.4514
  156MOL    H3528245   3.400   2.313   0.639 -2.0235  1.2230 -0.1453
  156MOL    H3628246   3.550   2.329   0.548  0.3918  1.2602 -0.1925
  156MOL    H3728247   3.445   2.462   0.555 -1.4786  0.2238  1.9400
  156MOL    C3828248   3.070   2.301   0.211 -0.3690 -0.4416 -0.4504
  156MOL    C3928249   3.015   2.173   0.155  0.1441  0.8130  0.4894
  156MOL    C4028250   3.060   2.410   0.111  0.0918 -0.2707 -0.1426
  156MOL    O4128251   2.980   2.504   0.136 -0.0547 -0.5387  0.7009
  156MOL    O4228252   3.119   2.382   8.139  0.1551 -0.1346  0.0961
  156MOL    H4328253   3.010   2.328   0.299 -0.7167  2.9854 -1.6442
  156MOL    H4428254   3.031   2.152   0.050  1.0159 -0.5059  0.8767
  156MOL    H4528255   3.050   2.086   0.210  0.1480 -0.3567 -1.3310
  156MOL    H4628256   2.907   2.166   0.170 -0.0590  3.3240  0.4875
  156MOL    C4728257   3.129   2.481   8.050 -0.7473  0.6133  0.5119
  156MOL    C4828258   3.157   2.421   7.911  0.9137  0.1131 -0.0818
  156MOL    C4928259   3.240   2.580   8.092 -0.1825 -0.4999 -0.5060
  156MOL    O5028260   3.339   2.543   0.011  0.1669  0.6681  0.0120
  156MOL    O5128261   3.207   2.710   8.057  0.2585  0.2970  0.4278
  156MOL    H5228262   3.036   2.538   8.041 -0.4460  1.1979  1.0063
  156MOL    H5328263   3.073   2.357   7.885 -1.3000  2.7762  0.3036
  156MOL    H5428264   3.167   2.496   7.833  1.0377  1.5261  1.2661
  156MOL    H5528265   3.254   2.372   7.917  1.5256  1.4335  1.2192
  156MOL    C5628266   3.288   2.823   8.106  0.1153 -0.3524  0.5072
  156MOL    C5728267   3.195   2.944   8.109 -0.0831 -0.3342 -0.1747
  156MOL    C5828268   3.409   2.847   8.012  0.8086  0.3374  0.4853
  156MOL    O5928269   3.436   2.958   7.962 -0.5739  0.8084  0.2530
  156MOL    O6028270   3.483   2.741   8.004 -0.1609  0.8118  0.1676
  156MOL    H6128271   3.316   2.805   0.062 -1.0343  1.3737  1.1247
  156MOL    H6228272   3.124   2.932   0.043 -0.5048 -0.2276 -0.5270
  156MOL    H6328273   3.239   3.042   8.126 -1.7570  0.6988 -1.7299
  156MOL    H6428274   3.131   2.952   8.022  1.3202  2.7184 -0.9944
  156MOL    C6528275   3.587   2.726   7.914  0.0969  0.0350 -0.2819
  156MOL    C6628276   3.598   2.578   7.886  0.2165  0.0742 -0.1978
  156MOL    C6728277   3.715   2.799   7.963 -0.2215  0.2236  0.0748
  156MOL    O6828278   3.731   2.813   8.087  0.2213 -0.0195 -0.3582
  156MOL    O6928279   3.794   2.839   7.865  0.0237 -0.3889  0.2096
  156MOL    H7028280   3.554   2.769   7.819 -3.3359 -2.1557 -0.1375
  156MOL    H7128281   3.504   2.548   7.841 -0.7544 -0.2581  1.9924
  156MOL    H7228282   3.680   2.544   7.823  0.0159 -0.7236 -0.0307
  156MOL    H7328283   3.605   2.516   7.976  2.9861  1.9985  1.0003
  156MOL    C7428284   3.916   2.896   7.894  1.1141  0.4692  0.9324
  156MOL    C7528285   3.890   3.042   7.915 -0.2780  0.2319  0.4094
  156MOL    C7628286   4.013   2.874   7.783 -0.0291  0.3523  0.9775
  156MOL    O7728287   4.112   2.805   7.800  0.4699 -0.1978 -0.2019
  156MOL    O7828288   3.971   2.926   7.669 -0.5725 -0.4026 -0.6257
  156MOL    H7928289   3.957   2.852   7.985  1.2505  0.4136  0.8448
  156MOL    H8028290   3.824   3.076   7.835  0.4941  0.4442 -0.1367
  156MOL    H8128291   3.839   3.078   8.004 -1.6199  1.0309 -0.6577
  156MOL    H8228292   3.986   3.094   7.907 -1.5874  2.9532  1.7131
  156MOL    C8328293   4.023   2.892   7.539 -0.1738  0.3786 -0.1489
  156MOL    C8428294   3.953   2.985   7.440  0.4660  0.1873  0.2049
  156MOL    C8528295   4.005   2.740   7.499 -0.2091 -0.1022  0.3376
  156MOL    O8628296   4.092   2.681   7.440  0.0038 -0.1793 -0.2107
  156MOL    O8728297   3.887   2.689   7.532 -0.8347 -0.7585 -0.1936
  156MOL    H8828298   4.129   2.914   7.531 -0.6184  2.3791 -0.8717
  156MOL    H8928299   3.846   2.967   7.423 -0.1244  1.2244  2.5962
  156MOL    H9028300   3.970   3.091   7.459  0.5354  0.2409 -0.1537
  156MOL    H9128301   3.986   2.973   7.337  1.5071 -1.3208  0.7124
  156MOL    C9228302   3.856   2.548   7.500 -0.5324 -1.0140  0.2222
  156MOL    C9328303   3.706   2.540   7.482 -0.3133 -0.2501 -0.2523
  156MOL    C9428304   3.911   2.449   7.603  0.3328  0.0196 -0.3591
  156MOL    O9528305   3.846   2.356   7.647  0.1565 -0.3229 -0.2838
  156MOL    O9628306   4.030   2.485   7.654 -0.2175  0.5714  0.5499
  156MOL    H9728307   3.906   2.534   7.404  0.7873 -1.9390  1.0355
  156MOL    H9828308   3.653   2.582   7.567  0.9303 -0.2590  0.5292
  156MOL    H9928309   3.677   2.596   7.393  0.1190  0.9552  0.3598
  156MOL   H10028310   3.676   2.437   7.464 -1.2041 -0.3303  1.6179
  156MOL   C10128311   4.112   2.382   7.715  0.0002 -0.3647  0.3108
  156MOL   C10228312   4.114   2.424   7.859  0.3149  0.0207 -0.3499
  156MOL   C10328313   4.243   2.385   7.636 -0.3068 -0.5884  0.0981
  156MOL   O10428314   4.349   2.398   7.694 -0.2075 -0.1364 -0.0743
  156MOL   O10528315   4.227   2.354   7.498 -0.6070 -0.4143 -0.0229
  156MOL   H10628316   4.079   2.279   7.699  0.0139  0.0111 -2.3545
  156MOL   H10728317   4.013   2.427   7.902  0.5971  1.0753  0.2539
  156MOL   H10828318   4.165   2.352   7.923  0.8245 -0.3537 -1.1792
  156MOL   H10928319   4.156   2.522   7.883  1.4256 -1.3973  4.0293
  156MOL   C11028320   4.340   2.317   7.422  0.0745  0.8343  0.2010
  156MOL   C11128321   4.305   2.322   7.272 -0.2142 -0.6060 -0.0475
  156MOL   C11228322   4.403   2.187   7.467  0.2337  0.0120 -0.5818
  156MOL   O11328323   4.525   2.175   7.460  0.1876 -0.3462 -0.4138
  156MOL   O11428324   4.311   2.088   7.512 -0.2230 -0.2385 -0.4121
  156MOL   H11528325   4.420   2.390   7.434 -0.3382  1.8846 -3.0013
  156MOL   H11628326   4.307   2.424   7.233  1.7932 -0.3936  0.5641
  156MOL   H11728327   4.389   2.289   7.211 -1.6723 -2.1596 -1.2635
  156MOL   H11828328   4.211   2.281   7.236 -1.2901  1.8110 -0.0814
  156MOL   C11928329   4.357   1.950   7.521 -0.6087 -0.1694 -0.4059
  156MOL   C12028330   4.229   1.867   7.528  0.7763 -1.1637  0.2043
  156MOL   C12128331   4.441   1.930   7.646 -0.0404  0.2548 -0.4974
  156MOL   O12228332   4.388   1.928   7.760  0.1914  0.7300 -0.0855
  156MOL   O12328333   4.574   1.920   7.615  0.2158  0.3040  0.1977
  156MOL   H12428334   4.425   1.926   7.439 -1.5695 -0.2817 -1.1685
  156MOL   H12528335   4.237   1.758   7.525 -1.3407 -1.3304 -0.4550
  156MOL   H12628336   4.170   1.897   7.615 -1.2612 -1.7395 -0.9621
  156MOL   H12728337   4.163   1.894   7.446  1.0097 -0.3220  0.2916
  156MOL   C12828338   4.650   1.838   7.705 -0.1555  0.2295  0.5842
  156MOL   C12928339   4.799   1.869   7.695 -0.1544  0.0077 -0.0459
  156MOL   C13028340   4.625   1.693   7.687 -0.1991  0.3665 -0.3137
  156MOL   O13128341   4.611   1.623   7.790  0.1129 -0.0510  0.0470
  156MOL   O13228342   4.640   1.658   7.565  0.1288 -0.3924  0.4819
  156MOL   H13328343   4.624   1.843   7.810  3.2188  0.4123  1.4953
  156MOL   H13428344   4.846   1.840   7.601  0.6204  0.6790  0.1356
  156MOL   H13528345   4.815   1.976   7.709 -0.5694  0.2175 -1.1275
  156MOL   H13628346   4.851   1.815   7.774  1.2336 -0.2890 -1.1452
  156MOL   C13728347   4.631   1.520   7.522 -0.5858 -0.4420  0.1201
  156MOL   C13828348   4.700   1.500   7.386  0.4069  0.0372 -0.5061
  156MOL   C13928349   4.481   1.481   7.507  0.1360 -0.3120  0.1022
  156MOL   O14028350   4.392   1.554   7.462 -0.7313 -0.3580 -0.0478
  156MOL   O14128351   4.454   1.358   7.549 -0.0291  0.5863  0.6865
  156MOL   H14228352   4.692   1.461   7.591 -1.2828 -0.1251  1.0185
  156MOL   H14328353   4.722   1.398   7.355  1.8818  0.2417 -0.1893
  156MOL   H14428354   4.655   1.554   7.303  0.9111 -0.7023 -1.2658
  156MOL   H14528355   4.797   1.550   7.381  0.6391 -0.4251 -0.6376
  156MOL   C14628356   4.333   1.293   7.498 -0.4597  0.3190 -0.7563
  156MOL   C14728357   4.313   1.169   7.589  0.4205 -0.0341  0.0788
  156MOL   C14828358   4.356   1.245   7.357 -0.0298 -1.2773  0.2452
  156MOL   O14928359   4.465   1.240   7.302  0.4450 -0.3167  0.2600
  156MOL   O15028360   4.242   1.199   7.304  0.9553 -0.0673  0.1713
  156MOL   H15128361   4.250   1.364   7.503  0.2630  1.0202  2.5273
  156MOL   H15228362   4.312   1.196   7.694 -1.0304 -0.2042  0.1281
  156MOL   H15328363   4.221   1.122   7.555  1.1495 -2.2742  1.1646
  156MOL   H15428364   4.394   1.097   7.580 -0.5753 -1.1585  0.0851
  156MOL   C15528365   4.232   1.146   7.171 -0.0536 -0.1112  0.9264
  156MOL   C15628366   4.126   1.232   7.101 -0.0978 -0.8202  0.5355
  156MOL   C15728367   4.204   0.991   7.173  0.7343  0.3531  0.2453
  156MOL   O15828368   4.129   0.934   7.091 -0.6498 -0.3164  0.3231
  156MOL   O15928369   4.280   0.933   7.264 -0.1518 -0.4472 -0.1291
  156MOL   H16028370   4.323   1.168   7.116  0.7858 -2.5177  1.2763
  156MOL   H16128371   4.026   1.233   7.145  0.5202  1.1661  1.9832
  156MOL   H16228372   4.165   1.333   7.112  3.5842 -2.2530  1.1968
  156MOL   H16328373   4.124   1.205   6.995  0.4724 -1.2801  0.6422
  156MOL   C16428374   4.252   0.795   7.296 -0.0272 -0.4176  0.2331
  156MOL   C16528375   4.266   0.772   7.447 -0.0124 -0.1953 -0.1204
  156MOL   C16628376   4.344   0.700   7.215  0.2044 -0.4241  0.8667
  156MOL   O16728377   4.306   0.589   7.192  0.4094  0.4426  0.1736
  156MOL   O16828378   4.446   0.768   7.160 -0.3510 -0.4157  0.4499
  156MOL   H16928379   4.151   0.763   7.271  0.0994 -1.0793  0.5302
  156MOL   H17028380   4.372   0.761   7.469  0.1655 -0.3346 -1.0186
  156MOL   H17128381   4.223   0.849   7.511  0.6784 -1.1635  1.5581
  156MOL   H17228382   4.218   0.677   7.474 -2.4727  0.8383 -0.7008
  156MOL   C17328383   4.535   0.718   7.059  0.6240  0.0145  0.2530
  156MOL   C17428384   4.461   0.722   6.923  0.2827  0.4315 -0.3028
  156MOL   C17528385   4.602   0.582   7.093 -0.1280 -0.5192 -0.0095
  156MOL   O17628386   4.601   0.485   7.018  0.1661 -0.0881  0.2030
  156MOL   O17728387   4.661   0.590   7.214  0.2204 -0.7932  0.1848
  156MOL   H17828388   4.613   0.793   7.050 -0.5147  1.3076  1.0001
  156MOL   H17928389   4.378   0.651   6.932 -0.7911  1.8185  1.0593
  156MOL   H18028390   4.426   0.821   6.896 -1.3739 -0.1050 -0.1840
  156MOL   H18128391   4.524   0.682   6.844  0.2580 -0.9808  0.3753
  156MOL   H18228392   4.706   0.508   7.230  2.2105 -0.6165 -3.8192
  157MOL     C128393   4.327   2.926   5.464 -0.4703 -0.0754 -0.2251
  157MOL     C228394   4.232   2.993   5.567  0.2941 -0.3239 -0.5301
  157MOL     C328395   4.258   2.870   5.345  0.6905  0.5058  0.2581
  157MOL     O428396   4.136   2.869   5.325 -0.2324  0.0963 -0.0870
  157MOL     O528397   4.352   2.831   5.252  1.0293 -0.2909 -0.0108
  157MOL     H628398   4.384   3.015   5.437 -0.1586 -1.1602 -3.2721
  157MOL     H728399   4.288   3.032   5.652 -0.7600 -0.5792  0.2947
  157MOL     H828400   4.166   3.068   5.522  0.1734 -1.9999 -3.1919
  157MOL     H928401   4.164   2.920   5.612 -1.1559  1.6550  0.6120
  157MOL    H1028402   4.381   2.846   5.515  1.3206  0.5931 -1.0514
  157MOL    C1128403   4.312   2.776   5.126  0.1083  0.2245  0.2506
  157MOL    C1228404   4.398   2.643   5.095  0.2151  0.9660  0.6666
  157MOL    C1328405   4.324   2.883   5.011 -0.7202  0.1103 -0.3556
  157MOL    O1428406   4.317   3.007   5.023  0.6220 -0.5256 -0.0130
  157MOL    O1528407   4.309   2.826   4.893  0.7369  0.5885  0.0646
  157MOL    H1628408   4.210   2.739   5.129  0.1605  0.1096  3.8272
  157MOL    H1728409   4.380   2.554   5.155 -0.2598 -0.0168 -0.9237
  157MOL    H1828410   4.396   2.613   4.990 -0.8738  1.0282  0.6688
  157MOL    H1928411   4.506   2.658   5.107  0.3438  0.2042  0.4574
  157MOL    C2028412   4.302   2.904   4.773  0.2984 -0.0719  0.2153
  157MOL    C2128413   4.247   2.801   4.668  0.6201  0.3077  0.0561
  157MOL    C2228414   4.441   2.953   4.731 -0.0800 -0.0095 -0.1280
  157MOL    O2328415   4.524   2.874   4.687  0.1844  0.4113 -0.5131
  157MOL    O2428416   4.472   3.072   4.793  0.2803  0.6725 -0.2192
  157MOL    H2528417   4.224   2.979   4.782  0.5072  0.2681 -0.7768
  157MOL    H2628418   4.149   2.763   4.697  0.7596 -0.1852 -0.1158
  157MOL    H2728419   4.250   2.828   4.562 -0.4761  0.4962  0.0625
  157MOL    H2828420   4.302   2.708   4.677  1.1943  0.5193 -1.0659
  157MOL    C2928421   4.607   3.123   4.805  0.3650 -0.0299  0.0232
  157MOL    C3028422   4.595   3.209   4.926  0.3212  0.1055 -0.1461
  157MOL    C3128423   4.651   3.197   4.678 -0.2402 -0.2383 -0.1119
  157MOL    O3228424   4.584   3.195   4.573 -0.1146 -0.3805 -0.0726
  157MOL    O3328425   4.753   3.277   4.696 -0.1514  0.1890 -0.2803
  157MOL    H3428426   4.666   3.032   4.814  2.3609  1.1080 -1.1303
  157MOL    H3528427   4.692   3.248   4.956  0.1925  0.2660  0.0603
  157MOL    H3628428   4.536   3.300   4.913  0.4873  0.2592  0.1980
  157MOL    H3728429   4.556   3.147   5.007 -1.2782 -1.9075 -2.3640
  157MOL    C3828430   4.808   3.370   4.599  0.8035  0.5340  0.0555
  157MOL    C3928431   4.942   3.305   4.550 -0.3924  0.2150  0.7651
  157MOL    C4028432   4.811   3.512   4.664  0.1744 -0.8837 -0.1600
  157MOL    O4128433   4.908   3.548   4.734 -0.1060  0.7082  0.1709
  157MOL    O4228434   4.694   3.583   4.652  0.3387  0.6596 -0.0106
  157MOL    H4328435   4.748   3.374   4.508  1.0495 -0.0242 -0.1336
  157MOL    H4428436   4.995   3.251   4.629  0.3337  1.6809  1.3023
  157MOL    H4528437   4.909   3.235   4.474  1.9388  1.3246 -1.3009
  157MOL    H4628438   4.992   3.384   4.494  0.1324 -0.4869  0.2355
  157MOL    C4728439   4.695   3.717   4.688 -0.0467 -0.0350  0.4055
  157MOL    C4828440   4.551   3.751   4.710 -0.1498 -0.4966 -0.5790
  157MOL    C4928441   4.760   3.799   4.576 -0.6568 -0.3062 -0.3367
  157MOL    O5028442   4.877   3.842   4.589 -0.5256 -0.2342 -0.1078
  157MOL    O5128443   4.685   3.819   4.464 -0.1684  0.1000  0.2129
  157MOL    H5228444   4.748   3.754   4.776  0.9272  1.5702 -0.8164
  157MOL    H5328445   4.476   3.699   4.651 -0.8888  1.8904 -1.8099
  157MOL    H5428446   4.535   3.742   4.817 -0.2810  1.3686 -0.4187
  157MOL    H5528447   4.533   3.858   4.699 -1.8792 -0.9208 -2.1786
  157MOL    C5628448   4.733   3.905   4.356  0.2982 -0.6868  0.6630
  157MOL    C5728449   4.617   3.982   4.296  0.0063 -0.1591  0.3685
  157MOL    C5828450   4.818   3.829   4.254  0.1988  0.0823 -0.4839
  157MOL    O5928451   4.921   3.877   4.206  0.2558 -0.0550 -0.2660
  157MOL    O6028452   4.762   3.719   4.216  0.0712 -0.2805 -0.0787
  157MOL    H6128453   4.812   3.970   4.393 -0.1347 -1.8960  3.8746
  157MOL    H6228454   4.649   4.062   4.229 -0.9443 -1.5296 -1.7721
  157MOL    H6328455   4.545   3.917   4.246  0.0917 -1.1014  1.4473
  157MOL    H6428456   4.564   4.025   4.381 -1.4678  1.4020 -1.3162
  157MOL    C6528457   4.820   3.639   4.117 -0.1125  0.5202 -0.2111
  157MOL    C6628458   4.725   3.546   4.033 -0.1031  0.3470 -0.6206
  157MOL    C6728459   4.930   3.550   4.178 -0.5844  0.5577  0.3397
  157MOL    O6828460   4.952   3.545   4.299  0.0449 -0.1385 -0.0008
  157MOL    O6928461   4.990   3.475   4.088 -0.4480  0.2187  0.3759
  157MOL    H7028462   4.865   3.710   4.048  1.1787  1.1420  1.2248
  157MOL    H7128463   4.779   3.516   3.943  1.2653  3.6719 -1.0150
  157MOL    H7228464   4.684   3.456   4.079  0.0412  0.7884  0.3814
  157MOL    H7328465   4.635   3.600   4.005 -2.2177 -2.4724  0.5484
  157MOL    C7428466   5.045   3.348   4.114  0.7597 -0.8736  0.4289
  157MOL    C7528467   5.183   3.313   4.053  0.0366 -0.4065 -0.1237
  157MOL    C7628468   4.943   3.239   4.074  0.4040  0.1690  1.0346
  157MOL    O7728469   4.961   3.179   3.969 -0.6268  0.7569  0.1039
  157MOL    O7828470   4.842   3.219   4.174  0.3100 -0.2609 -0.1822
  157MOL    H7928471   5.064   3.329   4.219  1.8936  1.2328  0.6322
  157MOL    H8028472   5.198   3.208   4.077  2.3646 -0.0005  0.2742
  157MOL    H8128473   5.199   3.328   3.947 -0.7083  1.4715  0.0034
  157MOL    H8228474   5.259   3.373   4.102 -0.6178  1.0008 -0.7931
  157MOL    C8328475   4.759   3.115   4.165 -0.0024  0.6012 -0.6539
  157MOL    C8428476   4.630   3.157   4.240 -0.3506 -0.8103  0.8949
  157MOL    C8528477   4.823   2.993   4.231  0.3619 -0.4101  0.2581
  157MOL    O8628478   4.857   2.890   4.170  0.3440 -0.4430  0.0280
  157MOL    O8728479   4.836   3.016   4.366 -0.4703  0.4378  0.2356
  157MOL    H8828480   4.748   3.093   4.059 -0.6066  1.1115 -0.7016
  157MOL    H8928481   4.574   3.237   4.191  0.6064  0.7175  2.2607
  157MOL    H9028482   4.560   3.072   4.244 -0.9851 -0.5090 -2.1693
  157MOL    H9128483   4.643   3.193   4.342  0.5034  1.0502  0.1537
  157MOL    C9228484   4.913   2.923   4.441  0.3658 -0.3634  0.1465
  157MOL    C9328485   4.869   2.911   4.584  0.9303  0.0149  0.6989
  157MOL    C9428486   5.061   2.952   4.421  0.9192  0.7859 -0.2574
  157MOL    O9528487   5.097   3.067   4.407  0.1024  0.0953  0.3842
  157MOL    O9628488   5.146   2.852   4.444 -0.1644 -0.1744 -1.1601
  157MOL    H9728489   4.881   2.834   4.385 -1.6876 -0.1549  0.9497
  157MOL    H9828490   4.829   3.002   4.630  0.1169 -0.0205  0.0591
  157MOL    H9928491   4.782   2.846   4.581  0.7290  0.3675 -1.6627
  157MOL   H10028492   4.948   2.871   4.648  0.8644 -0.6548  0.3648
  157MOL   C10128493   5.284   2.885   4.472  0.3359  0.0303 -0.5544
  157MOL   C10228494   5.372   2.755   4.471 -0.0934  0.6421  0.4166
  157MOL   C10328495   5.281   2.954   4.604 -0.4730 -0.3128 -0.7708
  157MOL   O10428496   5.326   3.066   4.621  0.0139 -0.2180  0.3337
  157MOL   O10528497   5.223   2.880   4.704 -0.3654 -0.5464  0.6560
  157MOL   H10628498   5.327   2.948   4.395  0.6652  0.9630  0.3768
  157MOL   H10728499   5.437   2.739   4.385 -0.7544  2.5386 -0.4716
  157MOL   H10828500   5.421   2.728   4.564  2.1520 -2.4972 -1.5502
  157MOL   H10928501   5.301   2.672   4.464  0.3355 -0.0770  3.6679
  157MOL   C11028502   5.228   2.927   4.837  0.2869 -0.2134  0.0143
  157MOL   C11128503   5.188   2.799   4.916  0.3347  1.0394 -0.1366
  157MOL   C11228504   5.125   3.040   4.858 -0.1673 -0.3501 -0.1259
  157MOL   O11328505   5.056   3.089   4.767  0.1580 -0.2611 -0.2136
  157MOL   O11428506   5.104   3.073   4.981 -0.1737 -0.7303 -0.1658
  157MOL   H11528507   5.325   2.965   4.866 -0.4319 -0.2141  2.5075
  157MOL   H11628508   5.080   2.784   4.910  0.3599  0.6769  0.2607
  157MOL   H11728509   5.248   2.714   4.883  0.7798  1.2842  0.0402
  157MOL   H11828510   5.204   2.828   5.020  0.0810  0.1875  0.1403
  157MOL   C11928511   4.980   3.135   5.015 -0.7027  0.5153  0.4447
  157MOL   C12028512   4.985   3.288   5.003  0.6452 -0.0658 -0.1230
  157MOL   C12128513   4.933   3.081   5.153  0.5433 -0.1948  0.2299
  157MOL   O12228514   4.996   3.003   5.221  0.4451 -0.4454 -0.0871
  157MOL   O12328515   4.809   3.120   5.193  0.1702 -0.5077 -0.5094
  157MOL   H12428516   4.910   3.081   4.952 -0.4397 -0.3022  0.8307
  157MOL   H12528517   4.902   3.317   5.067  2.0009 -0.7425  2.0082
  157MOL   H12628518   5.075   3.328   5.050 -0.8756  2.1385  0.9468
  157MOL   H12728519   4.968   3.325   4.902  0.3519 -0.4253 -0.2082
  157MOL   C12828520   4.754   3.058   5.311 -0.0433  0.0601 -0.3119
  157MOL   C12928521   4.684   2.924   5.290 -0.1548  0.0274  0.1740
  157MOL   C13028522   4.650   3.156   5.369 -0.0669 -0.0107  0.2088
  157MOL   O13128523   4.634   3.179   5.488 -0.2675 -0.4724  0.2018
  157MOL   O13228524   4.568   3.203   5.274 -0.4661  0.5473  0.6621
  157MOL   H13328525   4.829   3.048   5.389 -2.5169 -1.4998  1.9643
  157MOL   H13428526   4.629   2.924   5.196  0.0402 -2.9188  0.0073
  157MOL   H13528527   4.758   2.846   5.272  1.0261  1.4060 -0.9469
  157MOL   H13628528   4.620   2.889   5.372  2.1336 -1.5711  1.3267
  157MOL   C13728529   4.485   3.319   5.296  0.3038 -0.4459  0.1859
  157MOL   C13828530   4.375   3.327   5.187  0.1378 -0.5082  0.3433
  157MOL   C13928531   4.564   3.450   5.306 -0.1543  0.2960  0.7125
  157MOL   O14028532   4.547   3.525   5.398  0.0783  0.4821 -0.6487
  157MOL   O14128533   4.649   3.466   5.205 -0.0567  0.1194  0.2018
  157MOL   H14228534   4.432   3.311   5.391 -0.6318  2.1550 -0.0735
  157MOL   H14328535   4.414   3.392   5.108  2.1572  1.5079  2.8929
  157MOL   H14428536   4.353   3.230   5.143 -0.7552 -0.2326  0.1631
  157MOL   H14528537   4.276   3.362   5.216  0.7479  1.8810 -0.3048
  157MOL   C14628538   4.719   3.592   5.184 -0.2615 -0.7454  0.3177
  157MOL   C14728539   4.741   3.611   5.034 -0.2276 -0.0920 -0.1287
  157MOL   C14828540   4.849   3.603   5.264 -0.4033 -0.5925  0.2024
  157MOL   O14928541   4.881   3.710   5.311 -0.6369  0.0570 -0.5921
  157MOL   O15028542   4.924   3.489   5.285  0.1858 -0.0600 -0.6046
  157MOL   H15128543   4.656   3.672   5.222 -1.4779 -0.6451 -1.7992
  157MOL   H15228544   4.738   3.718   5.010 -2.0833  0.0577  0.6782
  157MOL   H15328545   4.836   3.571   4.997  0.1782  0.6782  0.0596
  157MOL   H15428546   4.661   3.567   4.975  1.1721 -2.0331 -0.6260
  157MOL   C15528547   5.006   3.478   5.402  0.2019  0.3157  0.4663
  157MOL   C15628548   5.099   3.357   5.389  0.2200  0.2545 -0.1066
  157MOL   C15728549   4.924   3.469   5.537  0.4942  0.1547  1.2525
  157MOL   O15828550   4.811   3.427   5.537  0.9162  0.0769 -0.1026
  157MOL   O15928551   4.996   3.514   5.650  0.1157  0.4288 -0.1105
  157MOL   H16028552   5.063   3.571   5.411 -1.3342  1.0850  2.4595
  157MOL   H16128553   5.045   3.265   5.368  2.2554 -0.7525 -1.0122
  157MOL   H16228554   5.179   3.372   5.317  1.6822  1.2722  1.6754
  157MOL   H16328555   5.140   3.329   5.486 -1.7863 -0.5196  0.5513
  157MOL   C16428556   4.952   3.493   5.788 -0.5615  0.1127  0.4773
  157MOL   C16528557   5.045   3.562   5.887  0.1538 -0.4388 -0.6621
  157MOL   C16628558   4.935   3.345   5.814 -0.0048 -0.0426  0.6891
  157MOL   O16728559   4.826   3.300   5.851 -0.2227 -0.3639  0.1620
  157MOL   O16828560   5.046   3.266   5.788 -0.5029 -0.8303 -0.8894
  157MOL   H16928561   4.852   3.535   5.802  0.4876  1.6890  3.8982
  157MOL   H17028562   5.010   3.536   5.988  0.6764 -0.1827 -0.4165
  157MOL   H17128563   5.142   3.513   5.880  1.6088  2.0827  1.2582
  157MOL   H17228564   5.050   3.670   5.873  1.0084 -0.0994  1.8804
  157MOL   C17328565   5.039   3.127   5.821  0.1526  0.2287  0.4545
  157MOL   C17428566   5.176   3.088   5.867  0.0606 -1.0734  0.7741
  157MOL   C17528567   4.989   3.047   5.700 -0.5809  0.1751 -0.2364
  157MOL   O17628568   5.055   2.963   5.646 -0.3751 -0.4081  0.9395
  157MOL   O17728569   4.859   3.086   5.665  0.2003 -0.2480 -0.7396
  157MOL   H17828570   4.966   3.108   5.899 -0.6824  0.1792 -0.3244
  157MOL   H17928571   5.189   2.990   5.912  1.5441 -1.7224 -0.9669
  157MOL   H18028572   5.251   3.091   5.788 -0.6868  0.3472  0.0816
  157MOL   H18128573   5.221   3.151   5.944  0.6962 -0.3087 -0.1983
  157MOL   H18228574   4.828   3.160   5.717 -0.0745 -0.8311 -0.0611
  158MOL     C128575   2.546   3.502   0.959  0.9123  0.0233 -0.0839
  158MOL     C228576   2.399   3.489   0.999 -0.4906  0.2860  0.4650
  158MOL     C328577   2.561   3.527   0.809  0.1728 -0.5733 -0.4963
  158MOL     O428578   2.619   3.449   0.733  0.2252  0.1022 -0.3239
  158MOL     O528579   2.500   3.641   0.772  0.6471 -0.3737 -0.1281
  158MOL     H628580   2.576   3.597   1.003 -1.4006 -0.0210  1.6853
  158MOL     H728581   2.389   3.492   1.108  0.5871 -2.6826  0.6974
  158MOL     H828582   2.332   3.560   0.950  1.4730  0.6794 -1.6990
  158MOL     H928583   2.362   3.393   0.963  0.0089  0.0993  0.4545
  158MOL    H1028584   2.606   3.422   1.000  2.0688  0.4619 -0.8809
  158MOL    C1128585   2.518   3.704   0.647 -0.6212  0.7047 -0.2199
  158MOL    C1228586   2.606   3.831   0.675  0.1495 -0.0295 -0.3586
  158MOL    C1328587   2.394   3.736   0.569  0.2353  0.0657  0.0454
  158MOL    O1428588   2.374   3.843   0.508 -0.1060  0.3827 -0.2770
  158MOL    O1528589   2.311   3.618   0.569 -0.2877  0.1791 -0.3849
  158MOL    H1628590   2.575   3.641   0.578 -1.1430  1.1759 -1.0990
  158MOL    H1728591   2.640   3.886   0.587  0.1476  1.9051  0.8386
  158MOL    H1828592   2.551   3.900   0.738  1.0617 -1.0701  1.6313
  158MOL    H1928593   2.692   3.792   0.729 -0.6846 -0.7948  0.4427
  158MOL    C2028594   2.176   3.618   0.513 -0.0730  0.5833 -0.4979
  158MOL    C2128595   2.089   3.514   0.588 -0.2639  0.7585 -0.2278
  158MOL    C2228596   2.177   3.587   0.363 -0.2805  0.3102  0.0745
  158MOL    O2328597   2.237   3.658   0.276  0.3016  0.6147 -0.4219
  158MOL    O2428598   2.120   3.473   0.333 -0.4937  0.1644 -0.7302
  158MOL    H2528599   2.140   3.720   0.526  0.8328  0.7938  0.4582
  158MOL    H2628600   1.986   3.500   0.553 -1.6291  0.4990  3.5821
  158MOL    H2728601   2.132   3.414   0.584  0.0299  0.7741  1.7217
  158MOL    H2828602   2.078   3.550   0.691  2.1246  1.2674 -0.1337
  158MOL    C2928603   2.096   3.439   0.198 -0.0716  0.9178  0.1261
  158MOL    C3028604   1.968   3.352   0.186 -0.1701 -0.0137 -0.1465
  158MOL    C3128605   2.222   3.364   0.137 -0.5675 -0.0551  1.0575
  158MOL    O3228606   2.212   3.251   0.095 -0.5177  0.0956 -0.1088
  158MOL    O3328607   2.335   3.443   0.135  0.2887 -0.4567  0.9740
  158MOL    H3428608   2.081   3.530   0.139 -0.4033  0.1531 -0.9909
  158MOL    H3528609   1.984   3.248   0.213  2.0307  1.1180  3.1400
  158MOL    H3628610   1.888   3.392   0.248 -2.1257 -0.6200 -2.2074
  158MOL    H3728611   1.930   3.363   0.084  1.3596  2.5788 -0.4760
  158MOL    C3828612   2.455   3.387   0.087  0.9152 -0.0382 -0.3231
  158MOL    C3928613   2.514   3.278   0.178 -0.4919 -0.2064  0.3268
  158MOL    C4028614   2.548   3.494   0.060 -0.1176 -0.7544 -0.1965
  158MOL    O4128615   2.625   3.488   8.109 -0.3461 -0.4011 -0.1637
  158MOL    O4228616   2.542   3.582   0.161 -0.1619 -0.1042  0.0328
  158MOL    H4328617   2.436   3.340   8.138  1.3670  1.4009 -1.1322
  158MOL    H4428618   2.484   3.174   0.163  2.4293 -1.3234  1.8928
  158MOL    H4528619   2.620   3.283   0.155 -0.5782 -0.9088 -0.2407
  158MOL    H4628620   2.497   3.292   0.285  1.7275 -0.4423  0.7283
  158MOL    C4728621   2.629   3.696   0.146  0.2081 -0.8021  0.3551
  158MOL    C4828622   2.665   3.741   0.286 -0.0818 -0.7936  0.2295
  158MOL    C4928623   2.578   3.818   0.068 -0.0937  0.3814 -0.0131
  158MOL    O5028624   2.657   3.854   8.130  0.6772 -0.6490  0.4218
  158MOL    O5128625   2.455   3.861   0.089  0.3357 -0.5250  0.1796
  158MOL    H5228626   2.724   3.676   0.096 -0.4081 -2.0517 -0.3239
  158MOL    H5328627   2.719   3.835   0.280 -3.0141  0.9087 -0.4036
  158MOL    H5428628   2.579   3.761   0.351 -1.0310 -2.8236 -0.3779
  158MOL    H5528629   2.726   3.668   0.339  3.4998  0.5913 -1.8814
  158MOL    C5628630   2.398   3.954   8.139 -0.1935  0.2987  0.1108
  158MOL    C5728631   2.282   4.020   0.051 -0.2428 -0.0286  0.2966
  158MOL    C5828632   2.372   3.881   8.005  0.1015 -0.1713 -0.3637
  158MOL    O5928633   2.370   3.758   7.991 -0.0565  0.1755 -0.3337
  158MOL    O6028634   2.359   3.967   7.900 -0.0138  0.7843  0.1148
  158MOL    H6128635   2.469   4.034   8.117 -1.6281  1.4606 -0.3400
  158MOL    H6228636   2.209   3.949   0.089 -0.4832  0.0370 -0.0393
  158MOL    H6328637   2.315   4.094   0.124 -0.6703  1.5599 -1.0810
  158MOL    H6428638   2.222   4.074   8.125  1.0189  1.8583  0.6264
  158MOL    C6528639   2.308   3.922   7.768 -0.6420  0.8992  0.2248
  158MOL    C6628640   2.346   4.035   7.668  0.0292 -0.2764 -0.4623
  158MOL    C6728641   2.159   3.913   7.782  0.5452 -0.2871  0.7019
  158MOL    O6828642   2.100   3.810   7.737  0.1410 -0.0901  0.0737
  158MOL    O6928643   2.099   4.025   7.835 -0.2994 -0.6968 -0.0600
  158MOL    H7028644   2.351   3.826   7.737 -0.6306  1.4050 -1.3658
  158MOL    H7128645   2.454   4.044   7.652  0.6448  1.8602  4.1277
  158MOL    H7228646   2.302   4.007   7.573  0.3005  0.2886 -0.7566
  158MOL    H7328647   2.312   4.132   7.703  1.1616 -0.0034 -0.0741
  158MOL    C7428648   1.958   4.025   7.856  0.1263  0.7868 -0.6887
  158MOL    C7528649   1.936   4.168   7.901  0.3159  0.1646 -0.6212
  158MOL    C7628650   1.930   3.928   7.975  0.6870  0.2062 -0.1955
  158MOL    O7728651   1.982   3.940   8.085  0.3888  0.0749  0.0396
  158MOL    O7828652   1.865   3.812   7.933 -0.1270  0.1942  0.1604
  158MOL    H7928653   1.885   4.005   7.778 -0.0682 -2.9959  0.3548
  158MOL    H8028654   1.935   4.233   7.814  0.0038  1.9675  0.7074
  158MOL    H8128655   1.834   4.183   7.935  0.9736  1.1498  0.9875
  158MOL    H8228656   2.015   4.198   7.969  0.3006  1.9008 -1.3582
  158MOL    C8328657   1.883   3.687   7.993  0.0331  0.0198 -0.6005
  158MOL    C8428658   2.030   3.644   8.024  0.1668 -0.4972  0.3634
  158MOL    C8528659   1.801   3.581   7.918  0.2239  0.0404  0.3487
  158MOL    O8628660   1.695   3.607   7.856  0.4923  0.3649  0.1365
  158MOL    O8728661   1.858   3.453   7.922 -0.0736  0.1857  0.2827
  158MOL    H8828662   1.822   3.700   8.083 -0.1747 -0.5863 -0.6545
  158MOL    H8928663   2.093   3.650   7.935  0.7045  1.4906  0.8606
  158MOL    H9028664   2.083   3.709   8.093  0.7553  0.5753 -1.0871
  158MOL    H9128665   2.034   3.541   8.061 -0.2839 -1.2669 -1.6506
  158MOL    C9228666   1.821   3.353   7.819 -0.8380  0.0375 -0.1794
  158MOL    C9328667   1.742   3.238   7.876  0.4850 -0.3006  0.1611
  158MOL    C9428668   1.954   3.306   7.758  0.0924 -0.0517  0.0527
  158MOL    O9528669   1.965   3.204   7.686 -0.5550 -0.1498  0.7621
  158MOL    O9628670   2.063   3.381   7.781  0.1159 -0.8420  0.2590
  158MOL    H9728671   1.762   3.391   7.735  0.1933  1.9368 -0.0761
  158MOL    H9828672   1.750   3.151   7.811  0.1457  0.4150 -0.8505
  158MOL    H9928673   1.787   3.206   7.970  1.5603  1.7578  0.3807
  158MOL   H10028674   1.638   3.270   7.887  0.9159  0.8790  1.0064
  158MOL   C10128675   2.193   3.359   7.736  0.1366 -0.0540 -0.0808
  158MOL   C10228676   2.293   3.438   7.829 -0.5237  0.1904 -0.1614
  158MOL   C10328677   2.194   3.398   7.585  0.6937  0.7663  0.2776
  158MOL   O10428678   2.195   3.311   7.498  0.4514  0.4527 -0.6429
  158MOL   O10528679   2.204   3.530   7.570 -0.3864 -0.1533 -0.0345
  158MOL   H10628680   2.213   3.252   7.741  1.2519  0.1583 -0.0326
  158MOL   H10728681   2.391   3.442   7.782 -0.1624  1.2723  0.6855
  158MOL   H10828682   2.258   3.541   7.830  2.3683  1.2154 -0.4255
  158MOL   H10928683   2.290   3.399   7.930 -3.5912 -1.8224 -0.9451
  158MOL   C11028684   2.215   3.597   7.450  0.1097  0.0748  0.2718
  158MOL   C11128685   2.362   3.616   7.420 -0.3371 -0.0894 -0.4411
  158MOL   C11228686   2.136   3.723   7.460  0.0922 -0.3216  0.2831
  158MOL   O11328687   2.190   3.835   7.451  0.1183  0.1123  0.1205
  158MOL   O11428688   2.012   3.705   7.467 -0.0919 -0.3103  0.2338
  158MOL   H11528689   2.173   3.534   7.371 -1.5431  0.9205  0.4722
  158MOL   H11628690   2.419   3.523   7.424 -3.1717 -1.8385  0.5293
  158MOL   H11728691   2.375   3.650   7.317  0.0080 -2.4483 -1.1983
  158MOL   H11828692   2.406   3.685   7.493 -1.1466  1.0282 -0.9971
  158MOL   C11928693   1.920   3.811   7.456  0.6971  0.2387 -0.1212
  158MOL   C12028694   1.799   3.799   7.551 -0.3020  0.2058 -0.5348
  158MOL   C12128695   1.884   3.811   7.308 -0.3396  0.5604 -0.0477
  158MOL   O12228696   1.838   3.912   7.257  0.0035 -0.3786  0.0698
  158MOL   O12328697   1.900   3.695   7.243 -0.4870  0.5000  0.5879
  158MOL   H12428698   1.968   3.905   7.480 -1.0681  1.0095  0.4941
  158MOL   H12528699   1.731   3.718   7.525 -0.0564  0.5813 -2.3734
  158MOL   H12628700   1.853   3.768   7.641 -0.2520 -1.6677 -1.1774
  158MOL   H12728701   1.750   3.893   7.575  1.0089  0.2567  2.1075
  158MOL   C12828702   1.933   3.684   7.111  0.5700 -0.3975 -0.6670
  158MOL   C12928703   1.865   3.557   7.054  0.2076  0.6422 -0.3730
  158MOL   C13028704   2.082   3.696   7.094 -0.1218  0.0874 -0.1808
  158MOL   O13128705   2.146   3.595   7.081  0.3616 -1.1157 -0.0862
  158MOL   O13228706   2.123   3.821   7.101 -0.2301  0.7930  0.0542
  158MOL   H13328707   1.896   3.759   7.041  0.1267  1.9828  2.0083
  158MOL   H13428708   1.880   3.542   6.947  0.3636  1.1793 -0.4285
  158MOL   H13528709   1.909   3.470   7.102 -1.5087 -0.2854 -0.4608
  158MOL   H13628710   1.757   3.556   7.066  0.2560  2.0888  0.3004
  158MOL   C13728711   2.261   3.859   7.109 -0.6111  0.8377 -0.1744
  158MOL   C13828712   2.276   4.000   7.165  0.5026 -0.3724 -0.3050
  158MOL   C13928713   2.323   3.862   6.966  1.0430  0.3787 -1.0603
  158MOL   O14028714   2.436   3.828   6.947 -0.1039  0.7236 -0.4549
  158MOL   O14128715   2.237   3.912   6.876  0.0085 -0.0269  0.5922
  158MOL   H14228716   2.315   3.790   7.173 -1.9016 -1.2479 -1.2853
  158MOL   H14328717   2.283   4.088   7.101  0.3448 -0.9983 -1.1886
  158MOL   H14428718   2.187   4.026   7.222 -0.7042  0.8626 -2.6816
  158MOL   H14528719   2.357   4.017   7.237 -0.4374 -2.0903  1.1901
  158MOL   C14628720   2.275   3.918   6.735 -0.5704  0.8592 -0.5411
  158MOL   C14728721   2.157   3.989   6.673 -0.0372 -0.2709 -0.1479
  158MOL   C14828722   2.315   3.789   6.663 -0.2990  0.7029  0.3851
  158MOL   O14928723   2.395   3.776   6.570  0.3816 -0.5010 -0.4046
  158MOL   O15028724   2.230   3.693   6.704 -0.1853  0.3081  0.6277
  158MOL   H15128725   2.372   3.967   6.737 -1.1281  1.9374  0.2765
  158MOL   H15228726   2.148   4.087   6.721  2.8435  1.1058 -2.2307
  158MOL   H15328727   2.170   4.002   6.565 -1.4676 -0.7192 -0.3836
  158MOL   H15428728   2.060   3.939   6.680 -0.3378  0.4286  0.7904
  158MOL   C15528729   2.249   3.555   6.665 -0.3265  1.4964 -0.4588
  158MOL   C15628730   2.118   3.480   6.693 -0.1020  1.0402 -0.5462
  158MOL   C15728731   2.363   3.479   6.735  0.7306  0.3192  0.2332
  158MOL   O15828732   2.433   3.535   6.828  0.6741 -0.3414  0.3444
  158MOL   O15928733   2.362   3.354   6.700 -0.1072  0.0708  0.1343
  158MOL   H16028734   2.270   3.554   6.558 -0.9482  0.8626 -0.5770
  158MOL   H16128735   2.085   3.507   6.792  0.2041 -1.7079  0.3517
  158MOL   H16228736   2.038   3.498   6.622 -0.0581 -0.2561 -0.9462
  158MOL   H16328737   2.142   3.373   6.694  1.2199  1.3237 -0.3462
  158MOL   C16428738   2.458   3.261   6.740  0.2185  0.1813 -0.3118
  158MOL   C16528739   2.441   3.139   6.664 -0.7250 -0.8358 -0.0535
  158MOL   C16628740   2.459   3.228   6.892 -0.5393  1.0627  0.8111
  158MOL   O16728741   2.565   3.198   6.949  0.3449  0.0855 -0.0175
  158MOL   O16828742   2.344   3.247   6.954  0.9245  0.4361  0.6495
  158MOL   H16928743   2.557   3.304   6.722  0.8235 -1.2126 -0.3420
  158MOL   H17028744   2.537   3.087   6.663 -0.9447 -1.2423 -1.1157
  158MOL   H17128745   2.362   3.072   6.698 -0.3962 -0.6678  1.0341
  158MOL   H17228746   2.426   3.169   6.560  1.0140  0.4240  0.0388
  158MOL   C17328747   2.335   3.235   7.094 -0.2205 -0.1773 -0.0554
  158MOL   C17428748   2.417   3.337   7.179 -0.2226  0.2242  0.3127
  158MOL   C17528749   2.348   3.090   7.147 -0.6253  0.2065 -0.9793
  158MOL   O17628750   2.445   3.047   7.209 -0.5000  0.3821 -0.4973
  158MOL   O17728751   2.258   3.009   7.080  0.1244  0.1936  0.1207
  158MOL   H17828752   2.231   3.259   7.115  0.7686  3.3289  1.2487
  158MOL   H17928753   2.373   3.437   7.174 -1.3498 -0.2635  0.1885
  158MOL   H18028754   2.419   3.310   7.284  0.2088  1.7641  0.7059
  158MOL   H18128755   2.519   3.338   7.141  0.4846  0.8906  2.1946
  158MOL   H18228756   2.296   2.924   7.096  3.4853  1.3784 -1.1194
  159MOL     C128757   3.160   3.413   6.448 -0.1030 -0.3982 -0.2749
  159MOL     C228758   3.280   3.426   6.351 -0.2798 -0.3582  0.0404
  159MOL     C328759   3.085   3.275   6.441 -0.4939  0.4020  0.8650
  159MOL     O428760   3.129   3.167   6.475 -0.0023 -0.3238 -0.0137
  159MOL     O528761   2.979   3.284   6.361  0.1050  0.1772  0.1886
  159MOL     H628762   3.190   3.424   6.552  1.3656  0.9150 -0.8115
  159MOL     H728763   3.370   3.378   6.389 -0.0444 -0.2724 -0.4126
  159MOL     H828764   3.256   3.368   6.262 -0.0594  1.1705 -1.0181
  159MOL     H928765   3.287   3.531   6.322 -1.0290 -0.1456  0.5737
  159MOL    H1028766   3.091   3.493   6.425 -1.5175 -1.9109 -1.3932
  159MOL    C1128767   2.896   3.172   6.327 -0.0478 -0.1298  0.8682
  159MOL    C1228768   2.949   3.127   6.185  0.7227  0.1385 -0.4292
  159MOL    C1328769   2.750   3.222   6.312  0.1912  0.2352 -0.2249
  159MOL    O1428770   2.659   3.162   6.367  0.3771  0.0550  0.5782
  159MOL    O1528771   2.739   3.340   6.238 -0.1648  0.0907 -0.2396
  159MOL    H1628772   2.913   3.094   6.401  4.8087 -1.1501 -1.1124
  159MOL    H1728773   3.058   3.137   6.189  0.8803 -1.3370 -0.6974
  159MOL    H1828774   2.922   3.022   6.171  3.7218 -0.8185  0.4474
  159MOL    H1928775   2.920   3.181   6.094 -0.4247  1.8270  0.9152
  159MOL    C2028776   2.623   3.414   6.247 -0.4038 -0.0797 -0.3316
  159MOL    C2128777   2.623   3.526   6.141 -0.5050  0.1540  0.2616
  159MOL    C2228778   2.624   3.469   6.394 -0.5610 -0.0638  0.7004
  159MOL    O2328779   2.536   3.447   6.475 -0.0762 -0.1000 -0.1490
  159MOL    O2428780   2.730   3.554   6.416  0.2020 -0.4073  0.1939
  159MOL    H2528781   2.535   3.351   6.230 -0.8533 -0.6872  3.7601
  159MOL    H2628782   2.714   3.586   6.150 -0.5705  0.1651  0.9184
  159MOL    H2728783   2.599   3.495   6.040  1.6198 -1.0945  0.1298
  159MOL    H2828784   2.543   3.597   6.162 -0.0368  0.9268 -0.5662
  159MOL    C2928785   2.747   3.626   6.532 -0.0872  0.0061 -0.5945
  159MOL    C3028786   2.860   3.730   6.504 -0.7314  0.1971 -0.0869
  159MOL    C3128787   2.775   3.538   6.648  0.0645  0.1204  0.4459
  159MOL    O3228788   2.820   3.415   6.640 -0.7032  0.2285 -0.2281
  159MOL    O3328789   2.765   3.617   6.756  0.4059  0.6451 -0.4568
  159MOL    H3428790   2.648   3.667   6.555  0.2842  0.9680 -0.6625
  159MOL    H3528791   2.952   3.678   6.480 -1.2713 -0.1194 -1.5278
  159MOL    H3628792   2.830   3.780   6.412 -2.7789 -0.2474  0.2980
  159MOL    H3728793   2.871   3.807   6.580  0.3297 -0.0417  0.0049
  159MOL    C3828794   2.789   3.555   6.889 -0.2356 -0.2568 -0.0352
  159MOL    C3928795   2.712   3.630   6.985  0.4608  0.5274  0.0183
  159MOL    C4028796   2.937   3.563   6.926  0.0731  0.5434  0.6451
  159MOL    O4128797   2.979   3.631   7.021 -0.7670  0.0702  0.4992
  159MOL    O4228798   3.010   3.483   6.850 -0.7729  0.0350 -0.1422
  159MOL    H4328799   2.760   3.450   6.884  0.2720 -0.5542  2.6290
  159MOL    H4428800   2.725   3.594   7.087 -1.7211  2.7190  1.1241
  159MOL    H4528801   2.743   3.735   6.982 -0.0151  0.6296 -3.2781
  159MOL    H4628802   2.605   3.627   6.966  0.1298  1.8815  1.4863
  159MOL    C4728803   3.157   3.465   6.859  0.1720 -0.2902 -0.2141
  159MOL    C4828804   3.204   3.379   6.981  0.1885 -0.0942  0.1887
  159MOL    C4928805   3.229   3.599   6.856  0.4697 -0.0412  0.2024
  159MOL    O5028806   3.323   3.629   6.934  0.4445 -0.3910  0.8282
  159MOL    O5128807   3.179   3.673   6.757  0.1288 -0.4223  0.1626
  159MOL    H5228808   3.198   3.418   6.770  1.5890 -2.2023  1.3962
  159MOL    H5328809   3.196   3.275   6.950 -1.6262  0.0065  0.2869
  159MOL    H5428810   3.303   3.401   7.020  0.4752  0.0243 -0.5863
  159MOL    H5528811   3.139   3.387   7.068  1.7616 -0.2478  1.3994
  159MOL    C5628812   3.235   3.792   6.730 -0.8204  0.1286 -0.2453
  159MOL    C5728813   3.125   3.898   6.713  0.1960  0.3230 -0.7601
  159MOL    C5828814   3.311   3.778   6.593 -0.0627 -0.3542 -0.8703
  159MOL    O5928815   3.288   3.846   6.495  0.4730  0.4615 -0.7140
  159MOL    O6028816   3.409   3.682   6.594 -0.4153 -0.0133  0.1840
  159MOL    H6128817   3.311   3.831   6.798 -0.1960 -0.8512 -0.3615
  159MOL    H6228818   3.054   3.853   6.644  0.1263 -0.9363  0.1091
  159MOL    H6328819   3.065   3.909   6.804  0.2508 -0.9318 -0.5709
  159MOL    H6428820   3.158   3.992   6.669 -0.6795 -0.2866 -2.7843
  159MOL    C6528821   3.491   3.677   6.476  0.3366 -0.0596  0.2224
  159MOL    C6628822   3.580   3.545   6.488  0.1066  0.7122  0.2602
  159MOL    C6728823   3.586   3.791   6.458 -0.7517 -0.4739  0.5026
  159MOL    O6828824   3.597   3.892   6.530  0.3549 -0.4477 -0.0843
  159MOL    O6928825   3.654   3.775   6.345  0.4298  0.4162 -0.2614
  159MOL    H7028826   3.426   3.679   6.389  0.4788 -0.4174  0.1024
  159MOL    H7128827   3.619   3.515   6.391  0.2659  2.7156 -0.3073
  159MOL    H7228828   3.668   3.558   6.551 -0.2510  1.5616  0.5974
  159MOL    H7328829   3.524   3.458   6.521  1.1508 -1.3507 -3.1454
  159MOL    C7428830   3.744   3.886   6.307  0.5752  0.1620 -0.1975
  159MOL    C7528831   3.787   3.875   6.162 -0.2181 -0.1415 -0.6648
  159MOL    C7628832   3.867   3.895   6.402  0.5198 -0.3918  0.8006
  159MOL    O7728833   3.884   3.991   6.479 -0.1040  0.5910  0.0083
  159MOL    O7828834   3.939   3.784   6.393  0.2038 -0.0786 -0.4909
  159MOL    H7928835   3.689   3.979   6.322 -1.2203 -0.7955 -0.7672
  159MOL    H8028836   3.850   3.959   6.133  0.4905 -0.4999 -0.1700
  159MOL    H8128837   3.856   3.791   6.146  0.8447  0.9560 -1.9245
  159MOL    H8228838   3.706   3.874   6.088 -0.7266  1.8777 -0.1645
  159MOL    C8328839   4.050   3.769   6.483  0.0300  0.2234  0.0224
  159MOL    C8428840   4.181   3.790   6.410 -0.2949  0.1568  0.4951
  159MOL    C8528841   4.044   3.618   6.534  0.0842 -0.0842  0.4555
  159MOL    O8628842   4.121   3.578   6.624 -0.1594  0.2778  0.1686
  159MOL    O8728843   3.955   3.546   6.466  0.2969 -0.4752 -0.1868
  159MOL    H8828844   4.036   3.826   6.575 -0.1500  0.8151 -0.3727
  159MOL    H8928845   4.260   3.785   6.486  1.6765  0.1350 -1.5126
  159MOL    H9028846   4.209   3.709   6.343  2.5648  1.1504  0.4141
  159MOL    H9128847   4.187   3.888   6.362  1.7622  0.4822  1.3309
  159MOL    C9228848   3.959   3.406   6.454 -0.1780  0.8480 -0.7260
  159MOL    C9328849   3.923   3.337   6.590 -0.1630  0.5815  0.4795
  159MOL    C9428850   4.094   3.345   6.399 -0.1605 -0.6275  0.1408
  159MOL    O9528851   4.189   3.409   6.349  0.1866 -0.1994  0.3935
  159MOL    O9628852   4.093   3.210   6.411  0.3342 -0.5064  0.3542
  159MOL    H9728853   3.879   3.383   6.384 -0.0863  0.4967 -0.7164
  159MOL    H9828854   3.914   3.229   6.578  0.5769  0.6790 -1.0814
  159MOL    H9928855   3.999   3.364   6.664  0.5725 -0.4645  0.1194
  159MOL   H10028856   3.822   3.364   6.619 -0.9820 -0.8493 -0.9317
  159MOL   C10128857   4.198   3.127   6.376 -0.2404  0.0185  0.1651
  159MOL   C10228858   4.136   2.999   6.308 -0.1025 -0.2519  0.9291
  159MOL   C10328859   4.278   3.100   6.504  0.3484 -0.3007 -0.2966
  159MOL   O10428860   4.258   2.993   6.571  0.1260 -0.2340  0.2491
  159MOL   O10528861   4.366   3.205   6.524  0.1102 -0.1855  0.5499
  159MOL   H10628862   4.260   3.172   6.298  0.4159  0.4201  0.9209
  159MOL   H10728863   4.040   2.966   6.347 -0.2800 -1.9161 -0.8331
  159MOL   H10828864   4.131   3.013   6.200  1.3313 -1.4997  0.6868
  159MOL   H10928865   4.195   2.909   6.328 -0.1971 -0.6570 -0.5341
  159MOL   C11028866   4.450   3.208   6.643 -0.3879  0.0907  0.1712
  159MOL   C11128867   4.529   3.339   6.627 -0.5473  0.4663  0.0579
  159MOL   C11228868   4.550   3.090   6.642  0.3036  0.7668 -0.4106
  159MOL   O11328869   4.630   3.070   6.550 -0.2917 -0.4500 -0.4084
  159MOL   O11428870   4.540   3.016   6.751 -0.0455 -0.2254 -0.4421
  159MOL   H11528871   4.397   3.207   6.738 -0.5180  0.5046  0.1021
  159MOL   H11628872   4.450   3.413   6.615 -0.5229  0.6207  0.8164
  159MOL   H11728873   4.586   3.363   6.717  1.9773 -1.4329 -0.9522
  159MOL   H11828874   4.598   3.340   6.543 -2.0009  0.9448 -1.1522
  159MOL   C11928875   4.613   2.898   6.773 -0.4059 -0.2866 -0.3613
  159MOL   C12028876   4.766   2.927   6.778  0.1003 -0.0364 -0.8756
  159MOL   C12128877   4.574   2.787   6.678 -0.9270  0.7260  0.4736
  159MOL   O12228878   4.658   2.737   6.607  0.2888  0.0588  0.3815
  159MOL   O12328879   4.444   2.774   6.672  0.2460 -0.3015 -0.1510
  159MOL   H12428880   4.577   2.856   6.867 -2.5468  1.7861 -0.2024
  159MOL   H12528881   4.804   2.836   6.825 -0.5141 -0.3742 -1.0208
  159MOL   H12628882   4.817   2.932   6.682 -2.7655 -0.3809 -2.4629
  159MOL   H12728883   4.804   3.010   6.837  0.2370  0.5669 -1.8069
  159MOL   C12828884   4.380   2.674   6.591  0.1538 -0.3379  0.0541
  159MOL   C12928885   4.229   2.664   6.631 -1.0861  0.6502  0.6172
  159MOL   C13028886   4.439   2.531   6.606  0.3337 -0.5040 -0.1343
  159MOL   O13128887   4.478   2.473   6.503 -0.1804 -0.2514 -0.0935
  159MOL   O13228888   4.445   2.479   6.738 -0.4059 -0.0450  0.1181
  159MOL   H13328889   4.382   2.708   6.487  0.1289 -0.2857  0.0711
  159MOL   H13428890   4.211   2.643   6.737  0.5917 -1.4316  0.5132
  159MOL   H13528891   4.183   2.759   6.604  0.2443  1.5368  1.4252
  159MOL   H13628892   4.180   2.583   6.576 -0.6529  1.3270 -0.7660
  159MOL   C13728893   4.512   2.357   6.764 -0.5171 -0.2227 -0.1628
  159MOL   C13828894   4.493   2.321   6.904  0.5121  0.5285 -0.6642
  159MOL   C13928895   4.662   2.366   6.742 -0.2380  0.3749  0.6286
  159MOL   O14028896   4.716   2.288   6.663  0.0791 -0.1634 -0.1354
  159MOL   O14128897   4.711   2.474   6.804 -0.5753 -0.1867  0.3461
  159MOL   H14228898   4.460   2.278   6.708  0.2438  0.3302 -1.6937
  159MOL   H14328899   4.397   2.275   6.926 -0.2097  2.2764 -0.1191
  159MOL   H14428900   4.579   2.261   6.936 -1.0195 -0.6070  1.5037
  159MOL   H14528901   4.493   2.414   6.960 -1.0609 -1.5543  2.9824
  159MOL   C14628902   4.856   2.500   6.814  0.3496 -0.3558  0.2707
  159MOL   C14728903   4.930   2.522   6.684  0.0178 -0.4166 -0.6014
  159MOL   C14828904   4.924   2.403   6.916 -0.1398 -0.6322  0.7048
  159MOL   O14928905   4.966   2.434   7.025  0.6483  0.2592  0.3846
  159MOL   O15028906   4.926   2.275   6.873  0.2530 -0.0656  0.4414
  159MOL   H15128907   4.853   2.599   6.859  1.0145 -1.2472  2.3213
  159MOL   H15228908   5.017   2.585   6.704 -0.2135  0.0020 -0.9252
  159MOL   H15328909   4.963   2.434   6.630  0.9591  0.1326 -0.9345
  159MOL   H15428910   4.868   2.585   6.621 -1.1547 -1.3601 -0.4002
  159MOL   C15528911   4.968   2.162   6.953  0.3091  0.1296  0.1315
  159MOL   C15628912   4.959   2.036   6.866 -0.5795  0.1129 -0.0559
  159MOL   C15728913   4.878   2.142   7.079  0.0208 -0.1979  0.3816
  159MOL   O15828914   4.755   2.158   7.079 -0.0519 -0.1325  0.9378
  159MOL   O15928915   4.946   2.097   7.187 -0.1991  0.5857 -0.2749
  159MOL   H16028916   5.071   2.159   6.990  0.1128 -1.1005  0.6209
  159MOL   H16128917   5.051   2.038   6.808 -0.5004  2.1572  0.1030
  159MOL   H16228918   4.971   1.944   6.922  0.5678  0.3635  0.1245
  159MOL   H16328919   4.868   2.032   6.805  0.6988  0.8121 -2.0553
  159MOL   C16428920   4.884   2.069   7.320  0.4171 -0.0761 -0.1204
  159MOL   C16528921   5.002   2.061   7.423 -0.0764 -0.3021  0.2469
  159MOL   C16628922   4.801   1.938   7.305 -0.4840  0.2973 -0.5399
  159MOL   O16728923   4.851   1.825   7.339  0.4366  0.3640  0.0365
  159MOL   O16828924   4.676   1.959   7.252 -0.8464  0.8493 -0.5885
  159MOL   H16928925   4.811   2.144   7.350  1.3209 -0.0653  2.1601
  159MOL   H17028926   5.038   2.163   7.438 -0.1645 -0.1756 -0.3672
  159MOL   H17128927   4.963   2.035   7.522  1.0055  3.1604  1.6669
  159MOL   H17228928   5.075   1.986   7.394 -1.5905 -0.6853 -2.7991
  159MOL   C17328929   4.610   1.857   7.187  0.0429 -0.3512  0.7621
  159MOL   C17428930   4.677   1.794   7.065 -0.0561 -0.5651 -0.2585
  159MOL   C17528931   4.469   1.914   7.155  0.0960 -0.0960 -0.3457
  159MOL   O17628932   4.368   1.863   7.198  0.6468 -0.0354 -0.2786
  159MOL   O17728933   4.478   2.022   7.075  0.1075  0.0623 -0.3194
  159MOL   H17828934   4.581   1.780   7.259 -2.3372  1.3715  1.7108
  159MOL   H17928935   4.669   1.864   6.981 -0.6093 -0.2872  0.0266
  159MOL   H18028936   4.782   1.766   7.072 -0.0643 -0.5682 -0.1566
  159MOL   H18128937   4.629   1.702   7.033  3.3109 -3.2238  1.9651
  159MOL   H18228938   4.570   2.043   7.068 -0.0856  0.9647 -0.1927
  160MOL     C128939   6.550   2.049   3.449  0.3867  0.2804  0.1701
  160MOL     C228940   6.646   1.967   3.364 -0.0589 -0.0209  0.6490
  160MOL     C328941   6.495   1.960   3.554 -0.4413 -0.4180 -0.3206
  160MOL     O428942   6.561   1.872   3.614 -0.0194 -0.1312  0.3461
  160MOL     O528943   6.368   1.985   3.583  0.4814 -0.1246  0.4186
  160MOL     H628944   6.602   2.137   3.485 -0.0612 -0.0449  1.6332
  160MOL     H728945   6.604   1.873   3.329  4.0095 -1.1739 -1.5252
  160MOL     H828946   6.683   2.022   3.278  5.6290 -3.0251  0.9251
  160MOL     H928947   6.742   1.944   3.412  0.4390  0.3779 -0.1517
  160MOL    H1028948   6.471   2.077   3.379  1.8174  0.8926 -1.2337
  160MOL    C1128949   6.294   1.913   3.691  0.1060  0.4985  0.4653
  160MOL    C1228950   6.149   1.901   3.659  0.1778  0.4095  0.2203
  160MOL    C1328951   6.330   1.985   3.825 -0.6761 -0.2540 -0.7070
  160MOL    O1428952   6.243   2.000   3.911 -0.7710  0.2121 -1.3398
  160MOL    O1528953   6.457   2.014   3.848  0.2860 -0.0619  0.2380
  160MOL    H1628954   6.341   1.814   3.696 -0.7018  0.0119 -1.4481
  160MOL    H1728955   6.078   1.876   3.738  2.4200 -0.5384  1.9760
  160MOL    H1828956   6.114   1.993   3.612 -0.3817  0.9150  1.6082
  160MOL    H1928957   6.142   1.831   3.576  1.6031  0.6726 -0.1453
  160MOL    C2028958   6.511   2.048   3.971  1.2390  0.0400 -0.3170
  160MOL    C2128959   6.508   2.197   3.979  0.3133 -0.3630  0.9233
  160MOL    C2228960   6.645   1.979   3.979  0.0189 -0.3721  0.4671
  160MOL    O2328961   6.748   2.040   4.006  0.0053 -0.2114 -0.0187
  160MOL    O2428962   6.631   1.852   3.950 -0.5381  0.1942 -0.0491
  160MOL    H2528963   6.444   2.007   4.046 -1.3732  0.7331 -2.1906
  160MOL    H2628964   6.409   2.242   3.967  0.7506  0.6322  0.9370
  160MOL    H2728965   6.544   2.232   4.076  1.3795 -1.2350  0.8497
  160MOL    H2828966   6.577   2.236   3.904 -2.2710  1.7605 -0.4261
  160MOL    C2928967   6.751   1.770   3.944  0.5254  0.2353  0.0997
  160MOL    C3028968   6.701   1.647   3.874 -0.1600 -0.0026 -0.2639
  160MOL    C3128969   6.819   1.757   4.076 -0.0419  0.5404  0.9474
  160MOL    O3228970   6.931   1.794   4.094 -0.0461  0.0045 -0.4065
  160MOL    O3328971   6.736   1.700   4.171 -0.4032  0.8277 -0.0104
  160MOL    H3428972   6.825   1.809   3.874  0.3269 -0.0034 -0.2459
  160MOL    H3528973   6.645   1.681   3.787  0.2697 -1.1512 -0.9970
  160MOL    H3628974   6.783   1.595   3.825 -1.2761 -3.0959  1.0402
  160MOL    H3728975   6.638   1.587   3.940  0.2449  1.5938  1.5961
  160MOL    C3828976   6.775   1.708   4.309  0.2854  0.3711 -0.3209
  160MOL    C3928977   6.707   1.587   4.374  0.2411 -0.1722 -0.4930
  160MOL    C4028978   6.730   1.836   4.378 -0.4247 -0.0454 -0.2393
  160MOL    O4128979   6.681   1.927   4.316 -0.3411  0.2471  0.3905
  160MOL    O4228980   6.764   1.838   4.508  0.3592 -0.6363 -0.8272
  160MOL    H4328981   6.882   1.702   4.329  1.0471  1.8582 -3.7121
  160MOL    H4428982   6.707   1.593   4.483  2.4168 -0.0544 -0.4735
  160MOL    H4528983   6.602   1.571   4.354  0.1768  0.1203 -0.3928
  160MOL    H4628984   6.757   1.494   4.345 -0.5388 -0.5024 -0.7922
  160MOL    C4728985   6.710   1.939   4.600  0.1985 -0.2868 -0.4891
  160MOL    C4828986   6.792   1.916   4.730  0.4377  0.5996  0.0555
  160MOL    C4928987   6.564   1.917   4.619  0.2237 -0.1706 -0.1631
  160MOL    O5028988   6.519   1.812   4.672 -0.0074  0.1692  0.2037
  160MOL    O5128989   6.487   2.026   4.586 -0.2730 -0.0921 -0.0317
  160MOL    H5228990   6.736   2.041   4.571 -1.5918  0.0700 -0.8584
  160MOL    H5328991   6.898   1.939   4.715  0.7591 -1.1195 -0.3512
  160MOL    H5428992   6.756   1.962   4.822 -0.1363 -1.5489  0.9258
  160MOL    H5528993   6.778   1.812   4.759  2.2505  0.4238  0.3459
  160MOL    C5628994   6.342   2.021   4.602  0.5537  0.4791  0.0511
  160MOL    C5728995   6.293   2.156   4.549  0.2381 -0.1203  0.1953
  160MOL    C5828996   6.287   1.990   4.739 -0.1401  0.6218 -0.1402
  160MOL    O5928997   6.237   1.874   4.761 -0.7753 -0.0890  0.6567
  160MOL    O6028998   6.309   2.083   4.826  0.0510 -0.6455 -0.1418
  160MOL    H6128999   6.303   1.940   4.540 -2.2458 -0.5618  3.1066
  160MOL    H6229000   6.358   2.241   4.567 -2.1218  1.8550 -0.3790
  160MOL    H6329001   6.281   2.151   4.441 -3.0015  0.6608  0.4690
  160MOL    H6429002   6.193   2.182   4.582  0.1974 -0.7659  0.5995
  160MOL    C6529003   6.293   2.065   4.965  0.1240 -0.6434  0.0285
  160MOL    C6629004   6.295   2.209   5.025 -1.0598  0.0896 -0.1292
  160MOL    C6729005   6.403   1.977   5.031  0.4977  0.1261 -0.1434
  160MOL    O6829006   6.490   1.926   4.959 -0.0509  0.0624  0.1460
  160MOL    O6929007   6.396   1.966   5.164 -0.3177  0.9255 -0.0268
  160MOL    H7029008   6.196   2.020   4.984  0.3207 -1.2501 -0.3878
  160MOL    H7129009   6.202   2.262   5.004  0.1711  3.1609  1.8033
  160MOL    H7229010   6.285   2.203   5.134 -2.4777 -0.0731 -0.2632
  160MOL    H7329011   6.371   2.276   4.984 -1.3649  0.1824 -0.5425
  160MOL    C7429012   6.502   1.897   5.233  0.1181  0.7617 -0.2405
  160MOL    C7529013   6.481   1.743   5.232 -0.5158 -0.5903 -0.3562
  160MOL    C7629014   6.513   1.940   5.383  0.3855  0.8101 -0.2928
  160MOL    O7729015   6.417   1.993   5.436 -0.0279 -0.2849  0.0262
  160MOL    O7829016   6.624   1.897   5.444  0.2533 -0.5303 -0.3440
  160MOL    H7929017   6.598   1.921   5.188  1.8299  0.1715  2.9255
  160MOL    H8029018   6.413   1.704   5.156 -0.3724  2.9177 -2.4325
  160MOL    H8129019   6.576   1.693   5.212 -0.3039 -0.8128  1.1858
  160MOL    H8229020   6.444   1.698   5.324 -0.7812 -0.5283 -0.4328
  160MOL    C8329021   6.677   1.964   5.559  0.5400  0.8934  0.0525
  160MOL    C8429022   6.815   1.916   5.591 -0.3042  0.6771  0.7494
  160MOL    C8529023   6.588   1.953   5.685  0.1019 -0.2062  0.4708
  160MOL    O8629024   6.507   1.859   5.689 -0.5574 -0.2287 -0.0463
  160MOL    O8729025   6.607   2.055   5.773 -0.0004 -0.4198 -0.0652
  160MOL    H8829026   6.692   2.070   5.540 -1.8355  1.3389  0.5146
  160MOL    H8929027   6.848   1.961   5.684 -1.3933 -0.5923  1.7802
  160MOL    H9029028   6.826   1.807   5.592  0.5243  0.6170 -3.9026
  160MOL    H9129029   6.889   1.953   5.521  0.3715  0.6607  1.4498
  160MOL    C9229030   6.548   2.046   5.905  0.0811  0.3532 -0.1459
  160MOL    C9329031   6.542   2.190   5.965 -0.3165 -0.1781 -0.0232
  160MOL    C9429032   6.631   1.960   6.004 -0.3041 -0.2605 -0.5372
  160MOL    O9529033   6.721   2.003   6.080 -0.0044  0.2730  0.1542
  160MOL    O9629034   6.597   1.827   5.996  0.5133 -0.7707  0.2400
  160MOL    H9729035   6.445   2.010   5.903 -0.1306  0.9656 -3.2306
  160MOL    H9829036   6.501   2.203   6.065  0.5213  2.3598  0.0180
  160MOL    H9929037   6.635   2.247   5.963  0.3873 -1.2580  0.9557
  160MOL   H10029038   6.463   2.238   5.909 -1.0057 -2.6726 -1.2754
  160MOL   C10129039   6.631   1.727   6.095 -0.5833 -0.1732 -0.0224
  160MOL   C10229040   6.618   1.587   6.032  0.4209 -0.0226  0.2071
  160MOL   C10329041   6.537   1.742   6.217 -0.0702 -0.0776 -0.0881
  160MOL   O10429042   6.570   1.684   6.320  0.3078 -0.0982  0.8568
  160MOL   O10529043   6.418   1.787   6.187  0.5520 -0.6447  0.3710
  160MOL   H10629044   6.737   1.735   6.122 -0.8256 -0.7709  1.1394
  160MOL   H10729045   6.642   1.511   6.106  1.0692  0.1720  0.1993
  160MOL   H10829046   6.512   1.578   6.007  0.6842  1.6394 -1.6323
  160MOL   H10929047   6.680   1.572   5.944 -1.3825  2.1381 -1.5045
  160MOL   C11029048   6.323   1.801   6.291  0.2297 -0.0981  1.1011
  160MOL   C11129049   6.190   1.756   6.223 -0.2383 -0.5763 -0.3205
  160MOL   C11229050   6.307   1.941   6.344 -0.0536  0.3145 -0.0689
  160MOL   O11329051   6.374   2.033   6.299  0.5924  0.7767 -0.7438
  160MOL   O11429052   6.207   1.942   6.440 -0.2685 -0.3078  0.1486
  160MOL   H11529053   6.323   1.727   6.370 -1.3759  1.7056  2.8363
  160MOL   H11629054   6.190   1.647   6.218 -0.7803 -0.5051 -2.1548
  160MOL   H11729055   6.103   1.796   6.274 -0.3665 -2.0869  0.6736
  160MOL   H11829056   6.178   1.792   6.121  0.5625  0.6570  0.0101
  160MOL   C11929057   6.183   2.061   6.523 -0.2290  0.3398 -0.2556
  160MOL   C12029058   6.235   2.024   6.665  0.7907  0.5795  0.5178
  160MOL   C12129059   6.037   2.104   6.512 -0.0233  0.0612  0.7733
  160MOL   O12229060   5.976   2.056   6.409 -0.4635  0.3935  0.3117
  160MOL   O12329061   5.982   2.182   6.614  0.3577 -0.6676 -0.1529
  160MOL   H12429062   6.236   2.154   6.505 -0.7383  1.1711  2.2841
  160MOL   H12529063   6.186   1.932   6.697  0.1965  0.4215 -0.8032
  160MOL   H12629064   6.340   1.999   6.652  0.5554 -1.1809  1.9028
  160MOL   H12729065   6.230   2.110   6.732 -1.6132  1.7625 -1.0771
  160MOL   C12829066   5.838   2.201   6.616  0.2991  0.2934  0.2684
  160MOL   C12929067   5.828   2.317   6.718  0.0348  0.5464  1.0080
  160MOL   C13029068   5.765   2.076   6.660 -0.3235  0.3395 -0.0780
  160MOL   O13129069   5.821   1.978   6.706  0.1856  0.2982  0.0163
  160MOL   O13229070   5.629   2.079   6.626  0.3669 -0.0894 -0.3337
  160MOL   H13329071   5.803   2.234   6.518  0.0503  2.4891  1.0541
  160MOL   H13429072   5.897   2.401   6.716 -0.9206  1.3901  2.5810
  160MOL   H13529073   5.728   2.359   6.710 -0.1249 -0.0499 -0.3150
  160MOL   H13629074   5.834   2.283   6.821 -0.3689  0.8857  1.1456
  160MOL   C13729075   5.547   1.967   6.648 -0.0184 -0.3161  0.1018
  160MOL   C13829076   5.416   1.960   6.564 -0.1436  0.3487  0.2094
  160MOL   C13929077   5.506   1.955   6.794  0.1658 -0.2953  0.0329
  160MOL   O14029078   5.506   2.052   6.870  0.7270 -0.0698  0.0114
  160MOL   O14129079   5.478   1.827   6.829  0.0880  0.3366  0.0708
  160MOL   H14229080   5.607   1.884   6.610 -1.2292  0.0177 -2.6979
  160MOL   H14329081   5.369   1.864   6.581 -0.4573  0.6626  1.1161
  160MOL   H14429082   5.341   2.029   6.603 -1.4809 -0.0371 -1.6263
  160MOL   H14529083   5.437   1.980   6.459  0.8040 -0.9389  0.1342
  160MOL   C14629084   5.456   1.806   6.966 -0.0090 -0.0825  0.3730
  160MOL   C14729085   5.531   1.678   7.009  0.0932  0.1409  0.3435
  160MOL   C14829086   5.309   1.792   6.994  0.4411  0.0669 -0.8213
  160MOL   O14929087   5.222   1.843   6.918 -0.3125 -0.2317 -0.1283
  160MOL   O15029088   5.284   1.740   7.113  0.4114  0.7370  0.0836
  160MOL   H15129089   5.498   1.881   7.033  1.7005 -0.5177 -0.1977
  160MOL   H15229090   5.501   1.597   6.943  0.1809  0.1018  0.3515
  160MOL   H15329091   5.635   1.697   6.982 -0.0614  1.0017  0.3441
  160MOL   H15429092   5.526   1.660   7.116 -1.0374  1.8390  0.5978
  160MOL   C15529093   5.150   1.702   7.148 -0.2919 -0.1785 -0.6329
  160MOL   C15629094   5.144   1.669   7.296 -0.5954  0.5322  0.0008
  160MOL   C15729095   5.105   1.577   7.066  0.0765 -0.2265 -0.3622
  160MOL   O15829096   5.161   1.470   7.080  0.5352 -0.3770  0.2687
  160MOL   O15929097   5.003   1.606   6.991 -0.4701  0.3140  0.1952
  160MOL   H16029098   5.081   1.785   7.139  1.9182  2.0118  1.8603
  160MOL   H16129099   5.047   1.626   7.322 -0.1721 -1.0381 -0.9922
  160MOL   H16229100   5.223   1.599   7.323 -1.3612 -0.6731 -0.8429
  160MOL   H16329101   5.160   1.766   7.344  2.2723 -0.0960  0.4040
  160MOL   C16429102   4.934   1.503   6.926  0.9064  0.9606 -0.1085
  160MOL   C16529103   4.857   1.565   6.809 -0.0478 -0.4287 -0.6670
  160MOL   C16629104   4.843   1.410   7.020  0.0088 -0.3558 -0.0310
  160MOL   O16729105   4.864   1.409   7.139  0.1939 -0.4612  0.5323
  160MOL   O16829106   4.752   1.346   6.955  0.9528  0.2842 -0.0139
  160MOL   H16929107   5.005   1.444   6.867 -0.7901 -0.1526 -1.0919
  160MOL   H17029108   4.854   1.496   6.725 -0.9883 -2.6123  1.1248
  160MOL   H17129109   4.754   1.575   6.844 -0.3445 -0.4777 -1.5114
  160MOL   H17229110   4.898   1.660   6.775  0.7297  0.2973  2.1353
  160MOL   C17329111   4.641   1.279   7.025  0.1603  0.2895 -0.5276
  160MOL   C17429112   4.641   1.132   6.994 -0.2049  0.2087 -0.2570
  160MOL   C17529113   4.513   1.357   6.988 -0.5548  0.7322 -0.2418
  160MOL   O17629114   4.412   1.313   6.933 -0.0369  0.3693  0.1935
  160MOL   O17729115   4.526   1.488   7.016  0.5582  0.4118 -0.4459
  160MOL   H17829116   4.645   1.287   7.133  0.6910  0.3398 -0.5504
  160MOL   H17929117   4.542   1.096   7.021  0.0560  0.6088  1.2763
  160MOL   H18029118   4.662   1.095   6.893 -1.5167  0.7994 -0.7590
  160MOL   H18129119   4.721   1.078   7.044 -0.6449 -1.0252 -0.8460
  160MOL   H18229120   4.456   1.538   6.976 -0.2156 -1.9406 -2.1372
  161MOL     C129121   1.933   8.140   0.092  0.0052  0.7713  0.3538
  161MOL     C229122   1.976   0.015   8.096 -0.7320  0.4769  0.4910
  161MOL     C329123   1.943   7.993   0.139 -0.1219 -0.1834 -0.2288
  161MOL     O429124   1.899   7.899   0.073 -0.1883 -0.0077 -0.1533
  161MOL     O529125   1.986   7.983   0.271  0.3240  0.2117 -0.1275
  161MOL     H629126   1.996   0.046   0.162  1.5009 -2.1045  1.3022
  161MOL     H729127   1.932   8.091   8.027 -0.4732 -0.3693  1.1832
  161MOL     H829128   1.963   0.114   8.054  0.4018 -0.3980 -1.9977
  161MOL     H929129   2.082   8.140   8.083 -0.2347  2.0779  1.6197
  161MOL    H1029130   1.836   0.035   0.119  0.4623  1.8256  0.3301
  161MOL    C1129131   1.990   7.856   0.339  0.2923 -0.4885 -0.3355
  161MOL    C1229132   1.933   7.879   0.480  0.1565 -0.1894  0.1251
  161MOL    C1329133   2.131   7.799   0.349 -0.2806  0.2870  0.0380
  161MOL    O1429134   2.229   7.844   0.285 -0.0948 -0.2353  0.4958
  161MOL    O1529135   2.128   7.687   0.419  0.4135  0.0919 -0.3241
  161MOL    H1629136   1.933   7.779   0.289  0.7248 -0.0878 -1.4778
  161MOL    H1729137   2.014   7.913   0.544  0.0211  0.6698 -0.1603
  161MOL    H1829138   1.860   7.960   0.482  0.5821  0.2397 -1.1672
  161MOL    H1929139   1.883   7.790   0.520 -0.3805  0.6572  1.3757
  161MOL    C2029140   2.248   7.612   0.440 -0.0421 -0.5635 -0.4368
  161MOL    C2129141   2.203   7.477   0.505  0.3415 -0.0939  0.3646
  161MOL    C2229142   2.340   7.686   0.541  0.4454  0.7031  0.5110
  161MOL    O2329143   2.302   7.726   0.653  0.0560 -0.8654  0.4492
  161MOL    O2429144   2.469   7.694   0.496 -0.0781  0.2022  0.7798
  161MOL    H2529145   2.297   7.593   0.344 -0.7645 -0.2130 -0.8829
  161MOL    H2629146   2.152   7.413   0.433 -0.3311  0.8954 -0.0451
  161MOL    H2729147   2.294   7.431   0.545  1.7168 -0.6396 -3.2004
  161MOL    H2829148   2.135   7.492   0.588  1.1454 -1.1767  1.2431
  161MOL    C2929149   2.573   7.759   0.576  0.1265 -0.2297  0.0976
  161MOL    C3029150   2.695   7.807   0.493 -0.1473 -0.2978  0.0367
  161MOL    C3129151   2.614   7.669   0.689  0.3339  0.9699 -0.5852
  161MOL    O3229152   2.637   7.724   0.802 -0.4643  0.2666 -0.4796
  161MOL    O3329153   2.639   7.549   0.658  0.0471 -0.0851  0.1569
  161MOL    H3429154   2.524   7.845   0.620 -1.3306 -2.1621  2.3378
  161MOL    H3529155   2.756   7.870   0.557  0.5666  0.8303 -1.6871
  161MOL    H3629156   2.763   7.727   0.462  2.6638  1.8215  0.5467
  161MOL    H3729157   2.676   7.873   0.408  0.2430 -1.6562 -1.1249
  161MOL    C3829158   2.663   7.457   0.757 -0.6942 -0.3915  0.1002
  161MOL    C3929159   2.805   7.400   0.742  0.6725 -0.2109  0.1671
  161MOL    C4029160   2.553   7.351   0.747 -0.2874  0.5735  0.4608
  161MOL    O4129161   2.562   7.249   0.676  0.2911 -0.1685 -0.2255
  161MOL    O4229162   2.451   7.368   0.832  0.4123  0.0687  0.0354
  161MOL    H4329163   2.665   7.493   0.860  0.6090 -1.7862  0.5975
  161MOL    H4429164   2.816   7.301   0.697 -1.4005  0.2487 -1.4637
  161MOL    H4529165   2.856   7.467   0.674 -0.6344 -2.6858 -3.4131
  161MOL    H4629166   2.853   7.395   0.840 -1.1650 -1.4652  1.0417
  161MOL    C4729167   2.362   7.256   0.852 -0.2305 -0.2654 -0.4941
  161MOL    C4829168   2.238   7.309   0.924 -0.0217  0.3139 -0.4450
  161MOL    C4929169   2.437   7.152   0.937  0.4834 -0.4087 -0.1867
  161MOL    O5029170   2.437   7.031   0.901 -0.1903 -0.2910 -0.2316
  161MOL    O5129171   2.484   7.192   1.057 -0.1040  0.2913  0.0143
  161MOL    H5229172   2.336   7.212   0.756 -0.7528 -1.3760  0.1455
  161MOL    H5329173   2.215   7.407   0.882  3.0416  0.5721 -1.5985
  161MOL    H5429174   2.160   7.238   0.895 -0.1517  0.9709 -1.7178
  161MOL    H5529175   2.254   7.314   1.032  1.0836 -0.0747 -0.5844
  161MOL    C5629176   2.581   7.114   1.119 -0.3639  0.0268  0.9512
  161MOL    C5729177   2.573   7.127   1.271  0.0603 -0.0707 -0.0939
  161MOL    C5829178   2.718   7.163   1.067 -0.6111  0.5523 -0.1396
  161MOL    O5929179   2.728   7.273   1.012 -0.3969  0.0069 -0.2951
  161MOL    O6029180   2.819   7.079   1.088  0.2833  0.0787  0.2438
  161MOL    H6129181   2.577   7.007   1.095  0.3869 -0.2330  1.9564
  161MOL    H6229182   2.598   7.230   1.300  0.8618 -0.1938 -0.3534
  161MOL    H6329183   2.479   7.097   1.317  0.1406  1.0014  0.7971
  161MOL    H6429184   2.641   7.056   1.317 -1.1357 -0.6067  0.8815
  161MOL    C6529185   2.956   7.118   1.049  0.2085  0.0377 -0.5255
  161MOL    C6629186   2.994   7.060   0.914 -0.6201  0.2520 -0.7870
  161MOL    C6729187   3.048   7.086   1.165  0.2897  0.8453  0.1421
  161MOL    O6829188   3.117   6.992   1.168 -0.2775  0.7178  0.3440
  161MOL    O6929189   3.015   7.156   1.275  0.2782 -0.3602  0.0884
  161MOL    H7029190   2.955   7.227   1.050  0.7684  0.0491  0.4547
  161MOL    H7129191   3.095   7.087   0.882 -0.9528  1.9076 -0.5022
  161MOL    H7229192   2.997   6.951   0.907 -0.8406  0.2421 -0.7335
  161MOL    H7329193   2.932   7.111   0.841 -3.1254 -1.2483  0.2552
  161MOL    C7429194   3.073   7.149   1.404  0.6936 -0.1529 -0.2718
  161MOL    C7529195   2.956   7.213   1.477  0.7929 -0.3587 -1.1208
  161MOL    C7629196   3.214   7.222   1.404  0.3985  0.0914 -0.5619
  161MOL    O7729197   3.292   7.198   1.494  0.6748 -0.8456 -0.2904
  161MOL    O7829198   3.230   7.307   1.298  0.1295 -0.5460  0.0944
  161MOL    H7929199   3.094   7.050   1.446 -1.6117 -0.3036  0.5781
  161MOL    H8029200   2.965   7.193   1.584  1.5108  1.8367 -0.7445
  161MOL    H8129201   2.940   7.321   1.477  1.7243 -0.1717  2.1267
  161MOL    H8229202   2.860   7.172   1.446 -0.3146  1.7362 -0.5686
  161MOL    C8329203   3.356   7.372   1.271  0.3998  0.1526  0.2517
  161MOL    C8429204   3.333   7.466   1.153  0.4924  0.2360 -0.6502
  161MOL    C8529205   3.456   7.259   1.229 -0.6939 -0.3596 -0.5127
  161MOL    O8629206   3.578   7.272   1.254 -0.0044  0.4981 -0.0449
  161MOL    O8729207   3.398   7.155   1.168 -0.0432 -0.2587  0.3212
  161MOL    H8829208   3.387   7.430   1.357  0.0031 -0.5089  0.8486
  161MOL    H8929209   3.234   7.510   1.137 -0.4490 -1.5975 -0.0138
  161MOL    H9029210   3.405   7.547   1.160 -0.2334  0.7697  0.7975
  161MOL    H9129211   3.359   7.405   1.066 -0.9725  0.1459 -1.0340
  161MOL    C9229212   3.476   7.042   1.146  0.5770  0.1464 -0.0823
  161MOL    C9329213   3.430   6.984   1.009 -0.0281  0.7228  0.3530
  161MOL    C9429214   3.468   6.943   1.264  0.3084  0.3156 -0.1686
  161MOL    O9529215   3.366   6.929   1.331  0.0522  0.5399  0.1262
  161MOL    O9629216   3.580   6.882   1.279 -0.4695 -0.0043  0.2335
  161MOL    H9729217   3.580   7.070   1.130  0.1851  0.1856 -2.8957
  161MOL    H9829218   3.333   6.934   1.014 -0.1318  0.7304 -1.4482
  161MOL    H9929219   3.420   7.065   0.937  1.6115  0.2276 -0.4575
  161MOL   H10029220   3.502   6.912   0.970 -0.7836  0.5788 -0.8092
  161MOL   C10129221   3.595   6.794   1.393  0.1838 -0.5365 -0.2695
  161MOL   C10229222   3.628   6.874   1.513  0.4450  0.1558 -0.1162
  161MOL   C10329223   3.715   6.702   1.365 -0.2619  0.0937  0.3278
  161MOL   O10429224   3.820   6.706   1.426 -0.2814 -0.2141  0.2149
  161MOL   O10529225   3.676   6.615   1.259  0.2610 -0.2956 -1.0689
  161MOL   H10629226   3.505   6.735   1.410 -0.3319  0.1409 -0.6062
  161MOL   H10729227   3.728   6.916   1.498  0.0757  0.3440 -2.2044
  161MOL   H10829228   3.562   6.961   1.509  0.3751  0.0454 -1.5232
  161MOL   H10929229   3.618   6.815   1.604 -1.1614  0.0325 -0.3580
  161MOL   C11029230   3.769   6.540   1.180 -0.5612  0.0909  0.6442
  161MOL   C11129231   3.714   6.540   1.037 -0.5815  0.1586 -0.7369
  161MOL   C11229232   3.817   6.404   1.247  0.3117 -0.0870  1.0465
  161MOL   O11329233   3.810   6.296   1.192 -0.1177 -0.0180  0.1941
  161MOL   O11429234   3.848   6.419   1.379  0.0815 -0.0999 -0.3602
  161MOL   H11529235   3.857   6.604   1.169 -0.8842  0.3318 -0.5828
  161MOL   H11629236   3.611   6.504   1.036 -0.4572 -0.1935 -1.4373
  161MOL   H11729237   3.706   6.637   0.986  0.3850  0.0480 -1.1024
  161MOL   H11829238   3.767   6.469   0.974 -0.1498 -0.1593 -0.0124
  161MOL   C11929239   3.934   6.322   1.445  0.6463  0.0149  0.2692
  161MOL   C12029240   3.905   6.335   1.589  0.4443  0.9311 -0.1585
  161MOL   C12129241   4.076   6.348   1.413 -0.1672 -0.0084 -0.4250
  161MOL   O12229242   4.126   6.267   1.338  0.7012 -0.3383  0.0910
  161MOL   O12329243   4.140   6.453   1.472  0.2477  0.4544  0.0958
  161MOL   H12429244   3.908   6.219   1.420 -0.9277  0.6002 -0.5088
  161MOL   H12529245   3.957   6.268   1.658 -1.7612  0.3469  0.9841
  161MOL   H12629246   3.913   6.436   1.629 -1.6855  0.6636  1.0234
  161MOL   H12729247   3.801   6.308   1.610  0.2216  0.9404 -1.2243
  161MOL   C12829248   4.280   6.477   1.453  0.6458 -0.6927  0.5473
  161MOL   C12929249   4.352   6.494   1.582 -0.2498  0.3334  0.0124
  161MOL   C13029250   4.287   6.612   1.373  0.5504 -0.3404  0.1964
  161MOL   O13129251   4.186   6.668   1.333  0.1628  0.0834  0.2480
  161MOL   O13229252   4.409   6.666   1.365 -0.0151 -0.1391 -0.7057
  161MOL   H13329253   4.322   6.401   1.387 -0.4709  0.0367 -1.0333
  161MOL   H13429254   4.332   6.591   1.626 -2.2523  0.3924 -0.9894
  161MOL   H13529255   4.314   6.422   1.656 -0.1845  0.6893  0.3941
  161MOL   H13629256   4.460   6.477   1.585 -0.0325  1.6471 -0.1783
  161MOL   C13729257   4.423   6.791   1.301 -0.5575 -0.0866 -0.4582
  161MOL   C13829258   4.569   6.807   1.250 -0.0294  0.1612  0.8257
  161MOL   C13929259   4.386   6.914   1.391 -0.2752 -0.2062  0.4815
  161MOL   O14029260   4.299   6.991   1.353  0.0528 -0.4670  0.1907
  161MOL   O14129261   4.464   6.930   1.499 -0.8408  1.0182 -0.3814
  161MOL   H14229262   4.351   6.801   1.220 -0.9380 -1.1149 -0.2525
  161MOL   H14329263   4.593   6.907   1.212  1.6875  1.3083  4.6090
  161MOL   H14429264   4.644   6.797   1.328  2.2230  1.9500 -1.0423
  161MOL   H14529265   4.598   6.737   1.172  0.6100  1.1947  0.1134
  161MOL   C14629266   4.457   7.043   1.584 -0.7211  0.1811  0.3809
  161MOL   C14729267   4.595   7.104   1.611  1.5943 -1.1964  0.2883
  161MOL   C14829268   4.369   7.020   1.708 -0.4745 -0.2781  0.4676
  161MOL   O14929269   4.371   6.907   1.761  0.2674 -0.8506  0.1938
  161MOL   O15029270   4.315   7.126   1.754 -0.5278 -0.8387  0.2975
  161MOL   H15129271   4.396   7.118   1.533  0.0974  0.4845 -0.1613
  161MOL   H15229272   4.656   7.027   1.657  0.2012 -0.5861  3.2336
  161MOL   H15329273   4.641   7.143   1.520 -0.1988 -0.6341 -0.4140
  161MOL   H15429274   4.584   7.182   1.686 -3.0533 -2.7947  1.4454
  161MOL   C15529275   4.206   7.118   1.847 -0.4914  0.2899 -0.1417
  161MOL   C15629276   4.102   7.214   1.808  0.4568 -0.3340 -1.8651
  161MOL   C15729277   4.265   7.143   1.991  0.9186 -0.0551  1.2419
  161MOL   O15829278   4.290   7.048   2.066  0.0189  0.3603 -0.1310
  161MOL   O15929279   4.297   7.269   2.019  0.3615 -0.1955  0.0613
  161MOL   H16029280   4.151   7.025   1.841 -0.5491  0.3300 -0.2426
  161MOL   H16129281   4.015   7.205   1.873  1.5233 -1.3238 -0.5158
  161MOL   H16229282   4.135   7.318   1.812  4.0402 -1.4514  0.2058
  161MOL   H16329283   4.067   7.195   1.707 -2.1490  4.0304 -1.8882
  161MOL   C16429284   4.360   7.318   2.129 -0.7925 -0.1715  1.2223
  161MOL   C16529285   4.270   7.318   2.258  0.4169  0.3154 -0.0069
  161MOL   C16629286   4.409   7.448   2.091 -0.0024 -0.2988 -0.2528
  161MOL   O16729287   4.380   7.551   2.146  0.7484  0.4084  0.7710
  161MOL   O16829288   4.483   7.433   1.986 -0.6218 -0.2459 -0.2774
  161MOL   H16929289   4.451   7.262   2.149  0.4720  0.4266 -2.5170
  161MOL   H17029290   4.237   7.221   2.294  0.5208  0.8662  1.5739
  161MOL   H17129291   4.304   7.379   2.341  0.0162 -1.1707  1.2886
  161MOL   H17229292   4.178   7.369   2.228 -1.1914 -1.6482  1.4567
  161MOL   C17329293   4.509   7.526   1.887  0.0146  0.3194  0.5609
  161MOL   C17429294   4.444   7.479   1.762 -0.3174 -0.2406 -0.1898
  161MOL   C17529295   4.660   7.525   1.867 -0.8462  0.5651  0.4146
  161MOL   O17629296   4.722   7.495   1.760 -0.3249  0.0214 -0.0541
  161MOL   O17729297   4.723   7.565   1.981  0.1131 -0.1396 -0.0839
  161MOL   H17829298   4.457   7.621   1.899 -0.7977  0.0304 -0.5769
  161MOL   H17929299   4.440   7.372   1.742 -1.9870 -0.1377 -0.5009
  161MOL   H18029300   4.338   7.499   1.752 -0.0285  1.5521  0.2250
  161MOL   H18129301   4.478   7.533   1.673 -1.3518  1.6051  0.5225
  161MOL   H18229302   4.814   7.567   1.957 -0.0032 -1.0023 -0.6125
  162MOL     C129303   2.327   2.473   7.930  0.3668  0.0339 -0.1888
  162MOL     C229304   2.248   2.608   7.918 -0.4140  0.2885  0.9297
  162MOL     C329305   2.450   2.480   7.844 -0.6296  0.2509 -0.3472
  162MOL     O429306   2.454   2.540   7.735 -0.1708 -0.1105  0.1940
  162MOL     O529307   2.542   2.396   7.892 -0.3308  0.5945  0.3064
  162MOL     H629308   2.350   2.465   8.036 -1.3056 -0.8488  0.1274
  162MOL     H729309   2.294   2.706   7.926 -0.6364  0.3633  1.3442
  162MOL     H829310   2.190   2.617   7.826  0.2506  3.9621  0.8140
  162MOL     H929311   2.176   2.604   8.000  0.6881  1.0012  1.9498
  162MOL    H1029312   2.259   2.392   7.905  1.2592 -0.8784  0.3160
  162MOL    C1129313   2.682   2.389   7.839 -0.1393  0.6257  0.5381
  162MOL    C1229314   2.749   2.308   7.947  0.0829  0.2496  0.5272
  162MOL    C1329315   2.752   2.525   7.813  0.1211 -0.1323 -0.3000
  162MOL    O1429316   2.801   2.554   7.705  0.6265  0.0274  0.8087
  162MOL    O1529317   2.760   2.603   7.925  0.4788 -0.0082  0.6238
  162MOL    H1629318   2.680   2.330   7.748  0.7679  0.3416  0.6981
  162MOL    H1729319   2.754   2.359   8.044 -1.2824  2.7858 -0.6842
  162MOL    H1829320   2.702   2.214   7.976 -2.0325  0.7385 -1.2010
  162MOL    H1929321   2.851   2.280   7.918 -0.3968 -0.8955 -0.0500
  162MOL    C2029322   2.806   2.741   7.920  0.4016 -0.4682  0.2138
  162MOL    C2129323   2.826   2.793   8.062  1.6097 -0.6435 -0.2017
  162MOL    C2229324   2.708   2.837   7.834 -0.0829  0.8404  0.3886
  162MOL    O2329325   2.759   2.907   7.748  0.3165 -1.0018  0.1898
  162MOL    O2429326   2.578   2.825   7.870  0.4873  0.0281 -0.3602
  162MOL    H2529327   2.900   2.744   7.863 -1.5727  1.0169 -3.1373
  162MOL    H2629328   2.730   2.829   8.097  0.9800  0.3102 -2.8248
  162MOL    H2729329   2.868   2.713   8.124  0.8110  0.1043  1.3202
  162MOL    H2829330   2.902   2.871   8.054  0.4559  0.5569  0.3937
  162MOL    C2929331   2.472   2.894   7.793 -0.6583 -0.1975  0.5641
  162MOL    C3029332   2.441   2.840   7.653 -0.5816 -0.0239 -0.3023
  162MOL    C3129333   2.501   3.059   7.791  0.0638  0.0166 -0.1371
  162MOL    O3229334   2.444   3.135   7.865  0.4040  0.2487 -0.0292
  162MOL    O3329335   2.584   3.100   7.692 -0.1261 -0.2110  0.4023
  162MOL    H3429336   2.379   2.890   7.850  0.5798  2.0395  2.9031
  162MOL    H3529337   2.513   2.771   7.608 -2.9270 -3.6818  1.2915
  162MOL    H3629338   2.347   2.785   7.653 -0.8768  0.4643 -1.9701
  162MOL    H3729339   2.425   2.924   7.586 -0.4504 -0.8916 -1.4456
  162MOL    C3829340   2.589   3.236   7.656  0.1961  0.3251 -0.0389
  162MOL    C3929341   2.628   3.252   7.509 -0.0366 -0.1875 -0.2468
  162MOL    C4029342   2.679   3.311   7.751 -0.0350 -0.0368 -0.4565
  162MOL    O4129343   2.770   3.247   7.815 -0.4664 -0.4133 -0.5961
  162MOL    O4229344   2.651   3.445   7.748  0.3910  0.0744  1.1159
  162MOL    H4329345   2.491   3.283   7.656  0.7970  1.6073 -0.6005
  162MOL    H4429346   2.545   3.218   7.447  0.2511 -3.8827  1.2851
  162MOL    H4529347   2.650   3.357   7.489 -1.1426 -0.1554 -1.3883
  162MOL    H4629348   2.719   3.194   7.491  0.7757  0.3730  1.8614
  162MOL    C4729349   2.749   3.532   7.799 -0.5140 -0.6228 -0.4821
  162MOL    C4829350   2.676   3.665   7.810  0.6913 -0.2168  0.2826
  162MOL    C4929351   2.872   3.532   7.704  0.6317  0.4743  0.2204
  162MOL    O5029352   2.986   3.553   7.748  0.1343 -0.1582  0.9393
  162MOL    O5129353   2.847   3.518   7.573  0.2004 -0.0187 -0.3211
  162MOL    H5229354   2.779   3.496   7.898 -1.9804 -1.3368 -0.2837
  162MOL    H5329355   2.738   3.749   7.841  1.0683 -0.3129 -0.1969
  162MOL    H5429356   2.616   3.694   7.724  2.0041 -1.8182 -1.2228
  162MOL    H5529357   2.611   3.680   7.896 -0.4371  0.9249 -0.7462
  162MOL    C5629358   2.959   3.518   7.476 -0.3692  0.1782  0.5666
  162MOL    C5729359   2.902   3.553   7.333 -0.2844  0.8705  0.1879
  162MOL    C5829360   3.032   3.383   7.477  0.5703 -0.7443  0.4974
  162MOL    O5929361   2.983   3.284   7.532  0.0475 -0.0531  0.1128
  162MOL    O6029362   3.138   3.392   7.404  0.2708  0.8884 -0.3355
  162MOL    H6129363   3.028   3.595   7.510 -0.1909 -0.2381  1.1680
  162MOL    H6229364   2.874   3.658   7.323  0.8329  1.4018  2.3161
  162MOL    H6329365   2.970   3.529   7.251  0.8027  5.4330 -0.4227
  162MOL    H6429366   2.814   3.491   7.319  1.7871 -2.0078 -0.4178
  162MOL    C6529367   3.237   3.288   7.398 -0.2395 -0.0175 -0.0623
  162MOL    C6629368   3.377   3.340   7.386 -0.1952 -0.4759 -0.2535
  162MOL    C6729369   3.202   3.196   7.278 -0.6864  0.3476  0.0718
  162MOL    O6829370   3.283   3.148   7.198  0.1921  0.1654  0.0993
  162MOL    O6929371   3.071   3.172   7.273  0.2479  0.3625 -0.1321
  162MOL    H7029372   3.232   3.228   7.488  2.8808  1.4779  1.1905
  162MOL    H7129373   3.379   3.404   7.298 -1.4918  0.5567  0.4423
  162MOL    H7229374   3.400   3.399   7.475 -1.3043  1.0677 -0.9594
  162MOL    H7329375   3.449   3.260   7.367  1.1932  0.4124  1.1464
  162MOL    C7429376   3.011   3.102   7.172  0.0045 -0.0369 -0.4581
  162MOL    C7529377   2.882   3.171   7.121 -1.1197 -0.4259  0.6181
  162MOL    C7629378   2.988   2.960   7.213 -0.1860  1.4303  0.0058
  162MOL    O7729379   3.059   2.865   7.167 -0.5093 -0.2201  0.0276
  162MOL    O7829380   2.891   2.948   7.304 -0.2600  0.3191 -0.5086
  162MOL    H7929381   3.086   3.091   7.093  1.1739 -4.3522  1.1098
  162MOL    H8029382   2.899   3.252   7.050  1.9304 -1.4885  0.0134
  162MOL    H8129383   2.816   3.098   7.075 -0.6999 -1.3026  1.3921
  162MOL    H8229384   2.833   3.208   7.211 -2.0190 -1.2594  0.4792
  162MOL    C8329385   2.865   2.828   7.363  0.4232  0.1993  0.2739
  162MOL    C8429386   2.731   2.840   7.441 -0.4474 -0.4428  0.4505
  162MOL    C8529387   2.970   2.786   7.465  0.1572 -0.6623  0.0091
  162MOL    O8629388   3.013   2.672   7.483  0.2017 -0.0811 -0.4114
  162MOL    O8729389   3.010   2.891   7.541 -0.3011 -0.1991  0.3422
  162MOL    H8829390   2.847   2.746   7.294 -0.6346 -0.0199  0.7937
  162MOL    H8929391   2.646   2.812   7.380  0.1822  0.1699 -0.7271
  162MOL    H9029392   2.735   2.777   7.530 -0.5549 -0.2248  0.6099
  162MOL    H9129393   2.717   2.942   7.479 -1.7166 -0.9251  1.2932
  162MOL    C9229394   3.096   2.888   7.651 -0.1603 -0.2334  0.0215
  162MOL    C9329395   3.108   3.028   7.711  0.2198  0.0175 -0.4859
  162MOL    C9429396   3.235   2.850   7.601  0.7164 -0.3857 -0.8036
  162MOL    O9529397   3.306   2.772   7.668 -0.1797  0.0798  0.0457
  162MOL    O9629398   3.263   2.911   7.478  0.6201 -0.4059 -0.3979
  162MOL    H9729399   3.062   2.818   7.727 -2.5032  0.1756 -0.6361
  162MOL    H9829400   3.184   3.045   7.787 -1.0159 -0.9839  0.9827
  162MOL    H9929401   3.129   3.093   7.625  2.0796  2.6350  1.8636
  162MOL   H10029402   3.006   3.046   7.744  0.5569  0.4014  0.3453
  162MOL   C10129403   3.388   2.902   7.404  1.1353  0.2692  0.0371
  162MOL   C10229404   3.392   2.761   7.345  0.3396 -0.6299 -0.1294
  162MOL   C10329405   3.509   2.940   7.493 -0.4290 -0.3314  0.0786
  162MOL   O10429406   3.611   2.873   7.499 -0.0041  0.2427  0.0446
  162MOL   O10529407   3.485   3.051   7.556  0.2532 -0.3740 -0.4993
  162MOL   H10629408   3.380   2.973   7.322  0.8791  0.3945  0.1711
  162MOL   H10729409   3.425   2.685   7.417 -2.6894 -1.2007  0.7404
  162MOL   H10829410   3.294   2.724   7.317 -0.6248  1.3911  0.5340
  162MOL   H10929411   3.460   2.759   7.260  2.7535 -1.1051  1.7347
  162MOL   C11029412   3.580   3.110   7.647  0.2959  0.1078  0.7388
  162MOL   C11129413   3.488   3.188   7.745 -0.2039 -0.6734 -0.2923
  162MOL   C11229414   3.681   3.196   7.569 -0.9594  0.3396 -0.6249
  162MOL   O11329415   3.704   3.187   7.454  0.7435 -0.1202 -1.1222
  162MOL   O11429416   3.751   3.271   7.650 -0.2951 -0.3476  0.7291
  162MOL   H11529417   3.639   3.032   7.696  0.9190  0.1592  0.0748
  162MOL   H11629418   3.404   3.123   7.770  0.6262 -1.5958  0.1451
  162MOL   H11729419   3.539   3.227   7.834 -0.1222  1.0451 -1.0849
  162MOL   H11829420   3.436   3.268   7.693 -1.4998 -1.4442 -0.2040
  162MOL   C11929421   3.847   3.365   7.603 -1.0032 -0.1985  0.3515
  162MOL   C12029422   3.927   3.411   7.726 -0.5464  0.5141 -0.7356
  162MOL   C12129423   3.793   3.481   7.520  0.2510  1.1432  0.3558
  162MOL   O12229424   3.675   3.496   7.502 -0.2573 -0.1900 -0.3212
  162MOL   O12329425   3.895   3.554   7.462 -0.0124 -0.6770 -0.4273
  162MOL   H12429426   3.911   3.312   7.532  1.1717  2.3307  0.3461
  162MOL   H12529427   3.865   3.457   7.803  1.0957 -0.2818  1.1152
  162MOL   H12629428   3.987   3.327   7.762 -1.6393  0.5082  1.1597
  162MOL   H12729429   4.005   3.485   7.707  0.1099 -0.6436 -2.6442
  162MOL   C12829430   3.872   3.669   7.396 -0.0090  0.2040  0.1205
  162MOL   C12929431   4.002   3.711   7.318  0.3935 -0.5372  0.4508
  162MOL   C13029432   3.812   3.783   7.483  0.4306  0.3466 -0.3892
  162MOL   O13129433   3.760   3.880   7.423 -0.3264  0.0833 -0.3336
  162MOL   O13229434   3.825   3.764   7.620 -0.4758 -0.2693  0.2804
  162MOL   H13329435   3.796   3.645   7.321 -0.4686 -0.6111  0.8420
  162MOL   H13429436   3.986   3.784   7.238  0.3633  1.4801  2.2518
  162MOL   H13529437   4.085   3.731   7.386  2.2414 -3.3467 -0.8608
  162MOL   H13629438   4.048   3.624   7.271  0.5158  0.6727 -1.7833
  162MOL   C13729439   3.770   3.858   7.708  0.0875 -0.6315 -0.0898
  162MOL   C13829440   3.872   3.893   7.819 -0.0279 -0.0575 -0.3258
  162MOL   C13929441   3.639   3.807   7.770  0.5182 -0.3760 -0.5320
  162MOL   O14029442   3.576   3.873   7.854 -0.3154 -0.1600  0.3833
  162MOL   O14129443   3.592   3.696   7.714 -0.0652  0.0133  0.0132
  162MOL   H14229444   3.736   3.953   7.665  0.2121 -0.7199 -0.3787
  162MOL   H14329445   3.829   3.939   7.907  1.3939 -0.5013  0.6171
  162MOL   H14429446   3.916   3.796   7.844 -0.3488  0.4078  2.1161
  162MOL   H14529447   3.954   3.956   7.784 -0.4031  1.4052  1.3778
  162MOL   C14629448   3.486   3.611   7.763  0.2744 -0.0828  0.1535
  162MOL   C14729449   3.350   3.680   7.759  1.1555  0.3690  0.3276
  162MOL   C14829450   3.531   3.552   7.899 -0.3962  0.0090  0.3228
  162MOL   O14929451   3.647   3.508   7.907 -0.5329  0.0345  0.2193
  162MOL   O15029452   3.433   3.536   7.987  0.2336  0.4983  0.3436
  162MOL   H15129453   3.471   3.528   7.694 -2.6393 -0.7605  1.5137
  162MOL   H15229454   3.267   3.617   7.793  0.6478  0.2234 -1.1656
  162MOL   H15329455   3.346   3.774   7.814  0.9104  0.8769 -0.5655
  162MOL   H15429456   3.317   3.709   7.660 -0.1862 -1.2413  0.2754
  162MOL   C15529457   3.466   3.472   8.110 -0.0663  0.0570  0.4596
  162MOL   C15629458   3.450   3.323   8.091  0.6562 -0.6940 -0.4521
  162MOL   C15729459   3.373   3.532   0.073  0.0154 -0.1852  0.2259
  162MOL   O15829460   3.391   3.513   0.192  0.1272 -0.3068 -0.2503
  162MOL   O15929461   3.266   3.590   0.020 -0.3536  0.2769  0.3210
  162MOL   H16029462   3.564   3.502   8.147  0.1801 -2.3543  1.9163
  162MOL   H16129463   3.370   3.311   8.017 -0.1048  1.3939  0.0085
  162MOL   H16229464   3.544   3.281   8.053  2.1243  1.9884  0.0918
  162MOL   H16329465   3.428   3.267   0.034 -0.7546  0.5536 -0.0128
  162MOL   C16429466   3.150   3.622   0.099 -0.4405  0.7971  0.2124
  162MOL   C16529467   3.028   3.625   8.147  0.8045 -0.9911  0.4478
  162MOL   C16629468   3.164   3.755   0.170 -0.5395 -0.4352 -0.4507
  162MOL   O16729469   3.256   3.825   0.144 -0.2379 -0.3115  0.1556
  162MOL   O16829470   3.067   3.785   0.255  0.5041 -0.2017 -0.1662
  162MOL   H16929471   3.129   3.557   0.184 -0.4887  2.8085  1.7635
  162MOL   H17029472   3.002   3.521   8.129  1.0433 -0.8723 -0.6051
  162MOL   H17129473   2.950   3.667   0.063  1.3750  0.2590  0.3450
  162MOL   H17229474   3.042   3.682   8.056  2.0965  0.5433  1.5773
  162MOL   C17329475   3.062   3.913   0.316  0.7382  0.3781  0.4691
  162MOL   C17429476   3.009   3.894   0.456 -0.6577 -0.0749 -0.5213
  162MOL   C17529477   2.975   4.010   0.229 -0.8956 -0.6854 -0.1608
  162MOL   O17629478   2.889   4.077   0.278 -0.6047 -0.0054 -0.1825
  162MOL   O17729479   3.016   4.018   0.099  0.3084 -0.3103 -0.2640
  162MOL   H17829480   3.165   3.948   0.327  0.8666  0.2382 -0.2212
  162MOL   H17929481   3.060   3.813   0.509 -1.1698  1.0632  1.7403
  162MOL   H18029482   3.021   3.976   0.527 -0.2575 -0.8753  0.3470
  162MOL   H18129483   2.904   3.866   0.460 -0.2579 -1.3306  2.6232
  162MOL   H18229484   2.980   4.091   0.051 -1.1051 -0.2619  0.8378
  163MOL     C129485   5.086   3.895   1.030 -0.6019 -0.2498 -0.6476
  163MOL     C229486   5.154   3.956   1.158 -0.0387 -0.7201  0.0954
  163MOL     C329487   5.129   3.956   0.897  0.4022  0.5148 -0.2388
  163MOL     O429488   5.202   4.054   0.891  0.2618  0.3286  0.1897
  163MOL     O529489   5.084   3.880   0.793  0.2903  0.1865 -0.5596
  163MOL     H629490   5.117   3.791   1.019  0.5680 -0.0936  0.9398
  163MOL     H729491   5.262   3.969   1.149 -0.4156  4.3447  1.2369
  163MOL     H829492   5.138   4.062   1.178  1.4270 -0.7322  1.4729
  163MOL     H929493   5.129   3.900   1.248 -0.8193 -5.2883 -2.8373
  163MOL    H1029494   4.978   3.907   1.045 -0.5398  1.0759 -1.2181
  163MOL    C1129495   5.114   3.924   0.661  0.8197 -0.6219 -0.0921
  163MOL    C1229496   4.987   3.909   0.570 -0.0917  0.4477 -1.1521
  163MOL    C1329497   5.237   3.850   0.621  0.3008  0.5496 -0.5743
  163MOL    O1429498   5.279   3.754   0.683 -0.5136  0.0122  0.3930
  163MOL    O1529499   5.298   3.896   0.509  0.5246  0.3670  0.2924
  163MOL    H1629500   5.150   4.027   0.653  3.9202 -1.8226 -2.4887
  163MOL    H1729501   5.024   3.917   0.468 -0.5038  0.6205 -1.2888
  163MOL    H1829502   4.932   3.814   0.568 -1.1554  1.0179  0.1861
  163MOL    H1929503   4.906   3.981   0.582  0.8935  1.6667 -1.7522
  163MOL    C2029504   5.408   3.834   0.449  0.6885 -0.4440 -0.3540
  163MOL    C2129505   5.494   3.931   0.365  0.2205 -0.3505 -0.0070
  163MOL    C2229506   5.361   3.713   0.357  0.2867 -0.0252  0.7138
  163MOL    O2329507   5.239   3.686   0.352 -0.8803 -0.0927  0.0952
  163MOL    O2429508   5.465   3.653   0.286  0.4530 -0.1929 -0.1262
  163MOL    H2529509   5.470   3.796   0.530  0.1804 -0.6742 -0.0723
  163MOL    H2629510   5.509   3.880   0.269 -1.8497 -0.1243 -0.4930
  163MOL    H2729511   5.434   4.013   0.326  1.6150 -0.6944 -3.0783
  163MOL    H2829512   5.584   3.960   0.418  0.8472 -0.0687 -1.2158
  163MOL    C2929513   5.459   3.534   0.210 -0.3209 -0.0802 -0.0539
  163MOL    C3029514   5.594   3.465   0.225  1.1248 -0.6912  0.2229
  163MOL    C3129515   5.417   3.544   0.062 -0.2382  0.1110 -0.5005
  163MOL    O3229516   5.310   3.485   0.022 -0.2010  0.3005  0.0456
  163MOL    O3329517   5.500   3.620   8.142 -0.5225  0.0828  0.1043
  163MOL    H3429518   5.387   3.469   0.258  3.0502 -2.4450  2.0646
  163MOL    H3529519   5.678   3.526   0.190  0.2843  0.4432  0.1615
  163MOL    H3629520   5.611   3.444   0.330  1.0719 -0.2345  0.3251
  163MOL    H3729521   5.593   3.371   0.170  0.7026 -1.4974  1.5923
  163MOL    C3829522   5.487   3.634   7.997  0.1031  0.4934  0.6100
  163MOL    C3929523   5.506   3.502   7.925 -0.1356 -0.4057 -0.3541
  163MOL    C4029524   5.591   3.733   7.945  0.0001  0.1293  0.0607
  163MOL    O4129525   5.607   3.758   7.826 -0.1849 -0.3072  0.7891
  163MOL    O4229526   5.654   3.799   8.055 -0.0797 -0.5521  0.6194
  163MOL    H4329527   5.388   3.668   7.968  0.9745  1.2216 -1.5892
  163MOL    H4429528   5.487   3.495   7.817 -1.3861 -0.5408 -0.1410
  163MOL    H4529529   5.604   3.463   7.950 -0.1859  1.2756  2.6522
  163MOL    H4629530   5.440   3.422   7.959  2.2650 -1.8206  1.0776
  163MOL    C4729531   5.738   3.913   8.035 -0.9008  0.2153 -0.2067
  163MOL    C4829532   5.842   3.930   0.004  0.6216 -0.2405 -0.2384
  163MOL    C4929533   5.668   4.045   8.015 -0.1678 -0.6407  0.5735
  163MOL    O5029534   5.549   4.066   8.039 -1.1260 -0.6295 -0.1975
  163MOL    O5129535   5.750   4.149   7.968 -0.1779 -0.0310 -0.2132
  163MOL    H5229536   5.789   3.898   7.941 -1.0142  0.0372 -0.2401
  163MOL    H5329537   5.788   3.947   0.097  2.6443 -0.2982  0.9872
  163MOL    H5429538   5.911   3.846   0.014  0.1272 -0.6264 -0.0798
  163MOL    H5529539   5.906   4.017   8.138  0.4012 -0.2764 -1.5006
  163MOL    C5629540   5.702   4.276   7.943  0.1288  0.6338  0.0083
  163MOL    C5729541   5.725   4.309   7.793 -0.5338 -0.5823  0.0497
  163MOL    C5829542   5.762   4.363   8.052  0.9806  0.0837 -0.0464
  163MOL    O5929543   5.825   4.463   8.022  0.2356 -0.5339 -0.0006
  163MOL    O6029544   5.763   4.306   0.026 -0.1983  0.2367  0.0914
  163MOL    H6129545   5.595   4.286   7.961  0.2118 -0.0262  0.9156
  163MOL    H6229546   5.687   4.230   7.729 -0.1443  0.1799 -1.1632
  163MOL    H6329547   5.675   4.398   7.754  2.0338  1.4974  1.2611
  163MOL    H6429548   5.828   4.311   7.757 -1.1243 -0.6416 -1.6702
  163MOL    C6529549   5.821   4.368   0.140 -0.3419  0.1517  0.2650
  163MOL    C6629550   5.742   4.484   0.203 -0.1008  0.2226 -0.0271
  163MOL    C6729551   5.975   4.380   0.124  0.7931 -0.4393  0.6949
  163MOL    O6829552   6.038   4.301   0.056 -0.4380  0.1953  0.4918
  163MOL    O6929553   6.033   4.484   0.192 -0.5982  0.3003 -0.5248
  163MOL    H7029554   5.806   4.294   0.218 -2.5173  2.2005  1.8769
  163MOL    H7129555   5.729   4.564   0.130 -0.0646 -0.8022 -1.1823
  163MOL    H7229556   5.647   4.445   0.241 -0.6302  1.0747 -0.4641
  163MOL    H7329557   5.803   4.524   0.283 -0.7069  1.6163 -0.2407
  163MOL    C7429558   6.170   4.524   0.172 -0.1745  0.8574  0.2016
  163MOL    C7529559   6.184   4.596   0.311 -0.5063 -0.5003 -0.0823
  163MOL    C7629560   6.191   4.610   0.046  0.4797  1.0685  0.4661
  163MOL    O7729561   6.210   4.732   0.050 -0.2326 -0.1442 -0.1178
  163MOL    O7829562   6.175   4.548   8.072  0.2260  0.4071  0.0329
  163MOL    H7929563   6.233   4.435   0.185 -0.3899  0.7812  0.7474
  163MOL    H8029564   6.283   4.630   0.342 -0.2136 -0.1434 -1.3825
  163MOL    H8129565   6.137   4.694   0.313 -0.5795 -0.4512 -2.7676
  163MOL    H8229566   6.147   4.540   0.397 -0.9386 -1.2755 -0.7684
  163MOL    C8329567   6.170   4.621   7.948 -0.7981 -0.1709  0.1122
  163MOL    C8429568   6.089   4.552   7.845 -0.3480 -0.5276 -0.9171
  163MOL    C8529569   6.317   4.635   7.907  0.2059  0.4089 -0.8675
  163MOL    O8629570   6.371   4.744   7.909  0.0683 -0.1361 -0.1069
  163MOL    O8729571   6.369   4.517   7.876  1.0459  0.3001  0.1834
  163MOL    H8829572   6.121   4.716   7.969 -1.1692 -0.0842 -1.0943
  163MOL    H8929573   6.095   4.444   7.855 -0.2966 -0.6084 -1.8127
  163MOL    H9029574   5.982   4.574   7.847  0.3021  3.0027  1.9642
  163MOL    H9129575   6.112   4.570   7.740 -1.0354 -2.4624 -1.4159
  163MOL    C9229576   6.504   4.503   7.833  0.0558 -0.1949  0.1133
  163MOL    C9329577   6.514   4.382   7.737 -0.9646  1.2408  0.7162
  163MOL    C9429578   6.598   4.498   7.952 -0.3404  0.0028  0.5980
  163MOL    O9529579   6.700   4.566   7.953  0.0096 -0.2270  0.2334
  163MOL    O9629580   6.555   4.414   8.053 -0.5226 -0.1529 -0.0675
  163MOL    H9729581   6.534   4.581   7.764  1.6009 -1.2084 -0.4004
  163MOL    H9829582   6.607   4.397   7.683 -1.1740 -1.9588 -0.6237
  163MOL    H9929583   6.517   4.293   7.801  0.3409  0.0270 -0.9949
  163MOL   H10029584   6.434   4.382   7.664 -3.1241  1.6233  3.0027
  163MOL   C10129585   6.620   4.412   0.031  0.3409  0.0501  0.0239
  163MOL   C10229586   6.603   4.265   0.081  0.2553 -0.4368 -0.0251
  163MOL   C10329587   6.551   4.525   0.121 -0.0443 -0.1762  0.2052
  163MOL   O10429588   6.475   4.505   0.214  0.0997 -0.4459 -0.4547
  163MOL   O10529589   6.581   4.651   0.067 -0.2812 -0.4067 -0.1147
  163MOL   H10629590   6.726   4.434   0.017  0.1335  0.0081 -1.7512
  163MOL   H10729591   6.497   4.243   0.086 -0.2671  1.6633 -1.5194
  163MOL   H10829592   6.661   4.194   0.022 -0.5575 -0.2746 -1.0099
  163MOL   H10929593   6.650   4.257   0.180  0.6688  0.6486 -0.1302
  163MOL   C11029594   6.528   4.771   0.128  0.5166 -0.6764 -0.3412
  163MOL   C11129595   6.551   4.890   0.031 -0.0768 -0.1376 -0.1174
  163MOL   C11229596   6.586   4.796   0.268  0.2027  0.3047  0.1558
  163MOL   O11329597   6.695   4.751   0.307 -0.2443 -0.0459 -0.0435
  163MOL   O11429598   6.501   4.868   0.348 -0.7126 -0.0066 -0.1575
  163MOL   H11529599   6.422   4.748   0.136  0.5096 -0.8327 -0.8659
  163MOL   H11629600   6.653   4.889   8.140  0.0829 -0.3560  0.3016
  163MOL   H11729601   6.468   4.900   8.110  0.2413  1.8552 -0.2307
  163MOL   H11829602   6.541   4.985   0.084  0.4325  1.0054 -2.0513
  163MOL   C11929603   6.520   4.878   0.485  0.1171 -0.6930 -0.6019
  163MOL   C12029604   6.390   4.922   0.559 -0.0888 -1.1467 -0.4915
  163MOL   C12129605   6.642   4.964   0.514  0.5334  0.5342  0.5980
  163MOL   O12229606   6.731   4.926   0.593  0.7951  0.4235 -0.0509
  163MOL   O12329607   6.644   5.084   0.446  0.0835  0.1689 -0.1623
  163MOL   H12429608   6.544   4.785   0.537  0.5537 -0.3217 -0.1210
  163MOL   H12529609   6.304   4.919   0.492  1.5325  0.3083 -2.7233
  163MOL   H12629610   6.364   4.853   0.639  0.4281 -1.3917 -0.5323
  163MOL   H12729611   6.395   5.019   0.610 -2.3730  0.1729 -2.6758
  163MOL   C12829612   6.765   5.154   0.407  1.1026  0.0707 -0.4544
  163MOL   C12929613   6.766   5.289   0.482 -0.3704 -0.6101 -0.4825
  163MOL   C13029614   6.770   5.167   0.258  0.0618  0.2399  0.8174
  163MOL   O13129615   6.768   5.073   0.185 -0.0859 -0.4836  0.0258
  163MOL   O13229616   6.766   5.291   0.213  0.1083  0.0583 -0.2265
  163MOL   H13329617   6.858   5.108   0.441 -0.3915 -3.1646 -0.4775
  163MOL   H13429618   6.848   5.345   0.437 -1.4007  1.6423  0.3637
  163MOL   H13529619   6.680   5.349   0.454 -0.8841 -0.3282  1.5687
  163MOL   H13629620   6.783   5.280   0.590  1.8040  0.4358 -0.6960
  163MOL   C13729621   6.766   5.336   0.079  0.4012 -0.1090  0.5515
  163MOL   C13829622   6.824   5.472   0.068  0.3309  0.0502 -0.5161
  163MOL   C13929623   6.615   5.341   0.026 -0.1361 -0.1826  0.0082
  163MOL   O14029624   6.523   5.263   0.062  0.2387  0.7986 -0.4018
  163MOL   O14129625   6.606   5.435   8.081 -0.1486  0.3518 -0.1160
  163MOL   H14229626   6.829   5.272   0.018  0.3011  2.4583 -2.3378
  163MOL   H14329627   6.755   5.537   0.121  0.2911 -0.3483 -0.0773
  163MOL   H14429628   6.915   5.489   0.125  0.6752  0.2811 -1.1277
  163MOL   H14529629   6.843   5.503   8.113  0.4253  0.3619 -0.4061
  163MOL   C14629630   6.491   5.471   8.014  0.1690 -0.6032 -0.0049
  163MOL   C14729631   6.523   5.577   7.915  0.0368  0.0532 -0.5704
  163MOL   C14829632   6.369   5.522   8.103 -0.8583 -0.1633 -0.2521
  163MOL   O14929633   6.255   5.486   8.093 -0.0043 -0.8267 -0.2368
  163MOL   O15029634   6.417   5.614   0.042 -0.2487 -0.3467  0.0826
  163MOL   H15129635   6.463   5.382   7.958 -1.2351 -0.3652  0.3078
  163MOL   H15229636   6.550   5.666   7.972 -3.7984  0.3187  1.0120
  163MOL   H15329637   6.600   5.545   7.845  0.3154 -2.8527  0.9612
  163MOL   H15429638   6.435   5.609   7.860  0.7248  1.7898 -0.6856
  163MOL   C15529639   6.356   5.639   0.162  0.1025  0.1274 -0.1530
  163MOL   C15629640   6.402   5.774   0.212 -0.1931  0.3505 -0.1401
  163MOL   C15729641   6.379   5.533   0.278  0.0971  0.8797 -0.0698
  163MOL   O15829642   6.458   5.559   0.371 -0.3065  0.8684  0.3781
  163MOL   O15929643   6.329   5.410   0.259  0.3142  0.3544  0.3218
  163MOL   H16029644   6.248   5.648   0.150  0.4331  0.3919 -3.6582
  163MOL   H16129645   6.510   5.784   0.200 -0.1603  0.7222  0.4827
  163MOL   H16229646   6.367   5.844   0.136  1.8346 -0.0278 -1.4700
  163MOL   H16329647   6.376   5.798   0.315  3.0888 -0.7552  1.0097
  163MOL   C16429648   6.379   5.299   0.341 -0.2036 -0.6888  0.5439
  163MOL   C16529649   6.317   5.165   0.289  0.5500 -0.4394 -0.0693
  163MOL   C16629650   6.332   5.315   0.488  0.7102 -0.2884 -0.3899
  163MOL   O16729651   6.403   5.276   0.582 -0.5589 -0.3612  0.1030
  163MOL   O16829652   6.205   5.358   0.495  0.6940 -0.2560  0.4732
  163MOL   H16929653   6.487   5.285   0.339  0.1264  1.6590  0.0418
  163MOL   H17029654   6.208   5.161   0.293  0.3886  3.0346  0.8968
  163MOL   H17129655   6.345   5.146   0.186  1.3757 -3.0256  0.6115
  163MOL   H17229656   6.359   5.080   0.342 -1.1578 -0.5677  1.1218
  163MOL   C17329657   6.144   5.389   0.621 -0.2501 -0.1384 -0.7453
  163MOL   C17429658   5.992   5.357   0.605 -0.4236  0.7788 -0.4393
  163MOL   C17529659   6.157   5.538   0.658 -0.5281 -0.0497 -0.4243
  163MOL   O17629660   6.217   5.626   0.589 -0.1850 -0.0460  0.3395
  163MOL   O17729661   6.104   5.557   0.781  0.0976 -0.1117 -0.1670
  163MOL   H17829662   6.184   5.332   0.705 -0.2063 -0.6701 -1.1242
  163MOL   H17929663   5.952   5.335   0.704 -1.0671 -0.7696 -1.0217
  163MOL   H18029664   5.940   5.447   0.570  0.9505  1.3376 -1.0961
  163MOL   H18129665   5.977   5.266   0.548 -2.0695  0.7526  0.0064
  163MOL   H18229666   6.101   5.649   0.805  1.2356  0.3777 -1.8800
  164MOL     C129667   0.544   2.387   2.891  0.0092 -0.0231 -0.7304
  164MOL     C229668   0.568   2.300   2.765 -0.6387 -0.9526  0.6401
  164MOL     C329669   0.458   2.512   2.870  0.0687  0.0430  0.1975
  164MOL     O429670   0.348   2.514   2.920 -0.1669  0.0097 -0.1982
  164MOL     O529671   0.505   2.593   2.767  0.7767 -0.6662 -0.2582
  164MOL     H629672   0.507   2.328   2.975 -1.8972 -0.1414 -1.6373
  164MOL     H729673   0.675   2.282   2.757 -0.1510  1.6079  1.0503
  164MOL     H829674   0.528   2.200   2.783  3.3331 -2.6186  0.7434
  164MOL     H929675   0.529   2.346   2.674 -0.9619  0.0558  1.2796
  164MOL    H1029676   0.643   2.421   2.922 -1.0308  1.0380  1.6167
  164MOL    C1129677   0.442   2.715   2.731  0.0328  1.5601  0.5416
  164MOL    C1229678   0.444   2.728   2.577  0.1944  0.2255 -0.5530
  164MOL    C1329679   0.486   2.833   2.809 -0.8104  0.5862  0.2603
  164MOL    O1429680   0.518   2.942   2.752 -0.5914 -0.9275  0.4769
  164MOL    O1529681   0.487   2.818   2.947 -0.3055  0.2366 -0.1849
  164MOL    H1629682   0.335   2.710   2.750 -0.0298 -0.5409 -0.2370
  164MOL    H1729683   0.405   2.645   2.518  0.1534  0.5491 -0.9842
  164MOL    H1829684   0.404   2.819   2.531  0.4003  0.2514 -0.6787
  164MOL    H1929685   0.548   2.738   2.548 -0.1810 -0.0797 -2.0582
  164MOL    C2029686   0.535   2.920   3.038 -0.1340 -0.1080  0.7343
  164MOL    C2129687   0.576   2.855   3.166  0.4615  0.8590  0.3129
  164MOL    C2229688   0.422   3.032   3.051 -0.3590 -0.2420  0.2297
  164MOL    O2329689   0.435   3.152   3.015  0.0047 -0.1251 -0.1714
  164MOL    O2429690   0.305   2.972   3.094 -0.1139  0.4554 -0.7076
  164MOL    H2529691   0.628   2.958   2.995  0.2998 -2.6552 -0.6981
  164MOL    H2629692   0.603   2.937   3.233 -0.3010  1.1008  0.3285
  164MOL    H2729693   0.503   2.790   3.215  2.2573 -0.8485  0.8203
  164MOL    H2829694   0.657   2.785   3.144  0.3690  0.8077  0.1411
  164MOL    C2929695   0.185   3.046   3.093  0.0135 -0.5329  0.3115
  164MOL    C3029696   0.101   2.992   3.210  0.6524 -0.0907 -0.4732
  164MOL    C3129697   0.105   3.042   2.957 -0.4116  0.1713  0.0966
  164MOL    O3229698   0.134   2.957   2.876  0.4113  0.8628  0.8263
  164MOL    O3329699   8.147   3.125   2.945  0.0979  0.5286 -0.1461
  164MOL    H3429700   0.205   3.152   3.112  0.0862 -1.0034  2.9443
  164MOL    H3529701   8.143   3.022   3.206  0.3848 -0.8867  0.6138
  164MOL    H3629702   0.083   2.886   3.193  0.3077 -0.2169  0.6853
  164MOL    H3729703   0.133   3.007   3.313 -3.8230 -1.1470  1.1970
  164MOL    C3829704   8.052   3.109   2.844  0.2727  0.2497  0.3803
  164MOL    C3929705   7.999   3.247   2.794  1.3346  0.0233  0.5664
  164MOL    C4029706   7.930   3.015   2.876 -0.0612 -0.2456 -0.5905
  164MOL    O4129707   7.812   3.046   2.862  0.7175 -0.3368  0.3702
  164MOL    O4229708   7.961   2.896   2.922  0.0808  0.9333  0.6060
  164MOL    H4329709   8.090   3.053   2.758 -1.1783 -1.0248  0.5579
  164MOL    H4429710   8.071   3.289   2.723 -1.2374  2.4575 -0.7123
  164MOL    H4529711   7.914   3.222   2.730  1.1036 -1.4537  1.4256
  164MOL    H4629712   7.988   3.322   2.872 -0.1795  1.1177 -0.6848
  164MOL    C4729713   7.876   2.814   3.003 -0.3206  0.6411 -0.8792
  164MOL    C4829714   7.857   2.884   3.140 -0.0465  0.4914  0.7730
  164MOL    C4929715   7.934   2.669   3.015  0.6051 -0.8478 -0.6611
  164MOL    O5029716   7.961   2.618   3.124  0.0463  0.2240  0.2486
  164MOL    O5129717   7.949   2.615   2.899  0.0392  0.1473 -0.0326
  164MOL    H5229718   7.774   2.795   2.970 -0.6514 -0.5262  0.7594
  164MOL    H5329719   7.950   2.892   3.196  0.2761 -0.3857  0.3788
  164MOL    H5429720   7.813   2.984   3.133  0.4043  0.6346 -0.0674
  164MOL    H5529721   7.791   2.815   3.193  1.4448 -2.0488 -0.5750
  164MOL    C5629722   7.970   2.477   2.885  0.0679 -0.1817 -0.4074
  164MOL    C5729723   8.121   2.454   2.894  0.1182  0.3387 -0.2806
  164MOL    C5829724   7.922   2.423   2.746  0.5381 -0.1225 -0.6359
  164MOL    O5929725   7.852   2.488   2.671  0.1880 -0.8904  0.1209
  164MOL    O6029726   7.965   2.297   2.725 -0.2090 -0.3374  0.8525
  164MOL    H6129727   7.918   2.425   2.965  0.8308 -1.2174 -0.5832
  164MOL    H6229728   8.138   2.356   2.940  1.1366  1.1246  1.0379
  164MOL    H6329729   0.023   2.466   2.797 -1.2338  2.0159 -0.7982
  164MOL    H6429730   0.034   2.521   2.955  0.8782 -1.2914  0.7792
  164MOL    C6529731   7.930   2.218   2.608  0.0553  0.4760  0.2865
  164MOL    C6629732   7.955   2.069   2.627 -0.0176 -0.3680  0.5584
  164MOL    C6729733   8.020   2.279   2.501  0.4031 -0.2332  0.3294
  164MOL    O6829734   7.973   2.318   2.396  0.0930  0.3053  0.2076
  164MOL    O6929735   0.005   2.289   2.532  0.0353  0.0745  0.1730
  164MOL    H7029736   7.825   2.230   2.581 -0.2546 -0.2859  1.1139
  164MOL    H7129737   7.920   2.016   2.538  1.0498 -0.4585  0.1938
  164MOL    H7229738   8.061   2.047   2.638  0.4545  1.6312  0.2655
  164MOL    H7329739   7.895   2.027   2.708  1.4096 -2.1809  0.7119
  164MOL    C7429740   0.099   2.347   2.439 -0.1569  0.3651 -0.1463
  164MOL    C7529741   0.242   2.323   2.485  0.8254  0.0847  0.0596
  164MOL    C7629742   0.076   2.493   2.413 -0.9460  0.7228 -0.1096
  164MOL    O7729743   0.119   2.540   2.314 -0.3485  0.5948 -0.0617
  164MOL    O7829744   0.039   2.560   2.521 -0.3353  0.3301 -0.0761
  164MOL    H7929745   0.086   2.300   2.341  0.0286 -2.7248  1.2644
  164MOL    H8029746   0.262   2.216   2.495  0.4581  0.0557  0.5083
  164MOL    H8129747   0.306   2.352   2.402 -1.7746  1.0383 -1.6681
  164MOL    H8229748   0.284   2.369   2.575  2.0770  1.6063 -1.2881
  164MOL    C8329749   0.048   2.703   2.526  0.2183 -0.7831 -0.0569
  164MOL    C8429750   0.014   2.739   2.667 -0.0298  0.9389 -0.5429
  164MOL    C8529751   8.095   2.764   2.431  0.5218  0.1982  0.2029
  164MOL    O8629752   7.986   2.715   2.400  0.7072 -0.6566 -0.5737
  164MOL    O8729753   8.143   2.880   2.388  0.1672  0.2554 -0.1329
  164MOL    H8829754   0.149   2.736   2.503  0.2439  2.0183  3.7482
  164MOL    H8929755   8.060   2.728   2.705  0.3870  0.4166  0.4289
  164MOL    H9029756   0.085   2.702   2.740 -0.2326  0.6703 -0.4819
  164MOL    H9129757   0.019   2.848   2.676 -1.1658  1.0531 -1.0857
  164MOL    C9229758   8.064   2.976   2.315 -0.6912 -0.1119  0.2014
  164MOL    C9329759   0.018   3.077   2.265  0.0080  0.2441  0.4874
  164MOL    C9429760   7.961   3.043   2.406  0.0756 -0.6916 -0.6889
  164MOL    O9529761   7.966   3.030   2.532  0.1942 -0.5021 -0.2656
  164MOL    O9629762   7.871   3.127   2.345  0.3030  0.0014 -0.1218
  164MOL    H9729763   8.025   2.924   2.227 -0.2824  0.6558 -0.4391
  164MOL    H9829764   0.053   3.137   2.349  0.2278  0.6167  0.1317
  164MOL    H9929765   0.104   3.036   2.212 -0.5304 -0.4739  0.1601
  164MOL   H10029766   8.125   3.136   2.184  0.9869 -2.0829 -1.7798
  164MOL   C10129767   7.760   3.185   2.404  0.9374 -0.1545  0.0535
  164MOL   C10229768   7.640   3.092   2.373  1.0129  0.1162  0.1480
  164MOL   C10329769   7.748   3.323   2.339 -0.2817 -0.5182 -0.1797
  164MOL   O10429770   7.760   3.422   2.405  0.4100 -0.4293  0.2623
  164MOL   O10529771   7.731   3.326   2.209  0.0133  0.1215 -0.4766
  164MOL   H10629772   7.768   3.206   2.511  0.1175  2.5656 -0.3658
  164MOL   H10729773   7.608   3.039   2.463  0.3969  1.8179  0.9437
  164MOL   H10829774   7.554   3.154   2.348  0.7424 -0.2215  0.2206
  164MOL   H10929775   7.656   3.020   2.292 -0.5026 -0.0855  0.0103
  164MOL   C11029776   7.723   3.451   2.140 -0.3621  0.2960 -0.2000
  164MOL   C11129777   7.660   3.434   2.000 -0.3519  0.5035  0.5275
  164MOL   C11229778   7.861   3.515   2.136 -0.7595  0.1889  0.4705
  164MOL   O11329779   7.876   3.633   2.163 -0.0558 -0.3290 -0.2093
  164MOL   O11429780   7.960   3.433   2.088 -0.0764  0.4693 -0.6502
  164MOL   H11529781   7.652   3.507   2.200  1.2080 -1.2498  3.2001
  164MOL   H11629782   7.629   3.531   1.961 -1.1121 -0.2812 -0.8642
  164MOL   H11729783   7.736   3.381   1.941  1.7418  3.5984  0.3127
  164MOL   H11829784   7.568   3.377   2.005  0.9066 -1.4216  2.8967
  164MOL   C11929785   8.101   3.473   2.097 -0.0441  0.7268 -0.1547
  164MOL   C12029786   0.051   3.390   2.010  0.0143  0.2515  0.5655
  164MOL   C12129787   0.007   3.452   2.242  0.9179 -0.0400 -0.2062
  164MOL   O12229788   8.091   3.387   2.325  0.4735  0.4490 -0.5055
  164MOL   O12329789   0.125   3.520   2.267  0.6457  0.2828  0.2394
  164MOL   H12429790   8.104   3.577   2.067  2.7942  1.2191  1.6541
  164MOL   H12529791   0.053   3.283   2.031 -0.8964 -0.0757 -0.9517
  164MOL   H12629792   0.022   3.389   1.906  0.2050  0.4894  0.5087
  164MOL   H12729793   0.147   3.442   2.016 -0.2768  0.6571  1.9511
  164MOL   C12829794   0.194   3.505   2.384  0.2622 -0.3397 -0.2822
  164MOL   C12929795   0.306   3.613   2.389  0.8048 -0.2387 -0.4951
  164MOL   C13029796   0.254   3.368   2.392  0.2048 -0.2595 -0.4804
  164MOL   O13129797   0.289   3.307   2.294 -0.3021 -0.2382  0.0441
  164MOL   O13229798   0.271   3.329   2.516 -0.3050 -0.2136 -0.5517
  164MOL   H13329799   0.131   3.517   2.472 -0.2572  0.1677 -0.7192
  164MOL   H13429800   0.365   3.610   2.481 -1.5670 -0.0169  1.0861
  164MOL   H13529801   0.372   3.594   2.304  0.7146  1.5834 -0.9859
  164MOL   H13629802   0.262   3.711   2.373 -0.7141 -0.2987  2.8257
  164MOL   C13729803   0.343   3.208   2.549 -0.0679 -0.3648  0.3868
  164MOL   C13829804   0.283   3.170   2.686  0.8224  0.2461  0.5515
  164MOL   C13929805   0.493   3.218   2.552  0.1618  0.3983 -0.3259
  164MOL   O14029806   0.568   3.133   2.503  0.0763 -0.3606  0.4591
  164MOL   O14129807   0.533   3.323   2.622  0.2636 -0.1791  0.1396
  164MOL   H14229808   0.316   3.130   2.478 -0.5187 -0.4186  0.6187
  164MOL   H14329809   0.181   3.136   2.668  1.8334 -2.7429  0.2824
  164MOL   H14429810   0.349   3.113   2.751  0.6916 -0.5187  0.0164
  164MOL   H14529811   0.260   3.261   2.741 -0.4167 -0.4663  1.2382
  164MOL   C14629812   0.673   3.363   2.631  0.1397 -0.1606  0.3837
  164MOL   C14729813   0.751   3.279   2.734 -0.2788  0.3076  0.4758
  164MOL   C14829814   0.685   3.511   2.682 -0.2959 -0.2006  0.0667
  164MOL   O14929815   0.765   3.543   2.763 -0.7015 -0.4657 -0.1861
  164MOL   O15029816   0.607   3.598   2.622 -0.3335  0.0680 -0.0422
  164MOL   H15129817   0.708   3.358   2.528  0.2197 -0.1626  0.4112
  164MOL   H15229818   0.760   3.177   2.698  0.8860 -0.7798  3.6655
  164MOL   H15329819   0.852   3.313   2.758  0.5902 -0.2191 -2.2274
  164MOL   H15429820   0.701   3.276   2.831  1.1072 -1.3513  1.1751
  164MOL   C15529821   0.602   3.746   2.655  0.2360 -0.0028  0.1196
  164MOL   C15629822   0.478   3.811   2.615  0.7413 -0.3760 -0.1243
  164MOL   C15729823   0.725   3.819   2.611 -0.4499 -0.8861  0.5801
  164MOL   O15829824   0.781   3.910   2.676  0.4657 -0.0512  0.3066
  164MOL   O15929825   0.757   3.772   2.490 -0.2037 -0.1150 -0.0986
  164MOL   H16029826   0.608   3.758   2.763  0.5447  0.2229  0.0768
  164MOL   H16129827   0.486   3.917   2.641 -0.2826 -0.9039  2.5074
  164MOL   H16229828   0.461   3.803   2.508  0.3446 -0.7334 -0.0361
  164MOL   H16329829   0.385   3.773   2.657  0.4087  1.0905  0.4995
  164MOL   C16429830   0.854   3.811   2.400  0.2954 -0.6830  0.5452
  164MOL   C16529831   0.984   3.747   2.451 -0.0943  0.6761  0.0545
  164MOL   C16629832   0.874   3.964   2.379  0.5321 -0.4412 -0.7474
  164MOL   O16729833   0.778   4.043   2.396 -0.2325 -0.0264 -0.3300
  164MOL   O16829834   0.998   4.001   2.350 -0.3680  0.1907  0.0972
  164MOL   H16929835   0.831   3.760   2.307  1.3277  0.9570 -0.6388
  164MOL   H17029836   1.070   3.740   2.384  1.1066 -1.5112  1.7610
  164MOL   H17129837   1.019   3.799   2.540 -0.9813 -0.2561  0.9588
  164MOL   H17229838   0.981   3.642   2.479  0.9425  0.0120 -2.1328
  164MOL   C17329839   1.023   4.134   2.309  0.2743  0.5707 -0.4117
  164MOL   C17429840   1.091   4.132   2.170  0.1085 -0.6872  0.4934
  164MOL   C17529841   1.102   4.201   2.424  0.7024  0.5049 -0.0354
  164MOL   O17629842   1.213   4.242   2.397 -0.1688  0.2370  0.0077
  164MOL   O17729843   1.035   4.221   2.538  0.2308  0.4818  0.7374
  164MOL   H17829844   0.929   4.188   2.296 -0.2244 -0.5234 -1.4968
  164MOL   H17929845   1.187   4.081   2.168  1.3329  1.5260  1.4034
  164MOL   H18029846   1.022   4.100   2.092 -1.0445 -0.7040  1.5086
  164MOL   H18129847   1.127   4.232   2.145  1.1754 -1.3479 -0.6779
  164MOL   H18229848   1.076   4.266   2.610 -0.7142  3.1080 -0.3258
  165MOL     C129849   5.315   5.633   8.125 -0.0598 -0.0841 -0.0599
  165MOL     C229850   5.260   5.492   8.092  0.6767 -0.3711  0.4185
  165MOL     C329851   5.340   5.725   8.003  0.1958 -0.1404 -0.0574
  165MOL     O429852   5.295   5.836   8.001  0.0591  0.5103  0.3296
  165MOL     O529853   5.396   5.658   7.900  0.0651  0.8487 -0.2501
  165MOL     H629854   5.249   5.679   0.051  2.0943  1.3782  0.9758
  165MOL     H729855   5.157   5.490   8.058  1.4131  1.7591 -2.2187
  165MOL     H829856   5.333   5.440   8.030  0.2162 -2.3894  1.5332
  165MOL     H929857   5.264   5.433   0.036 -0.5176  1.7683  1.8801
  165MOL    H1029858   5.407   5.626   0.034  0.0442  1.4781 -0.0179
  165MOL    C1129859   5.417   5.728   7.774 -0.4220 -0.3507  0.4420
  165MOL    C1229860   5.401   5.621   7.669 -0.6935 -0.7916 -0.5300
  165MOL    C1329861   5.550   5.805   7.764  0.7082 -0.5661  0.1526
  165MOL    O1429862   5.645   5.778   7.835 -0.1565 -0.0089 -0.1286
  165MOL    O1529863   5.556   5.904   7.668  0.2160  0.1628 -0.1303
  165MOL    H1629864   5.328   5.788   7.754 -0.7625 -0.4333  1.6637
  165MOL    H1729865   5.298   5.585   7.672 -1.6487  1.9383  0.2699
  165MOL    H1829866   5.422   5.655   7.568  1.9367 -1.6590 -0.3224
  165MOL    H1929867   5.472   5.539   7.677  0.7533  0.6976  2.7426
  165MOL    C2029868   5.652   6.009   7.671 -0.2221 -0.4781  0.2415
  165MOL    C2129869   5.589   6.127   7.614 -0.5758  0.2032 -0.0768
  165MOL    C2229870   5.787   5.968   7.603  0.1667  0.1313 -0.0281
  165MOL    O2329871   5.888   5.963   7.677 -1.0815 -0.5790  0.2773
  165MOL    O2429872   5.776   5.933   7.469 -0.3583 -0.2588 -0.4591
  165MOL    H2529873   5.671   6.037   7.775 -0.9261 -0.2436  0.3096
  165MOL    H2629874   5.491   6.150   7.657 -1.2666 -3.1714  0.2374
  165MOL    H2729875   5.646   6.215   7.645  0.3812  0.1175 -1.5649
  165MOL    H2829876   5.574   6.134   7.506 -2.4890  3.2181  0.3124
  165MOL    C2929877   5.879   5.848   7.413 -0.1324 -0.0824  0.0539
  165MOL    C3029878   5.829   5.826   7.266  0.0349  0.6552  0.0447
  165MOL    C3129879   5.880   5.717   7.495 -0.6418 -0.3435 -0.0944
  165MOL    O3229880   5.787   5.652   7.538  0.3026 -0.3981 -0.6954
  165MOL    O3329881   6.001   5.693   7.524 -0.6192 -0.2646 -0.9789
  165MOL    H3429882   5.976   5.898   7.416  0.3693 -1.0714  0.6353
  165MOL    H3529883   5.766   5.909   7.233  0.8055  1.2632  0.0841
  165MOL    H3629884   5.907   5.805   7.193 -0.7417  2.3032 -1.3149
  165MOL    H3729885   5.759   5.743   7.261  0.3212  0.3397  1.3150
  165MOL    C3829886   6.052   5.593   7.608  0.0320 -0.3072 -0.4194
  165MOL    C3929887   6.086   5.664   7.741  0.7156 -0.3862 -0.7553
  165MOL    C4029888   6.174   5.529   7.533 -0.2099 -0.1915  0.7686
  165MOL    O4129889   6.196   5.557   7.413  0.1574 -0.3845 -0.8025
  165MOL    O4229890   6.252   5.456   7.618 -0.0225  0.5801 -0.6567
  165MOL    H4329891   5.977   5.514   7.608 -0.6284  0.3176  0.0396
  165MOL    H4429892   6.112   5.586   7.813  0.7025 -0.1573 -0.5019
  165MOL    H4529893   6.174   5.728   7.729 -0.0026  0.6087 -0.7302
  165MOL    H4629894   6.008   5.732   7.774  1.3157 -0.0022 -0.1040
  165MOL    C4729895   6.358   5.377   7.568 -0.2004 -0.1299 -0.9330
  165MOL    C4829896   6.363   5.249   7.656  0.7508  0.3393  0.3471
  165MOL    C4929897   6.478   5.464   7.575  0.4370 -0.6262  0.0647
  165MOL    O5029898   6.591   5.421   7.612 -0.0096 -0.0204  0.3937
  165MOL    O5129899   6.463   5.589   7.533 -0.0688 -0.1831 -1.1119
  165MOL    H5229900   6.353   5.349   7.463 -0.9809  0.3661 -1.0329
  165MOL    H5329901   6.458   5.199   7.635 -0.0526 -0.2584 -1.9331
  165MOL    H5429902   6.354   5.264   7.764  0.3385 -0.9790  0.5076
  165MOL    H5529903   6.284   5.180   7.628  0.5564  0.7421 -0.0804
  165MOL    C5629904   6.575   5.663   7.491  0.1351 -0.3638  0.0479
  165MOL    C5729905   6.584   5.787   7.584 -0.6562 -0.3697  0.1296
  165MOL    C5829906   6.564   5.714   7.352  0.4390 -0.9878  0.5977
  165MOL    O5929907   6.657   5.733   7.281  0.1160 -0.0015 -0.0882
  165MOL    O6029908   6.434   5.746   7.327  0.2233  0.0966 -0.0641
  165MOL    H6129909   6.668   5.606   7.501  0.7089  0.9007  2.4652
  165MOL    H6229910   6.501   5.856   7.566 -0.7247 -0.4293  0.2163
  165MOL    H6329911   6.591   5.762   7.690 -0.5152  0.9551  0.4357
  165MOL    H6429912   6.662   5.858   7.559 -0.6347 -0.5093 -0.2140
  165MOL    C6529913   6.399   5.819   7.213  0.2714 -0.2100 -0.0022
  165MOL    C6629914   6.267   5.896   7.248  0.1546 -0.2178 -0.0353
  165MOL    C6729915   6.378   5.727   7.096  0.1258  0.3894  0.1866
  165MOL    O6829916   6.298   5.632   7.104  0.2486 -0.1004 -0.2723
  165MOL    O6929917   6.432   5.769   6.983 -0.4574  0.0712 -0.2481
  165MOL    H7029918   6.473   5.897   7.194 -0.2494  0.1775 -0.4485
  165MOL    H7129919   6.237   5.955   7.162 -0.0875  1.0173  0.8809
  165MOL    H7229920   6.191   5.831   7.292  1.5471  0.1786  3.0996
  165MOL    H7329921   6.283   5.970   7.326  1.8670 -0.0552 -0.5127
  165MOL    C7429922   6.395   5.705   6.861  0.0408 -0.0518  0.4518
  165MOL    C7529923   6.498   5.744   6.754  0.2964 -0.5778 -0.1615
  165MOL    C7629924   6.247   5.748   6.816  0.3459 -1.6570 -0.0306
  165MOL    O7729925   6.196   5.855   6.851  0.0633  0.0308  0.2374
  165MOL    O7829926   6.195   5.646   6.742  0.0339  0.5424 -0.8925
  165MOL    H7929927   6.400   5.597   6.875  1.3046 -0.0432  0.0642
  165MOL    H8029928   6.481   5.724   6.648  2.8921  2.7847 -1.2957
  165MOL    H8129929   6.516   5.851   6.759  1.6963 -0.8169  0.2783
  165MOL    H8229930   6.593   5.697   6.779  0.3275  1.2211  3.2559
  165MOL    C8329931   6.060   5.647   6.693  0.1127 -0.2590 -0.0587
  165MOL    C8429932   6.032   5.736   6.573 -0.5002  0.3154  0.0230
  165MOL    C8529933   5.952   5.667   6.809  0.4802  0.2339 -0.4062
  165MOL    O8629934   5.862   5.747   6.794 -0.6025 -0.1999 -0.3214
  165MOL    O8729935   5.970   5.579   6.906  0.1184  0.8000 -0.2874
  165MOL    H8829936   6.053   5.542   6.664 -0.9491 -0.3455  0.4889
  165MOL    H8929937   6.031   5.841   6.602 -1.3321  0.1456  0.6089
  165MOL    H9029938   6.095   5.721   6.485 -2.0498 -1.4259 -0.8221
  165MOL    H9129939   5.933   5.712   6.535  0.6488  0.1431 -2.9995
  165MOL    C9229940   5.880   5.563   7.016  0.0395 -0.4357 -0.0276
  165MOL    C9329941   5.966   5.547   7.151 -0.4730  0.1229 -0.5264
  165MOL    C9429942   5.787   5.449   6.986  0.6261  0.1875  0.6117
  165MOL    O9529943   5.840   5.346   6.950  0.2343 -0.1378  0.5247
  165MOL    O9629944   5.656   5.484   7.010  0.3920 -0.0077 -0.2157
  165MOL    H9729945   5.818   5.652   7.033 -0.6074 -0.7197 -0.8893
  165MOL    H9829946   6.047   5.619   7.157 -1.6502  1.2111  3.2353
  165MOL    H9929947   5.912   5.549   7.246  0.6961 -0.0459  0.1524
  165MOL   H10029948   6.029   5.459   7.140  2.6340  1.9815  1.7573
  165MOL   C10129949   5.562   5.381   7.016 -0.4971  0.7217  0.6402
  165MOL   C10229950   5.427   5.439   6.996 -0.2383  0.0750 -0.3917
  165MOL   C10329951   5.576   5.302   7.144  0.6303  0.0171  0.4390
  165MOL   O10429952   5.613   5.186   7.132 -0.6454  0.1488  0.5656
  165MOL   O10529953   5.554   5.358   7.259  0.4850 -0.1158  0.4072
  165MOL   H10629954   5.585   5.306   6.940 -0.5917  0.6328  0.6993
  165MOL   H10729955   5.350   5.364   7.018  1.7042 -1.5478  1.0508
  165MOL   H10829956   5.422   5.529   7.058  1.5307  1.1227 -1.7459
  165MOL   H10929957   5.430   5.464   6.890 -0.9899  0.4586 -0.3304
  165MOL   C11029958   5.609   5.298   7.379 -0.0197 -0.3329  0.5829
  165MOL   C11129959   5.552   5.383   7.500 -0.1375 -0.3837 -0.3363
  165MOL   C11229960   5.767   5.293   7.378  0.4682 -0.0404 -0.4124
  165MOL   O11329961   5.824   5.372   7.439  0.0841 -0.3117  0.1902
  165MOL   O11429962   5.824   5.196   7.296 -0.2420 -0.1165  0.2442
  165MOL   H11529963   5.558   5.202   7.376 -2.2817  0.7386  2.7666
  165MOL   H11629964   5.595   5.364   7.598 -0.1767 -0.8120 -0.4022
  165MOL   H11729965   5.570   5.486   7.469 -0.0968 -0.2252  0.2108
  165MOL   H11829966   5.445   5.383   7.522  0.2208  0.7728  1.5902
  165MOL   C11929967   5.968   5.184   7.274 -0.1297 -0.2158 -0.4610
  165MOL   C12029968   5.983   5.076   7.169  0.2348 -0.8967  0.0952
  165MOL   C12129969   6.045   5.153   7.412  0.2438  0.3351  1.1106
  165MOL   O12229970   6.156   5.198   7.437 -0.3465 -0.0091 -0.4112
  165MOL   O12329971   5.976   5.057   7.489 -0.3552  0.5106 -0.2920
  165MOL   H12429972   5.999   5.279   7.231 -0.6296  1.3058  2.4178
  165MOL   H12529973   6.078   5.095   7.119  0.2975  3.3397  1.6594
  165MOL   H12629974   5.981   4.976   7.213 -0.0641 -0.4259  1.1433
  165MOL   H12729975   5.903   5.083   7.095 -1.4966 -2.0736  1.8118
  165MOL   C12829976   6.039   4.999   7.605 -0.3684 -0.1127 -0.1374
  165MOL   C12929977   5.972   4.863   7.633  0.7619  0.1914  0.5597
  165MOL   C13029978   6.032   5.090   7.729  0.0542 -1.0595 -0.3009
  165MOL   O13129979   5.981   5.203   7.730  0.1850 -0.3071 -0.2275
  165MOL   O13229980   6.091   5.034   7.835 -0.0194  0.3476 -0.3343
  165MOL   H13329981   6.142   4.971   7.584 -0.9354 -0.4562 -2.5764
  165MOL   H13429982   6.016   4.805   7.714  0.7213 -0.4243  0.1459
  165MOL   H13529983   5.869   4.886   7.658  0.2358 -1.2666 -0.2244
  165MOL   H13629984   5.972   4.807   7.539 -0.6410 -0.7083  1.0853
  165MOL   C13729985   6.119   5.115   7.946  0.0699  0.1172 -0.3690
  165MOL   C13829986   6.238   5.060   8.028  0.0835  0.1893  0.1909
  165MOL   C13929987   5.989   5.147   8.034  0.2786 -0.0677 -0.1906
  165MOL   O14029988   5.881   5.089   8.006  0.0217  0.2081  0.5756
  165MOL   O14129989   6.010   5.245   8.137  0.7807  0.1024  0.5431
  165MOL   H14229990   6.160   5.211   7.915  1.5824 -0.7801 -1.2068
  165MOL   H14329991   6.331   5.070   7.973 -1.9378  0.5802 -3.3257
  165MOL   H14429992   6.257   5.109   8.123  1.2160 -0.8458  0.5134
  165MOL   H14529993   6.210   4.957   8.051  0.8068  0.4679  2.4090
  165MOL   C14629994   5.907   5.277   0.085 -0.0390  0.8285 -0.2092
  165MOL   C14729995   5.963   5.391   0.172 -0.1341  0.3078  0.3017
  165MOL   C14829996   5.879   5.154   0.171 -0.0442 -0.2776  0.1781
  165MOL   O14929997   5.762   5.120   0.197 -0.0474  0.2749  0.0930
  165MOL   O15029998   5.991   5.088   0.209  1.3419 -0.2754  0.0776
  165MOL   H15129999   5.810   5.302   0.042 -0.7043 -0.3896  0.5644
  165MOL   H15230000   6.048   5.361   0.233 -1.0927  0.3568  1.6917
  165MOL   H15330001   5.995   5.477   0.112 -0.9542  1.6046  1.6975
  165MOL   H15430002   5.888   5.431   0.239 -0.4421  0.3626 -0.0734
  165MOL   C15530003   5.989   4.957   0.264  0.3621  0.2674 -0.3602
  165MOL   C15630004   5.937   4.855   0.157 -0.7858 -0.3027 -0.6231
  165MOL   C15730005   5.911   4.945   0.400  0.1453 -0.7113 -0.2259
  165MOL   O15830006   5.873   5.042   0.466 -0.2904  0.5430 -0.1262
  165MOL   O15930007   5.910   4.816   0.442 -0.3739 -0.4098 -0.4946
  165MOL   H16030008   6.095   4.934   0.280 -0.5356 -3.2694  0.8108
  165MOL   H16130009   5.829   4.850   0.150 -0.8092 -1.2648  0.3962
  165MOL   H16230010   5.981   4.877   0.059 -1.4234 -1.6014 -1.2084
  165MOL   H16330011   5.964   4.752   0.177 -1.3296 -0.0689  1.3796
  165MOL   C16430012   5.830   4.778   0.550  0.7226 -0.3252  0.1609
  165MOL   C16530013   5.912   4.691   0.642 -0.5407 -0.7454  0.3913
  165MOL   C16630014   5.704   4.707   0.500  0.1675  0.1114 -0.4982
  165MOL   O16730015   5.691   4.583   0.501 -0.5937  0.2798 -0.5780
  165MOL   O16830016   5.626   4.801   0.448 -0.5442  0.0280  0.1323
  165MOL   H16930017   5.797   4.860   0.614  1.4732  0.6123 -0.6421
  165MOL   H17030018   5.865   4.673   0.738 -0.8485 -1.0593  0.1822
  165MOL   H17130019   5.924   4.595   0.592  4.4759  0.3574 -0.8324
  165MOL   H17230020   6.010   4.740   0.648 -1.1848  0.6787 -0.6096
  165MOL   C17330021   5.517   4.763   0.360  0.5129  0.0532 -0.3512
  165MOL   C17430022   5.510   4.871   0.243  0.1461  0.1548 -0.5703
  165MOL   C17530023   5.387   4.774   0.440  0.1258  0.4091 -0.3310
  165MOL   O17630024   5.300   4.691   0.447  0.3996 -0.0585  0.1748
  165MOL   O17730025   5.372   4.888   0.507  0.7610  0.5451  0.1380
  165MOL   H17830026   5.536   4.668   0.309  1.6790  0.0414  0.0804
  165MOL   H17930027   5.579   4.853   0.160  1.9725  2.8957  0.2992
  165MOL   H18030028   5.410   4.893   0.203  1.4469  2.9315 -2.5066
  165MOL   H18130029   5.526   4.976   0.267 -1.5974  0.0805  1.0600
  165MOL   H18230030   5.455   4.928   0.528  0.6419  1.0615 -0.3458
  166MOL     C130031   0.530   2.820   3.943 -0.6001  0.5610 -0.6751
  166MOL     C230032   0.626   2.775   4.059  0.2324  0.3526 -0.0928
  166MOL     C330033   0.426   2.924   3.983  0.3818  0.5182  0.0602
  166MOL     O430034   0.371   2.994   3.902 -0.3967 -0.0512 -0.2336
  166MOL     O530035   0.389   2.920   4.120  0.0275  0.2664  0.2701
  166MOL     H630036   0.592   2.858   3.862 -0.4024  0.0855 -0.7475
  166MOL     H730037   0.569   2.718   4.132 -1.3468 -0.7081 -2.0844
  166MOL     H830038   0.701   2.711   4.011  1.8111  1.0425  1.4309
  166MOL     H930039   0.674   2.858   4.108 -0.3155 -1.1583  3.1060
  166MOL    H1030040   0.462   2.750   3.895 -1.8007  0.5650  0.9707
  166MOL    C1130041   0.289   3.004   4.188 -0.3641  0.0703 -0.0954
  166MOL    C1230042   0.302   2.958   4.335 -0.0717 -0.1454  0.1161
  166MOL    C1330043   0.143   2.998   4.129 -0.2202  0.6046 -0.0831
  166MOL    O1430044   0.062   2.916   4.167 -0.2384  0.0099  0.0451
  166MOL    O1530045   0.123   3.083   4.023 -0.6093 -0.6364  0.0395
  166MOL    H1630046   0.319   3.109   4.176 -0.7685  0.3071  0.9188
  166MOL    H1730047   0.392   3.005   4.376 -1.0295  0.6918  1.2848
  166MOL    H1830048   0.223   3.002   4.395 -0.6252  0.0606 -0.7582
  166MOL    H1930049   0.316   2.856   4.370  2.1917  0.8176  2.1549
  166MOL    C2030050   0.011   3.080   3.935 -0.2523  0.1537  0.4975
  166MOL    C2130051   0.050   2.998   3.814 -0.4462 -0.4011  0.4988
  166MOL    C2230052   8.122   3.220   3.888 -0.1686 -0.3207 -1.0057
  166MOL    O2330053   0.062   3.297   3.847 -0.4349  0.3817  0.4845
  166MOL    O2430054   7.988   3.247   3.875 -0.0776  0.3825 -0.1777
  166MOL    H2530055   8.078   3.031   3.988 -1.1268 -0.8605 -1.7016
  166MOL    H2630056   0.076   2.897   3.848  1.0112 -0.5261 -0.8723
  166MOL    H2730057   8.110   2.997   3.749  0.5627 -1.7823 -0.8881
  166MOL    H2830058   0.133   3.049   3.765 -0.8561  1.6399  1.8617
  166MOL    C2930059   7.934   3.365   3.806 -0.5291  0.1975 -0.1013
  166MOL    C3030060   7.799   3.406   3.865 -0.1274 -0.2775  0.3386
  166MOL    C3130061   7.921   3.336   3.654 -0.9203 -0.1766  0.3672
  166MOL    O3230062   7.818   3.357   3.595  0.0234  0.5450  0.2956
  166MOL    O3330063   8.035   3.293   3.594  0.3538 -0.2778 -0.3421
  166MOL    H3430064   8.000   3.450   3.819 -0.6763 -0.0063  2.1014
  166MOL    H3530065   7.770   3.502   3.822 -2.9783 -1.8120 -1.2994
  166MOL    H3630066   7.713   3.343   3.842  0.2031 -0.2627 -1.0023
  166MOL    H3730067   7.815   3.423   3.971  1.9555 -0.4573  0.0811
  166MOL    C3830068   8.036   3.262   3.454 -0.2587 -0.6465 -0.3969
  166MOL    C3930069   8.016   3.116   3.433  0.4447 -0.0390 -0.0582
  166MOL    C4030070   0.016   3.322   3.401  0.0812 -0.5257 -0.4389
  166MOL    O4130071   0.123   3.261   3.401 -0.3706 -0.0782 -0.3755
  166MOL    O4230072   8.146   3.448   3.350 -0.4153 -0.4512  0.0208
  166MOL    H4330073   7.956   3.318   3.406 -0.6113 -1.4986 -0.8054
  166MOL    H4430074   7.987   3.098   3.330  0.5689  0.5836 -0.2069
  166MOL    H4530075   8.103   3.055   3.456  0.0420 -1.4491 -2.1299
  166MOL    H4630076   7.933   3.077   3.492  1.8103 -3.2074 -0.1544
  166MOL    C4730077   0.104   3.513   3.281 -0.2097 -0.8492 -0.1288
  166MOL    C4830078   0.062   3.661   3.263 -0.1772 -0.1354  0.3603
  166MOL    C4930079   0.132   3.445   3.147  0.4352 -0.4775 -0.4298
  166MOL    O5030080   0.054   3.361   3.096 -0.0486 -0.9089  0.0259
  166MOL    O5130081   0.243   3.490   3.097 -0.2053 -0.0175 -0.0933
  166MOL    H5230082   0.193   3.507   3.343  0.9885 -1.6484 -1.8963
  166MOL    H5330083   0.040   3.696   3.364 -1.5302  2.5434 -0.8162
  166MOL    H5430084   0.136   3.723   3.213 -1.6990  1.8252  0.4760
  166MOL    H5530085   8.116   3.666   3.207  0.5786 -2.8801 -1.2502
  166MOL    C5630086   0.266   3.466   2.959  0.2249  0.0518  0.0888
  166MOL    C5730087   0.412   3.513   2.934  0.0966  0.1023  0.3873
  166MOL    C5830088   0.183   3.551   2.867 -0.0381 -0.7763  0.1147
  166MOL    O5930089   0.113   3.507   2.777 -1.1695  0.2297  0.3800
  166MOL    O6030090   0.197   3.686   2.901  0.0738 -0.5116  0.2767
  166MOL    H6130091   0.259   3.359   2.943 -0.4909 -0.1424  1.5741
  166MOL    H6230092   0.470   3.446   2.997 -0.1798 -0.6431 -0.1442
  166MOL    H6330093   0.454   3.495   2.835 -1.3242 -0.8906 -0.0372
  166MOL    H6430094   0.434   3.614   2.969  2.9320 -0.5174  0.5524
  166MOL    C6530095   0.119   3.788   2.833 -0.4141  0.7487  0.5488
  166MOL    C6630096   0.177   3.927   2.872 -0.2615 -0.0381 -0.6703
  166MOL    C6730097   8.116   3.766   2.850  0.5028 -0.1030  1.2517
  166MOL    O6830098   8.065   3.725   2.956 -0.2393 -0.0215 -0.2790
  166MOL    O6930099   8.042   3.803   2.752 -0.4748 -0.2495  0.1825
  166MOL    H7030100   0.130   3.777   2.725 -0.2239  1.6282  0.4712
  166MOL    H7130101   0.274   3.943   2.824 -0.7345  1.8214 -1.0695
  166MOL    H7230102   0.111   4.011   2.851 -0.2322  0.4532  1.1379
  166MOL    H7330103   0.195   3.935   2.979 -4.0099  0.3851 -0.0084
  166MOL    C7430104   7.919   3.737   2.716  0.0852  0.6602 -0.3745
  166MOL    C7530105   7.903   3.745   2.564  0.0350 -0.0042 -0.0540
  166MOL    C7630106   7.802   3.813   2.777  0.0951 -0.2508  0.6333
  166MOL    O7730107   7.730   3.762   2.867 -0.4932  0.0544  0.3729
  166MOL    O7830108   7.798   3.943   2.732  0.1021 -0.2872  0.1392
  166MOL    H7930109   7.904   3.630   2.735  1.6715  0.8299  2.1502
  166MOL    H8030110   7.798   3.722   2.546 -0.2311 -0.4316  1.9869
  166MOL    H8130111   7.932   3.843   2.524  1.2444  0.7348  2.5350
  166MOL    H8230112   7.958   3.669   2.508 -0.3880  0.7182 -1.4921
  166MOL    C8330113   7.697   4.033   2.774 -0.0469  0.3823 -0.1223
  166MOL    C8430114   7.665   4.131   2.659 -0.0109  0.1263  0.0562
  166MOL    C8530115   7.730   4.116   2.904  0.4224 -0.4578  0.4369
  166MOL    O8630116   7.650   4.125   2.999 -0.4554 -0.1133 -0.1037
  166MOL    O8730117   7.852   4.176   2.905  0.1581 -0.2653 -0.1687
  166MOL    H8830118   7.609   3.975   2.799  0.8410 -0.7777  0.3625
  166MOL    H8930119   7.747   4.199   2.638 -1.2147  0.8523 -2.4772
  166MOL    H9030120   7.626   4.081   2.570 -0.2747  0.2122  0.1219
  166MOL    H9130121   7.589   4.204   2.684 -0.0852 -0.1363  0.5953
  166MOL    C9230122   7.902   4.260   3.007  0.4990  0.2024  0.4918
  166MOL    C9330123   8.033   4.323   2.956  0.1901  0.2870 -0.2401
  166MOL    C9430124   7.933   4.187   3.134 -0.7808  0.3521  0.8253
  166MOL    O9530125   7.899   4.231   3.244  0.2390  0.4741 -0.1871
  166MOL    O9630126   7.990   4.064   3.111  0.3823 -0.4908 -0.2891
  166MOL    H9730127   7.825   4.329   3.040 -1.0066 -1.5915  0.8095
  166MOL    H9830128   8.103   4.245   2.927  0.7677  1.1201 -1.1140
  166MOL    H9930129   8.027   4.386   2.867  1.2713 -0.6183 -0.9749
  166MOL   H10030130   8.079   4.383   3.034  1.8529 -1.3320  0.0687
  166MOL   C10130131   8.056   3.995   3.207 -0.4584 -0.2685 -0.1172
  166MOL   C10230132   7.959   3.948   3.313  0.3042 -0.4520  0.7199
  166MOL   C10330133   0.031   4.061   3.270 -0.3286 -0.2902 -0.5209
  166MOL   O10430134   0.063   4.181   3.242  0.2129  0.1891 -0.0282
  166MOL   O10530135   0.106   3.985   3.348 -0.4520  0.4730  1.1029
  166MOL   H10630136   8.079   3.905   3.150 -1.8360 -0.1793 -0.8559
  166MOL   H10730137   8.018   3.888   3.382 -1.2975 -2.3156  0.4924
  166MOL   H10830138   7.928   4.036   3.370 -1.8021 -0.9448  0.3544
  166MOL   H10930139   7.877   3.886   3.278 -0.1945  1.1368 -0.9970
  166MOL   C11030140   0.187   4.035   3.454  0.4508 -0.4344  0.6213
  166MOL   C11130141   0.169   3.943   3.578 -0.2344  0.1948  0.8368
  166MOL   C11230142   0.161   4.182   3.503  0.2972  0.1822  0.4791
  166MOL   O11330143   0.058   4.213   3.563 -0.5539 -0.2711 -0.3554
  166MOL   O11430144   0.265   4.262   3.485 -0.0373  0.9637  0.1999
  166MOL   H11530145   0.286   4.049   3.410  0.3831  1.1063  0.9419
  166MOL   H11630146   0.201   3.995   3.669 -1.3445  1.5242  0.4838
  166MOL   H11730147   0.069   3.907   3.600 -1.1150  3.1265  1.8643
  166MOL   H11830148   0.231   3.853   3.572  0.3190  0.7011 -1.5920
  166MOL   C11930149   0.257   4.402   3.519 -0.0719 -0.0216 -0.2049
  166MOL   C12030150   0.233   4.484   3.391  0.0964  0.1405  0.3538
  166MOL   C12130151   0.380   4.448   3.599  0.1453  0.4203  0.2834
  166MOL   O12230152   0.477   4.379   3.632  0.1522 -0.3603  0.2396
  166MOL   O12330153   0.357   4.569   3.635  0.1911 -0.5545  0.3809
  166MOL   H12430154   0.170   4.412   3.583  0.3311 -0.9754  0.5184
  166MOL   H12530155   0.322   4.484   3.328  0.2749 -0.9844  0.6032
  166MOL   H12630156   0.144   4.446   3.341 -1.4085  0.6555  2.5873
  166MOL   H12730157   0.210   4.588   3.415  2.0170  0.9232 -1.0473
  166MOL   C12830158   0.445   4.651   3.711  0.5972  0.3874 -0.7875
  166MOL   C12930159   0.361   4.765   3.757 -0.0065 -0.2695 -0.3449
  166MOL   C13030160   0.564   4.702   3.627  1.2979 -0.3799  0.1364
  166MOL   O13130161   0.568   4.815   3.579 -0.1570  0.1471 -0.1261
  166MOL   O13230162   0.664   4.609   3.611  0.8009 -0.3485  0.6126
  166MOL   H13330163   0.496   4.602   3.794  0.3317 -0.4945 -1.1465
  166MOL   H13430164   0.426   4.830   3.817  0.6045 -2.3641  1.2975
  166MOL   H13530165   0.302   4.811   3.678 -0.0292  0.5741  0.1594
  166MOL   H13630166   0.286   4.736   3.831 -1.6129 -0.0546 -1.8644
  166MOL   C13730167   0.781   4.636   3.536  0.6854 -0.2423  0.0941
  166MOL   C13830168   0.843   4.506   3.500 -0.4185 -0.2280  0.4444
  166MOL   C13930169   0.868   4.726   3.621 -0.0509  0.5995 -0.5080
  166MOL   O14030170   0.921   4.832   3.584 -0.5381 -0.1100 -0.3236
  166MOL   O14130171   0.878   4.681   3.747 -0.2966 -0.5683  0.5794
  166MOL   H14230172   0.759   4.692   3.445  0.5112  0.1678  0.3902
  166MOL   H14330173   0.770   4.458   3.434  0.2340 -0.3982 -0.1582
  166MOL   H14430174   0.939   4.507   3.449 -1.2327 -0.3865 -1.1094
  166MOL   H14530175   0.845   4.439   3.586  0.4965 -0.6113  0.1247
  166MOL   C14630176   0.980   4.736   3.834  0.6734  0.2148  0.5010
  166MOL   C14730177   0.988   4.648   3.962 -0.4889  0.1634  0.7494
  166MOL   C14830178   0.945   4.883   3.872 -0.8890  0.4402 -0.8502
  166MOL   O14930179   1.040   4.963   3.898  0.2050  0.4169  0.0569
  166MOL   O15030180   0.807   4.897   3.880 -0.8803 -0.0623 -0.8390
  166MOL   H15130181   1.078   4.736   3.785  0.4532 -1.3593  0.0256
  166MOL   H15230182   0.981   4.541   3.945 -2.1279  0.5434 -1.0752
  166MOL   H15330183   1.074   4.669   4.026  0.9651 -1.7365 -0.5195
  166MOL   H15430184   0.905   4.662   4.031 -0.8187  0.0576  0.3712
  166MOL   C15530185   0.757   5.019   3.942  0.0343  0.5847  0.2525
  166MOL   C15630186   0.617   4.993   4.006  0.2607 -0.1378  0.0795
  166MOL   C15730187   0.754   5.134   3.842  0.1041 -0.4473 -0.1510
  166MOL   O15830188   0.804   5.246   3.856 -0.4141  0.1867 -0.8696
  166MOL   O15930189   0.669   5.108   3.739  0.2163 -1.0564 -0.1929
  166MOL   H16030190   0.828   5.053   4.017  0.1181  1.2944 -0.1436
  166MOL   H16130191   0.556   4.920   3.952  1.4640 -1.1644  0.0980
  166MOL   H16230192   0.633   4.943   4.101 -0.1258  1.9452  1.2685
  166MOL   H16330193   0.558   5.083   4.024 -0.5149 -0.3540 -1.2683
  166MOL   C16430194   0.642   5.210   3.638 -0.1342 -0.4401 -0.3938
  166MOL   C16530195   0.535   5.154   3.538 -0.2805 -0.2722 -0.6170
  166MOL   C16630196   0.773   5.241   3.561 -0.4760  0.4525 -0.0674
  166MOL   O16730197   0.821   5.358   3.552  0.0970  0.1944 -0.2113
  166MOL   O16830198   0.834   5.127   3.521  0.3460  0.5777  0.1012
  166MOL   H16930199   0.602   5.301   3.683  0.0502 -0.1765 -0.7685
  166MOL   H17030200   0.439   5.136   3.587 -0.9241 -0.3875 -1.9216
  166MOL   H17130201   0.515   5.241   3.475 -2.5377  0.7282  1.3694
  166MOL   H17230202   0.561   5.061   3.489 -1.3234 -0.3132 -1.1040
  166MOL   C17330203   0.965   5.124   3.458 -0.0526  0.0967  0.0413
  166MOL   C17430204   1.070   5.144   3.566 -0.5571 -0.9985 -0.6941
  166MOL   C17530205   0.975   5.225   3.342 -0.1034 -0.1801  0.1229
  166MOL   O17630206   1.049   5.324   3.341  0.5750 -0.3228  0.0731
  166MOL   O17730207   0.880   5.207   3.244  0.1928  0.0563  0.4210
  166MOL   H17830208   0.972   5.026   3.411 -0.0840 -0.3703  0.9993
  166MOL   H17930209   1.079   5.252   3.577  1.1114 -1.1871 -0.0313
  166MOL   H18030210   1.054   5.112   3.669 -0.7483  0.0805 -0.3776
  166MOL   H18130211   1.167   5.107   3.532 -1.1073 -1.8546 -1.3536
  166MOL   H18230212   0.892   5.285   3.192 -2.0941  0.1711  0.0132
  167MOL     C130213   2.980   3.434   4.496 -0.2041 -0.3050 -0.2987
  167MOL     C230214   3.058   3.555   4.554  0.1874 -0.0948  0.3373
  167MOL     C330215   2.894   3.361   4.593 -0.3164  0.2918 -0.0372
  167MOL     O430216   2.772   3.350   4.574  0.4508  0.6396  0.1588
  167MOL     O530217   2.968   3.325   4.704  0.6010 -0.8166 -0.3153
  167MOL     H630218   2.914   3.490   4.429 -0.1172 -1.2915 -1.2194
  167MOL     H730219   3.107   3.600   4.467 -0.3460  2.0343  1.1151
  167MOL     H830220   3.012   3.631   4.617  2.7926 -0.8489  3.2883
  167MOL     H930221   3.133   3.509   4.619  2.0542  0.5017 -1.3386
  167MOL    H1030222   3.040   3.369   4.432 -2.0764 -1.0273 -1.3722
  167MOL    C1130223   2.902   3.246   4.809  0.5224  0.7179  0.1589
  167MOL    C1230224   2.989   3.259   4.934  0.3223  0.4180  0.0079
  167MOL    C1330225   2.884   3.097   4.766 -0.2896  0.4315 -1.1423
  167MOL    O1430226   2.894   3.061   4.649  0.3382  0.0104  0.1362
  167MOL    O1530227   2.856   3.031   4.872  0.1247  0.0728  0.1951
  167MOL    H1630228   2.805   3.288   4.834 -0.0079  1.7700 -3.4070
  167MOL    H1730229   3.007   3.362   4.966 -0.7525  0.0822  1.7359
  167MOL    H1830230   2.954   3.207   5.022 -0.8421  1.3923  0.1338
  167MOL    H1930231   3.088   3.228   4.902 -1.1097  0.2041 -4.6384
  167MOL    C2030232   2.808   2.898   4.858 -0.2211 -0.3044 -0.2270
  167MOL    C2130233   2.714   2.880   4.973 -0.2011 -0.3876 -0.2170
  167MOL    C2230234   2.928   2.806   4.856 -0.0990  0.1311 -0.1976
  167MOL    O2330235   2.964   2.745   4.955  0.1189  0.1826  0.3141
  167MOL    O2430236   2.982   2.795   4.736 -0.2951  0.0547  0.1954
  167MOL    H2530237   2.753   2.892   4.764  0.6705 -0.9016 -0.7117
  167MOL    H2630238   2.767   2.866   5.067 -0.4351 -0.7822 -0.1394
  167MOL    H2730239   2.639   2.958   4.984  0.9688  0.5578  1.1922
  167MOL    H2830240   2.659   2.787   4.957  0.3780 -1.4960  3.5953
  167MOL    C2930241   3.077   2.688   4.700 -0.0804 -0.6192  0.3692
  167MOL    C3030242   3.145   2.709   4.562  0.8200 -0.5333 -0.3291
  167MOL    C3130243   3.002   2.552   4.692 -0.5466 -0.0815 -0.7683
  167MOL    O3230244   2.977   2.508   4.581 -0.4940 -0.6124 -0.4851
  167MOL    O3330245   2.959   2.494   4.810  0.0667  0.0843 -0.4952
  167MOL    H3430246   3.145   2.674   4.784  0.2116 -1.4678  0.0007
  167MOL    H3530247   3.194   2.618   4.528  3.3862  1.2141 -1.4893
  167MOL    H3630248   3.074   2.729   4.483  0.4063  0.4096  0.2691
  167MOL    H3730249   3.219   2.789   4.570  2.1489 -1.9196  2.0131
  167MOL    C3830250   2.860   2.389   4.820 -0.3373 -0.8913  0.2489
  167MOL    C3930251   2.792   2.403   4.956 -0.9221 -0.3556  0.5487
  167MOL    C4030252   2.922   2.250   4.785 -0.2807  0.0355  0.3248
  167MOL    O4130253   2.880   2.192   4.684  0.5445  0.4557  0.8205
  167MOL    O4230254   3.006   2.192   4.881 -0.1783  0.0001 -0.2797
  167MOL    H4330255   2.776   2.410   4.753  0.3947 -2.2993 -1.1537
  167MOL    H4430256   2.735   2.495   4.960  1.0175  0.8738  0.6578
  167MOL    H4530257   2.720   2.324   4.978  0.6630 -2.6379 -2.0945
  167MOL    H4630258   2.859   2.408   5.042  2.0538 -0.2589 -1.7035
  167MOL    C4730259   3.042   2.054   4.885  0.0697 -0.3461  0.3016
  167MOL    C4830260   3.064   1.999   5.025 -1.3006 -0.1221  0.3805
  167MOL    C4930261   3.152   2.020   4.787 -0.3617  0.6581  0.3325
  167MOL    O5030262   3.156   1.913   4.729 -0.2524  0.3697  0.3840
  167MOL    O5130263   3.246   2.115   4.769 -0.0705 -0.1437 -0.3554
  167MOL    H5230264   2.950   2.004   4.857 -0.7912  0.6747  1.2276
  167MOL    H5330265   3.140   2.053   5.082  0.7739 -1.3000 -1.2032
  167MOL    H5430266   2.976   2.020   5.087 -1.6612 -2.0672  0.5501
  167MOL    H5530267   3.087   1.893   5.030 -3.1223 -0.5898 -0.6926
  167MOL    C5630268   3.329   2.105   4.659 -0.0246  0.1227  0.7333
  167MOL    C5730269   3.451   2.196   4.685  0.6120 -0.9478  0.7170
  167MOL    C5830270   3.251   2.148   4.533  0.4828 -0.2620 -0.5866
  167MOL    O5930271   3.200   2.260   4.521 -0.6576 -0.1678 -0.2933
  167MOL    O6030272   3.253   2.056   4.444 -0.1038  0.4903  1.2421
  167MOL    H6130273   3.364   2.003   4.649 -0.2189  0.3048 -2.0512
  167MOL    H6230274   3.530   2.153   4.747  3.2643  0.5203 -1.5081
  167MOL    H6330275   3.504   2.215   4.591 -0.4877 -0.2299  0.2407
  167MOL    H6430276   3.420   2.295   4.717  0.3744 -0.1353 -1.8721
  167MOL    C6530277   3.152   2.054   4.343 -0.5359 -0.1238 -0.0111
  167MOL    C6630278   3.066   1.935   4.369 -0.4419  0.3878  0.8420
  167MOL    C6730279   3.211   2.068   4.200 -0.4947 -0.1645  0.5531
  167MOL    O6830280   3.162   2.013   4.099 -0.4875  0.2058 -0.1741
  167MOL    O6930281   3.326   2.128   4.193  0.0575  0.4357  0.2376
  167MOL    H7030282   3.082   2.137   4.357  0.6048  0.9284 -0.4167
  167MOL    H7130283   3.038   1.933   4.474 -0.0443  3.5859  1.0792
  167MOL    H7230284   2.979   1.937   4.303 -0.2794  0.4623  0.6299
  167MOL    H7330285   3.124   1.845   4.351 -1.6625  0.2704 -3.1253
  167MOL    C7430286   3.369   2.175   4.065 -0.1259 -0.5945  0.3153
  167MOL    C7530287   3.427   2.065   3.976  0.2530  0.0552 -0.2517
  167MOL    C7630288   3.486   2.275   4.078  0.8937  0.0234  0.3640
  167MOL    O7730289   3.498   2.380   4.013 -0.1523  0.0335  0.0914
  167MOL    O7830290   3.578   2.226   4.165 -0.4437  0.2639 -0.4991
  167MOL    H7930291   3.288   2.237   4.025 -1.6139 -1.7325  1.5156
  167MOL    H8030292   3.497   1.996   4.025 -0.2833 -0.7165 -0.5653
  167MOL    H8130293   3.343   2.007   3.938  0.2818  1.2157 -2.1234
  167MOL    H8230294   3.481   2.104   3.890  2.2507  1.6757  1.6580
  167MOL    C8330295   3.694   2.300   4.201  0.5054  0.1298 -0.4167
  167MOL    C8430296   3.781   2.219   4.295  1.0262 -0.0077 -0.2347
  167MOL    C8530297   3.658   2.441   4.256  0.2372  0.0742 -1.5514
  167MOL    O8630298   3.699   2.544   4.199  0.5392  0.3809 -0.0510
  167MOL    O8730299   3.574   2.441   4.363 -0.5612  0.6216 -0.0698
  167MOL    H8830300   3.747   2.328   4.110  1.3953  0.7788  0.2796
  167MOL    H8930301   3.874   2.270   4.321  0.3365  1.1827 -0.0844
  167MOL    H9030302   3.735   2.191   4.389  2.2311 -0.0757  0.3474
  167MOL    H9130303   3.814   2.129   4.243 -0.9136 -0.4605 -0.7130
  167MOL    C9230304   3.531   2.567   4.420  0.9184  0.0018  0.1884
  167MOL    C9330305   3.456   2.526   4.544  0.1732  1.0053  0.3151
  167MOL    C9430306   3.421   2.623   4.329  0.6627 -0.3576  0.1649
  167MOL    O9530307   3.431   2.744   4.296 -0.2991  0.3408 -0.1504
  167MOL    O9630308   3.316   2.538   4.297 -0.4623 -0.0696  0.0750
  167MOL    H9730309   3.610   2.639   4.438  0.8854  0.8347 -2.7111
  167MOL    H9830310   3.535   2.494   4.612  2.2946  1.9665 -1.6347
  167MOL    H9930311   3.401   2.607   4.592  1.3300  1.7740  0.3599
  167MOL   H10030312   3.383   2.446   4.531  0.4104  0.8510 -0.0737
  167MOL   C10130313   3.209   2.584   4.220 -0.3467 -0.5819  0.1527
  167MOL   C10230314   3.087   2.490   4.238  0.7842  0.5924  0.6009
  167MOL   C10330315   3.248   2.598   4.066  0.4962  0.0495  0.1988
  167MOL   O10430316   3.219   2.516   3.982 -0.2004 -0.4070 -1.0210
  167MOL   O10530317   3.325   2.708   4.050  0.0453  0.0842 -0.9503
  167MOL   H10630318   3.176   2.681   4.258  1.4808  0.6979 -1.4635
  167MOL   H10730319   3.012   2.525   4.167  0.4306  0.0567  0.6989
  167MOL   H10830320   3.114   2.388   4.210 -1.1131 -0.0282  0.9074
  167MOL   H10930321   3.034   2.488   4.333 -0.4414  0.7425 -0.0719
  167MOL   C11030322   3.400   2.726   3.928  0.3868  0.8318 -0.3279
  167MOL   C11130323   3.536   2.788   3.962 -0.3202  0.5148 -1.1156
  167MOL   C11230324   3.320   2.814   3.833  0.4871  0.5828 -0.2277
  167MOL   O11330325   3.250   2.905   3.872 -0.1714  0.5029  0.6799
  167MOL   O11430326   3.337   2.775   3.700 -0.3990  0.4489  0.2264
  167MOL   H11530327   3.421   2.629   3.884  0.2792  0.2103  0.9468
  167MOL   H11630328   3.577   2.818   3.865 -1.1375  1.0840 -1.2927
  167MOL   H11730329   3.541   2.869   4.036  0.1458 -0.8477  0.3725
  167MOL   H11830330   3.603   2.709   3.997 -0.2126  1.2616  0.4059
  167MOL   C11930331   3.277   2.854   3.592  0.4206  1.1589  0.7567
  167MOL   C12030332   3.160   2.768   3.531 -0.6701 -0.1529 -0.4527
  167MOL   C12130333   3.386   2.887   3.486 -0.0612  0.5318 -0.7376
  167MOL   O12230334   3.372   2.867   3.367  0.2616  0.8345 -0.7730
  167MOL   O12330335   3.493   2.945   3.542  0.0601  0.2719  0.3381
  167MOL   H12430336   3.235   2.948   3.627 -1.2990  0.9317 -0.6168
  167MOL   H12530337   3.194   2.680   3.477  2.4432 -0.3372  1.6986
  167MOL   H12630338   3.085   2.740   3.605 -0.8544 -0.8098 -0.8827
  167MOL   H12730339   3.121   2.836   3.454  0.5966  0.6694 -0.3823
  167MOL   C12830340   3.592   3.006   3.459  0.5198  0.1046 -0.0464
  167MOL   C12930341   3.699   3.053   3.561 -0.7509  0.1817 -0.2741
  167MOL   C13030342   3.530   3.131   3.387 -0.2385 -0.7459 -0.6092
  167MOL   O13130343   3.559   3.163   3.272 -0.3693  0.4050  0.0121
  167MOL   O13230344   3.445   3.204   3.458 -0.3205 -0.0320 -0.5824
  167MOL   H13330345   3.636   2.940   3.385 -0.0563 -1.0539  0.6283
  167MOL   H13430346   3.725   2.982   3.639 -0.1733  0.6819 -0.0078
  167MOL   H13530347   3.785   3.095   3.508 -0.2424 -0.5618 -0.0373
  167MOL   H13630348   3.655   3.137   3.616 -2.3880 -0.8556  0.0256
  167MOL   C13730349   3.368   3.316   3.414  0.0936  0.2568 -0.1965
  167MOL   C13830350   3.412   3.432   3.513  0.1677  0.1795  0.3212
  167MOL   C13930351   3.220   3.283   3.406  0.4653 -0.1932  0.2915
  167MOL   O14030352   3.183   3.169   3.429  0.4571 -0.6890  0.0290
  167MOL   O14130353   3.134   3.381   3.370 -0.1458 -0.2722  0.0455
  167MOL   H14230354   3.388   3.343   3.310  0.7614 -0.0351 -0.1452
  167MOL   H14330355   3.519   3.451   3.516 -0.1260  1.7064  1.4523
  167MOL   H14430356   3.384   3.528   3.470  1.3478 -0.5075 -2.0603
  167MOL   H14530357   3.364   3.438   3.611  0.2558 -2.7105  0.5933
  167MOL   C14630358   2.999   3.343   3.336  0.0711  0.1427  0.2464
  167MOL   C14730359   2.942   3.440   3.230  1.0832  0.0173  0.0119
  167MOL   C14830360   2.913   3.342   3.461  0.5610 -0.0400 -0.7684
  167MOL   O14930361   2.824   3.429   3.477  0.0964 -0.2833 -0.2544
  167MOL   O15030362   2.934   3.224   3.539 -0.4673 -0.1202  0.1525
  167MOL   H15130363   2.980   3.241   3.300 -1.1058  0.9307 -1.4509
  167MOL   H15230364   2.834   3.427   3.227  1.2166 -0.8590 -1.5229
  167MOL   H15330365   2.957   3.542   3.263  0.7915 -0.4997  1.7774
  167MOL   H15430366   3.003   3.420   3.142  0.5505 -1.5334 -0.0322
  167MOL   C15530367   2.837   3.169   3.621 -0.2587  0.0921  0.0922
  167MOL   C15630368   2.891   3.064   3.713 -0.0279  0.0322 -0.7800
  167MOL   C15730369   2.714   3.119   3.544  0.6652  0.2688  0.4985
  167MOL   O15830370   2.602   3.149   3.578 -0.0157  0.0636 -0.2318
  167MOL   O15930371   2.749   3.050   3.436  0.2365 -0.2948 -0.3705
  167MOL   H16030372   2.801   3.248   3.688  0.4962 -0.2796  0.9447
  167MOL   H16130373   2.919   3.103   3.810 -0.5616  1.0239 -1.0221
  167MOL   H16230374   2.813   2.992   3.736  0.2428 -0.2298 -0.6708
  167MOL   H16330375   2.979   3.022   3.663 -0.1357 -2.6620  1.1822
  167MOL   C16430376   2.655   3.005   3.336 -0.4039 -0.0465  0.0235
  167MOL   C16530377   2.735   2.957   3.218  1.1266  0.0809  0.3409
  167MOL   C16630378   2.555   3.113   3.294  0.6168 -0.3401  0.1412
  167MOL   O16730379   2.435   3.086   3.314  0.4057  0.0451 -0.0218
  167MOL   O16830380   2.600   3.214   3.236  0.2309 -0.4103 -0.2150
  167MOL   H16930381   2.598   2.918   3.367  0.5169 -0.8468 -0.5189
  167MOL   H17030382   2.785   2.867   3.251 -1.6444 -1.4016  0.6624
  167MOL   H17130383   2.675   2.945   3.128  1.2367  2.6395 -0.1136
  167MOL   H17230384   2.816   3.027   3.195  1.1268  0.4592  1.4620
  167MOL   C17330385   2.511   3.315   3.184  0.6585 -0.0086 -0.0209
  167MOL   C17430386   2.555   3.348   3.041 -0.1125 -0.5870  0.1525
  167MOL   C17530387   2.519   3.436   3.273  0.3838 -0.9452 -0.3362
  167MOL   O17630388   2.549   3.546   3.229  0.5702 -0.5497 -0.7752
  167MOL   O17730389   2.486   3.408   3.403 -0.8273  0.5547  0.0103
  167MOL   H17830390   2.410   3.275   3.189  0.7986 -0.3468  0.1745
  167MOL   H17930391   2.537   3.265   2.972  0.8368 -2.3666  2.0156
  167MOL   H18030392   2.501   3.431   2.996 -0.2022 -0.0970  1.1503
  167MOL   H18130393   2.660   3.375   3.027  0.2174 -1.9212  0.0433
  167MOL   H18230394   2.487   3.486   3.458  1.6782  1.3314 -1.0848
  168MOL     C130395   0.481   6.023   2.083  0.3000  0.5548 -0.7210
  168MOL     C230396   0.471   6.174   2.063 -0.1225  0.1251  1.0609
  168MOL     C330397   0.352   5.948   2.120 -0.1280 -0.9260  0.2855
  168MOL     O430398   0.299   5.881   2.033 -0.3267 -0.0980  0.3786
  168MOL     O530399   0.304   5.964   2.244 -0.0496 -0.1825 -0.2653
  168MOL     H630400   0.539   5.982   2.000  3.4453  1.5036  0.9364
  168MOL     H730401   0.450   6.221   2.159  0.8307 -1.1209  1.9079
  168MOL     H830402   0.564   6.225   2.036 -1.1346  1.0594 -0.7793
  168MOL     H930403   0.407   6.194   1.977 -0.2180 -0.4340  0.9997
  168MOL    H1030404   0.541   6.017   2.173 -2.5303  0.4505  1.2115
  168MOL    C1130405   0.186   5.907   2.284  0.0171  0.0621 -0.2757
  168MOL    C1230406   0.115   5.988   2.395 -0.1863 -0.2225  0.3672
  168MOL    C1330407   0.196   5.755   2.323  0.2765 -0.4129 -0.0755
  168MOL    O1430408   0.293   5.682   2.309 -0.0387  0.1227  0.0818
  168MOL    O1530409   0.077   5.715   2.378 -0.2147 -0.3875 -0.2509
  168MOL    H1630410   0.121   5.914   2.196  1.0019 -0.9394 -1.0979
  168MOL    H1730411   0.012   5.953   2.398  0.3706 -2.1678 -1.5576
  168MOL    H1830412   0.161   5.979   2.493  0.7208  0.0890 -0.0198
  168MOL    H1930413   0.109   6.094   2.368 -0.0680 -0.6311 -1.3602
  168MOL    C2030414   0.051   5.588   2.437 -0.4105  0.4249 -0.1764
  168MOL    C2130415   8.061   5.587   2.503  0.4566 -0.3473  0.2252
  168MOL    C2230416   0.161   5.545   2.541 -0.4654 -0.0009 -1.1075
  168MOL    O2330417   0.227   5.625   2.611 -0.2540  0.2591  0.6743
  168MOL    O2430418   0.159   5.409   2.556 -0.0410 -0.0718  0.0590
  168MOL    H2530419   0.055   5.511   2.360 -2.4560 -0.0711  0.1833
  168MOL    H2630420   8.032   5.495   2.555 -3.4411  1.3628  1.2370
  168MOL    H2730421   8.050   5.662   2.581  3.5008 -0.3993  0.7586
  168MOL    H2830422   7.990   5.599   2.422  0.8004  1.3090  0.1656
  168MOL    C2930423   0.250   5.337   2.634 -0.1635  0.1644  0.4164
  168MOL    C3030424   0.189   5.195   2.632  0.6778 -0.3241 -0.5728
  168MOL    C3130425   0.261   5.394   2.777 -0.1993 -0.6129  0.3757
  168MOL    O3230426   0.372   5.420   2.823  0.4702 -0.2876 -0.1511
  168MOL    O3330427   0.147   5.402   2.848  0.2441  0.2417  0.0390
  168MOL    H3430428   0.347   5.329   2.587  0.7229 -0.1363  2.2285
  168MOL    H3530429   0.255   5.128   2.688  0.4963  1.1392  1.4809
  168MOL    H3630430   0.093   5.196   2.684  1.8414  1.4716  1.6586
  168MOL    H3730431   0.183   5.162   2.529 -0.7785  1.6591 -1.1575
  168MOL    C3830432   0.145   5.466   2.968 -0.0584 -0.0366 -0.0969
  168MOL    C3930433   0.171   5.615   2.954 -0.1738  0.3823 -0.8170
  168MOL    C4030434   0.218   5.394   3.083 -0.1429 -0.1626  0.0320
  168MOL    O4130435   0.179   5.297   3.132  0.4504 -0.0248 -0.2092
  168MOL    O4230436   0.328   5.456   3.119  0.3197 -0.2461 -0.5551
  168MOL    H4330437   0.040   5.460   2.998  0.4337 -1.5485  1.3930
  168MOL    H4430438   0.117   5.654   2.867 -2.8614 -0.1245  0.5811
  168MOL    H4530439   0.132   5.680   3.032  0.4229 -1.6792  1.2654
  168MOL    H4630440   0.274   5.642   2.935 -1.2224  4.0111 -1.7466
  168MOL    C4730441   0.414   5.403   3.221  0.3131 -0.0102  0.4370
  168MOL    C4830442   0.507   5.515   3.281 -0.6063  0.2978 -0.3476
  168MOL    C4930443   0.495   5.284   3.164  0.1720 -0.6137  0.7764
  168MOL    O5030444   0.535   5.187   3.234  0.4383 -0.2990 -0.1763
  168MOL    O5130445   0.552   5.311   3.033  0.6108  0.1474 -0.0264
  168MOL    H5230446   0.353   5.367   3.304 -0.2710  1.3594  0.6214
  168MOL    H5330447   0.579   5.462   3.344  2.4354  1.3241 -2.8360
  168MOL    H5430448   0.553   5.578   3.205  0.9703 -0.2201  0.1480
  168MOL    H5530449   0.454   5.590   3.340  0.0315 -0.3106  1.0309
  168MOL    C5630450   0.624   5.211   2.967 -0.1482  0.3890  0.6207
  168MOL    C5730451   0.689   5.284   2.850  0.6803 -0.3980 -0.6035
  168MOL    C5830452   0.532   5.101   2.911 -0.1160  0.4064  0.0814
  168MOL    O5930453   0.412   5.103   2.932  0.5548 -0.6337 -0.1403
  168MOL    O6030454   0.600   5.009   2.840 -0.5044  0.3290  0.7181
  168MOL    H6130455   0.694   5.165   3.037  1.1102  1.1162 -0.1327
  168MOL    H6230456   0.747   5.369   2.885  1.1951 -1.1843  0.4769
  168MOL    H6330457   0.757   5.231   2.783  1.4641  0.4854 -0.5178
  168MOL    H6430458   0.622   5.339   2.784  0.5154  0.5331  0.3243
  168MOL    C6530459   0.528   4.903   2.769 -0.0739  0.2385  1.1980
  168MOL    C6630460   0.606   4.777   2.741  0.0286 -1.0074  0.5414
  168MOL    C6730461   0.470   4.950   2.632 -0.0667  0.3551  0.5359
  168MOL    O6830462   0.512   5.049   2.580 -0.1068 -0.0582 -0.2314
  168MOL    O6930463   0.373   4.869   2.573  0.0760  0.3650  0.6097
  168MOL    H7030464   0.439   4.877   2.825 -1.3609 -0.4118 -1.1166
  168MOL    H7130465   0.707   4.794   2.706  0.6702 -4.4420  0.5598
  168MOL    H7230466   0.629   4.718   2.830 -1.1139 -0.6562  1.0863
  168MOL    H7330467   0.548   4.725   2.665 -0.1506  0.4569 -0.3546
  168MOL    C7430468   0.338   4.880   2.435  0.0270 -0.3031  0.2952
  168MOL    C7530469   0.216   4.790   2.409 -0.5772  0.0194 -0.0908
  168MOL    C7630470   0.459   4.861   2.340  0.5359 -0.5454 -0.3280
  168MOL    O7730471   0.461   4.922   2.232  0.0206 -0.0977  0.1581
  168MOL    O7830472   0.536   4.760   2.378 -0.6418  0.1934  0.2476
  168MOL    H7930473   0.297   4.980   2.417 -0.4694 -0.4645  0.5047
  168MOL    H8030474   0.164   4.832   2.323  1.4810  1.7319 -0.5208
  168MOL    H8130475   0.252   4.690   2.383  3.0846  1.4021 -0.5326
  168MOL    H8230476   0.141   4.780   2.487 -2.9207  0.3502 -2.2180
  168MOL    C8330477   0.644   4.722   2.296  0.1175 -0.5611 -0.2699
  168MOL    C8430478   0.687   4.583   2.348  0.4523 -0.0437 -0.0895
  168MOL    C8530479   0.764   4.822   2.292 -0.2905  0.4241 -0.9919
  168MOL    O8630480   0.844   4.827   2.198  0.8690  0.0604  0.3764
  168MOL    O8730481   0.760   4.908   2.396  0.2624  0.1734  0.1449
  168MOL    H8830482   0.603   4.717   2.195 -2.1042  0.4058  0.5573
  168MOL    H8930483   0.729   4.594   2.448  0.9385 -0.4766 -0.2454
  168MOL    H9030484   0.603   4.514   2.341  0.6400 -0.5870  2.3480
  168MOL    H9130485   0.773   4.545   2.293  0.5072 -0.9042  0.5653
  168MOL    C9230486   0.852   5.017   2.412 -0.6237  0.1998  0.1536
  168MOL    C9330487   0.870   5.038   2.562 -0.4927 -0.0678 -0.5035
  168MOL    C9430488   0.801   5.141   2.344  0.5976  0.0349 -0.1870
  168MOL    O9530489   0.684   5.157   2.309 -0.0805 -0.3438 -0.4541
  168MOL    O9630490   0.903   5.231   2.318 -0.1681  0.1652  0.1569
  168MOL    H9730491   0.951   5.000   2.372 -0.9024  1.5018 -1.1141
  168MOL    H9830492   0.963   5.092   2.578  0.5802 -2.6871  2.6823
  168MOL    H9930493   0.791   5.083   2.623  0.1904  0.2805  0.1341
  168MOL   H10030494   0.897   4.942   2.607  1.6875  0.5492 -0.4352
  168MOL   C10130495   0.884   5.347   2.237 -0.4454  0.4620 -0.2257
  168MOL   C10230496   1.001   5.371   2.136 -0.6406  0.2292 -0.9107
  168MOL   C10330497   0.867   5.473   2.327  0.4741 -0.1000  0.2908
  168MOL   O10430498   0.954   5.560   2.330  0.4661 -0.6114  0.0121
  168MOL   O10530499   0.739   5.480   2.382 -0.7446 -0.2989 -0.0228
  168MOL   H10630500   0.792   5.340   2.180 -0.3672 -0.1404 -0.2825
  168MOL   H10730501   1.000   5.293   2.060  0.0289  0.4032 -1.1091
  168MOL   H10830502   0.979   5.467   2.089 -1.6567  0.5275  0.1700
  168MOL   H10930503   1.092   5.371   2.196 -1.5671  0.8350  0.5172
  168MOL   C11030504   0.680   5.600   2.424  0.2800  0.5578 -0.8570
  168MOL   C11130505   0.560   5.584   2.515 -0.7338 -0.2075  0.4267
  168MOL   C11230506   0.643   5.673   2.296 -0.0587 -0.2927  0.1108
  168MOL   O11330507   0.668   5.793   2.277  0.0575  0.2537 -0.9778
  168MOL   O11430508   0.584   5.585   2.211 -0.8658 -0.0851 -0.3119
  168MOL   H11530509   0.747   5.659   2.486 -0.4973 -0.8312  1.3812
  168MOL   H11630510   0.592   5.520   2.597 -0.2449 -1.4539 -0.7032
  168MOL   H11730511   0.529   5.680   2.555  1.4225  1.5883 -1.9772
  168MOL   H11830512   0.480   5.528   2.467  0.1254 -0.7291 -0.4277
  168MOL   C11930513   0.564   5.604   2.073 -0.3742  0.3041  0.3193
  168MOL   C12030514   0.498   5.476   2.013  0.1532  0.1539  0.5430
  168MOL   C12130515   0.690   5.635   2.007 -0.1211  0.1701 -0.0472
  168MOL   O12230516   0.767   5.539   1.988  0.0701 -0.0566 -0.4992
  168MOL   O12330517   0.724   5.767   1.997  0.4121 -0.2066  0.3241
  168MOL   H12430518   0.491   5.684   2.060 -0.0956  0.3213 -1.2661
  168MOL   H12530519   0.565   5.390   2.017  0.8295  0.7130  1.4293
  168MOL   H12630520   0.405   5.452   2.064  1.5966 -2.0608  2.2664
  168MOL   H12730521   0.471   5.504   1.911  0.9276  1.0007  0.5666
  168MOL   C12830522   0.839   5.811   1.928  0.2458  0.6373  0.0921
  168MOL   C12930523   0.917   5.910   2.014  0.5107 -0.0796 -0.0019
  168MOL   C13030524   0.787   5.871   1.794 -0.1402  0.3377 -0.2572
  168MOL   O13130525   0.677   5.839   1.748 -0.2366  0.5422  0.3935
  168MOL   O13230526   0.873   5.948   1.736  0.5301  0.3810  0.6608
  168MOL   H13330527   0.903   5.724   1.911 -2.1220 -0.7362 -2.2082
  168MOL   H13430528   0.980   5.976   1.954 -0.2640  2.2541  1.6910
  168MOL   H13530529   0.841   5.964   2.070  0.1047 -1.3960  0.7262
  168MOL   H13630530   0.980   5.856   2.084  0.0758 -1.5463 -0.7148
  168MOL   C13730531   0.836   6.032   1.625 -0.2238 -0.3136 -0.5162
  168MOL   C13830532   0.904   5.985   1.496  0.0892  0.4273 -0.3928
  168MOL   C13930533   0.877   6.179   1.657  0.3414 -0.2114 -0.5892
  168MOL   O14030534   0.960   6.245   1.602  0.2878 -0.3009  0.6732
  168MOL   O14130535   0.809   6.227   1.769 -0.3283  0.2516 -0.1987
  168MOL   H14230536   0.729   6.046   1.609 -0.6031 -1.3461  0.9780
  168MOL   H14330537   0.903   5.876   1.489 -0.0225  0.4847 -1.2508
  168MOL   H14430538   0.842   6.035   1.422 -1.0587 -1.5756 -0.8164
  168MOL   H14530539   1.005   6.018   1.473 -0.2199  1.2081 -0.6462
  168MOL   C14630540   0.833   6.359   1.807 -0.8043 -0.2321 -0.0238
  168MOL   C14730541   0.817   6.384   1.959  0.7746 -0.3375 -0.4016
  168MOL   C14830542   0.738   6.443   1.719  0.8076 -0.6143 -0.3262
  168MOL   O14930543   0.633   6.396   1.674 -0.3546  0.0429  0.1988
  168MOL   O15030544   0.777   6.571   1.691  0.3943  0.2436  0.2074
  168MOL   H15130545   0.936   6.385   1.787 -0.7196 -1.3416 -1.0887
  168MOL   H15230546   0.711   6.382   1.985  0.7660 -2.0937 -0.5326
  168MOL   H15330547   0.871   6.313   2.021 -1.3177 -1.1910  0.4749
  168MOL   H15430548   0.861   6.480   1.988 -2.6733  0.8618  1.1959
  168MOL   C15530549   0.692   6.661   1.623  0.4936  0.2469  0.6564
  168MOL   C15630550   0.751   6.799   1.624  0.4780  0.5867  0.0655
  168MOL   C15730551   0.541   6.667   1.672 -0.1719 -0.0405 -0.7677
  168MOL   O15830552   0.455   6.677   1.583 -0.0019  0.0048  0.1745
  168MOL   O15930553   0.526   6.653   1.809  0.0020  0.7632 -0.3263
  168MOL   H16030554   0.682   6.637   1.518  3.0685 -1.1962  0.7087
  168MOL   H16130555   0.677   6.872   1.590  1.5910  1.2175 -1.0567
  168MOL   H16230556   0.764   6.827   1.728 -1.8179  1.6694  0.1044
  168MOL   H16330557   0.832   6.826   1.556  0.4946 -0.6578 -0.4271
  168MOL   C16430558   0.402   6.660   1.883 -0.4205  0.2134 -0.0031
  168MOL   C16530559   0.324   6.525   1.883  0.1203  0.5691 -0.1618
  168MOL   C16630560   0.308   6.775   1.827  0.6804  0.0318 -0.3562
  168MOL   O16730561   0.190   6.749   1.799  0.1564 -0.3149 -0.0473
  168MOL   O16830562   0.373   6.897   1.817 -0.1113  0.0623 -0.6051
  168MOL   H16930563   0.430   6.682   1.986  1.4603  0.3114 -0.5129
  168MOL   H17030564   0.227   6.524   1.933 -0.2876 -0.2771 -0.9447
  168MOL   H17130565   0.301   6.493   1.781 -4.1095  3.4963 -0.2599
  168MOL   H17230566   0.385   6.447   1.930 -0.1096 -1.2095 -2.7102
  168MOL   C17330567   0.292   7.006   1.784  0.1351  0.2765  0.8624
  168MOL   C17430568   0.356   7.064   1.653  0.3953 -0.0448  0.6641
  168MOL   C17530569   0.300   7.107   1.902 -0.1287  0.0632  0.4194
  168MOL   O17630570   0.202   7.123   1.968  0.4662 -0.2779 -0.2815
  168MOL   O17730571   0.422   7.169   1.927  0.4003  0.3228  0.1401
  168MOL   H17830572   0.189   6.969   1.777 -0.0548  1.0079 -0.3577
  168MOL   H17930573   0.459   7.090   1.677  0.3733  0.7338 -0.0796
  168MOL   H18030574   0.355   6.988   1.574 -4.0733  0.3651  0.2063
  168MOL   H18130575   0.310   7.156   1.617 -0.6934 -1.4762 -1.6999
  168MOL   H18230576   0.418   7.241   1.988  1.5780  1.1362 -0.6944
  169MOL     C130577   7.390   2.934   4.075  0.1551  0.3047  0.6952
  169MOL     C230578   7.446   3.075   4.043  0.1683 -0.3183  0.1735
  169MOL     C330579   7.435   2.876   4.206 -0.3152  0.1025 -0.2085
  169MOL     O430580   7.545   2.901   4.253  0.0224  0.1694  0.5331
  169MOL     O530581   7.342   2.790   4.254 -0.8891 -0.2525 -0.3710
  169MOL     H630582   7.282   2.943   4.087 -0.1414  0.5599 -1.9085
  169MOL     H730583   7.555   3.070   4.036  0.3503  3.4811 -0.7746
  169MOL     H830584   7.411   3.101   3.943 -2.0571 -0.1956  0.9723
  169MOL     H930585   7.407   3.150   4.112  2.0179  1.3504 -0.5177
  169MOL    H1030586   7.415   2.869   3.991  1.1584  0.6240  0.7327
  169MOL    C1130587   7.364   2.721   4.379 -0.4156  0.8048  0.6508
  169MOL    C1230588   7.257   2.616   4.412  0.7398  0.4056 -0.2123
  169MOL    C1330589   7.368   2.827   4.496  0.1170 -0.0590  1.0110
  169MOL    O1430590   7.286   2.921   4.514  0.3697 -0.3337  0.2413
  169MOL    O1530591   7.463   2.798   4.581  0.5780 -0.1624 -0.2885
  169MOL    H1630592   7.460   2.670   4.389  0.1170  1.5772 -0.3988
  169MOL    H1730593   7.157   2.660   4.415  1.3391  1.8363 -0.8975
  169MOL    H1830594   7.262   2.528   4.347 -0.2991  0.2041 -0.0283
  169MOL    H1930595   7.277   2.574   4.510 -1.0322 -0.4851 -0.2035
  169MOL    C2030596   7.479   2.861   4.712 -0.3457 -0.4310 -0.0704
  169MOL    C2130597   7.617   2.813   4.758  0.3519  0.3138 -0.5097
  169MOL    C2230598   7.359   2.816   4.806  0.4587  0.1117 -0.2973
  169MOL    O2330599   7.282   2.723   4.769  0.5169 -0.6631  0.3533
  169MOL    O2430600   7.354   2.870   4.925  0.2213 -0.1952 -0.1185
  169MOL    H2530601   7.480   2.970   4.704 -0.3595 -0.5489 -1.8877
  169MOL    H2630602   7.630   2.705   4.767  1.3681  0.5302  0.9578
  169MOL    H2730603   7.694   2.847   4.688  1.0941 -0.5051 -0.1030
  169MOL    H2830604   7.642   2.859   4.854  0.7786 -0.1064 -0.4214
  169MOL    C2930605   7.269   2.830   5.033 -0.0490  0.6185 -0.8904
  169MOL    C3030606   7.314   2.909   5.161 -0.0770  0.9652  0.5997
  169MOL    C3130607   7.294   2.675   5.071 -0.4745  0.1456 -0.0548
  169MOL    O3230608   7.208   2.587   5.075 -0.0850 -0.0931 -0.1714
  169MOL    O3330609   7.418   2.663   5.097 -0.0999  0.9192  0.6722
  169MOL    H3430610   7.169   2.856   4.998  0.5046  0.9342 -2.2695
  169MOL    H3530611   7.285   3.013   5.149 -0.6448  0.7642  0.1496
  169MOL    H3630612   7.265   2.860   5.245  0.5033 -0.5706  0.0719
  169MOL    H3730613   7.420   2.889   5.177 -0.5170 -0.1052  2.2581
  169MOL    C3830614   7.465   2.529   5.113 -0.3103 -0.0611  0.5923
  169MOL    C3930615   7.439   2.492   5.261 -0.2878 -0.7717 -0.1330
  169MOL    C4030616   7.612   2.516   5.073 -0.9388 -0.3890  0.2364
  169MOL    O4130617   7.661   2.415   5.031 -0.4648  0.1780 -0.1384
  169MOL    O4230618   7.681   2.624   5.100  0.0029 -1.0122  0.7326
  169MOL    H4330619   7.416   2.459   5.046  2.7377 -1.1555 -0.5937
  169MOL    H4430620   7.337   2.460   5.281 -0.6552  0.0876 -0.5953
  169MOL    H4530621   7.513   2.412   5.270 -0.0436 -1.0670 -3.9987
  169MOL    H4630622   7.467   2.559   5.342 -0.5284 -1.1208  0.2410
  169MOL    C4730623   7.825   2.634   5.093 -0.6997 -0.8018 -0.6047
  169MOL    C4830624   7.856   2.757   5.189  0.5232  0.5241 -0.0074
  169MOL    C4930625   7.877   2.660   4.943 -0.0013  0.0909  0.2962
  169MOL    O5030626   7.896   2.773   4.896 -0.5015  0.4465 -0.7837
  169MOL    O5130627   7.863   2.546   4.870 -0.4517 -0.3086  0.7503
  169MOL    H5230628   7.876   2.546   5.131 -3.1493 -1.5980  0.9451
  169MOL    H5330629   7.958   2.796   5.190  0.6478  0.2550  3.6756
  169MOL    H5430630   7.795   2.842   5.162 -0.5845  0.1168  1.1941
  169MOL    H5530631   7.838   2.725   5.291 -2.4570  0.2717 -0.5832
  169MOL    C5630632   7.910   2.546   4.734  0.5157  0.4467 -0.3530
  169MOL    C5730633   7.855   2.425   4.668  0.6792 -0.3065  0.6978
  169MOL    C5830634   8.065   2.567   4.721  0.3566  0.3793 -0.2833
  169MOL    O5930635   8.136   2.546   4.817  0.2401  0.0264  0.0225
  169MOL    O6030636   8.102   2.591   4.602 -1.0964  0.2116 -0.1725
  169MOL    H6130637   7.876   2.636   4.681  0.1314  0.8455  0.5707
  169MOL    H6230638   7.899   2.409   4.569  0.1297 -0.4937  0.4825
  169MOL    H6330639   7.875   2.335   4.726 -3.2569 -1.0201  1.0682
  169MOL    H6430640   7.748   2.432   4.653  0.8016  0.9124  0.3526
  169MOL    C6530641   0.093   2.625   4.569 -0.6746 -0.4874 -0.2338
  169MOL    C6630642   0.091   2.650   4.412  0.3518 -0.8339  0.4223
  169MOL    C6730643   0.184   2.506   4.585  0.1531 -0.8489 -0.3727
  169MOL    O6830644   0.306   2.528   4.596 -0.6372 -0.0209  0.8008
  169MOL    O6930645   0.122   2.385   4.566  0.9688 -0.1081  0.4045
  169MOL    H7030646   0.121   2.711   4.629  0.2130 -2.5152  2.3896
  169MOL    H7130647   0.009   2.714   4.382  2.2124  1.0582 -0.8303
  169MOL    H7230648   0.186   2.690   4.375  0.3047  1.1035  2.3129
  169MOL    H7330649   0.081   2.558   4.354  0.3793  0.6871 -2.0633
  169MOL    C7430650   0.181   2.260   4.563  0.1084  0.5460 -0.2701
  169MOL    C7530651   0.071   2.143   4.588  0.1587  0.1618 -0.1018
  169MOL    C7630652   0.307   2.235   4.647 -0.2324  0.4322 -0.3821
  169MOL    O7730653   0.418   2.219   4.604  0.4994  0.2374 -0.3636
  169MOL    O7830654   0.288   2.246   4.781  0.2498  0.4547 -0.2750
  169MOL    H7930655   0.220   2.255   4.462 -1.4311  1.2242 -0.9123
  169MOL    H8030656   0.106   2.050   4.632 -1.5856  0.2093  1.4450
  169MOL    H8130657   8.131   2.183   4.640  1.0845 -0.3618  1.8877
  169MOL    H8230658   0.039   2.135   4.484  2.8192  1.0497 -1.0209
  169MOL    C8330659   0.392   2.210   4.876 -1.0088 -0.6605  0.4196
  169MOL    C8430660   0.332   2.172   5.014  0.0911 -0.5601  0.6419
  169MOL    C8530661   0.499   2.321   4.893 -0.4110  0.2169  0.5544
  169MOL    O8630662   0.619   2.310   4.859  0.1832 -0.2291  0.1171
  169MOL    O8730663   0.456   2.435   4.943 -0.5073  0.2846 -0.5836
  169MOL    H8830664   0.446   2.123   4.839 -1.3406 -0.7044  0.0259
  169MOL    H8930665   0.275   2.256   5.054 -0.1706  0.3638 -1.6296
  169MOL    H9030666   0.265   2.087   5.005 -1.6019  0.4378  3.1449
  169MOL    H9130667   0.407   2.140   5.086  0.8574 -2.0878 -0.8009
  169MOL    C9230668   0.547   2.537   4.984  0.1787  0.0140 -0.0665
  169MOL    C9330669   0.460   2.635   5.083  0.4230 -0.2930 -0.0984
  169MOL    C9430670   0.600   2.627   4.865  0.2138 -0.3944  0.2571
  169MOL    O9530671   0.720   2.645   4.856 -0.0759  0.6889 -0.4372
  169MOL    O9630672   0.506   2.688   4.793 -0.0682  0.0737 -0.2639
  169MOL    H9730673   0.626   2.493   5.045 -0.5287  0.5916  1.2931
  169MOL    H9830674   0.364   2.669   5.045  0.5796 -0.0232 -0.2554
  169MOL    H9930675   0.443   2.575   5.173  0.6452  1.0169  0.8265
  169MOL   H10030676   0.522   2.717   5.118 -0.8728  1.0711 -0.9591
  169MOL   C10130677   0.541   2.780   4.686  0.1076  0.3674 -0.3827
  169MOL   C10230678   0.420   2.868   4.667  0.0212 -0.7253  0.0088
  169MOL   C10330679   0.581   2.709   4.554 -0.0027 -0.6312 -0.3061
  169MOL   O10430680   0.596   2.772   4.451  0.0365 -0.2417  0.1111
  169MOL   O10530681   0.580   2.578   4.564 -0.0166  0.1383  0.3645
  169MOL   H10630682   0.623   2.844   4.718  1.2009 -1.0541 -0.2975
  169MOL   H10730683   0.448   2.943   4.593  0.4154  1.3527  2.1869
  169MOL   H10830684   0.327   2.821   4.634 -0.3063 -0.8522  1.0958
  169MOL   H10930685   0.409   2.934   4.753 -0.0050  2.9452 -2.7026
  169MOL   C11030686   0.630   2.494   4.453 -0.3403  0.6654  0.3553
  169MOL   C11130687   0.507   2.450   4.367 -0.6264  0.7208  0.3322
  169MOL   C11230688   0.703   2.368   4.504  0.6382 -0.2183  0.1333
  169MOL   O11330689   0.678   2.259   4.457 -0.3142 -0.3722 -0.4404
  169MOL   O11430690   0.794   2.408   4.592  0.0053  0.3127  0.4448
  169MOL   H11530691   0.701   2.551   4.394  2.2861 -2.5307  0.3163
  169MOL   H11630692   0.553   2.393   4.286  0.5521 -0.4621  1.8289
  169MOL   H11730693   0.456   2.378   4.431  0.1681  0.1656  0.3466
  169MOL   H11830694   0.447   2.528   4.319  0.0541  1.4783  0.7111
  169MOL   C11930695   0.871   2.317   4.661  0.8141 -0.0880  0.3367
  169MOL   C12030696   0.938   2.402   4.774  0.5586 -0.1578 -0.5544
  169MOL   C12130697   0.980   2.253   4.574  0.2864 -0.1676  0.2301
  169MOL   O12230698   0.992   2.129   4.557 -0.0194 -1.0877 -0.0439
  169MOL   O12330699   1.071   2.339   4.527 -0.1894 -0.2089  0.5581
  169MOL   H12430700   0.803   2.240   4.696 -0.1159 -0.9149 -3.0929
  169MOL   H12530701   0.959   2.500   4.730  0.2161 -0.3914 -1.2567
  169MOL   H12630702   0.872   2.418   4.859  0.4956  3.4763 -1.2214
  169MOL   H12730703   1.037   2.371   4.807  0.6525  0.9052  0.1956
  169MOL   C12830704   1.180   2.299   4.440  0.6129  0.4762 -0.1789
  169MOL   C12930705   1.293   2.409   4.468 -0.7734 -0.2996  0.3674
  169MOL   C13030706   1.132   2.303   4.289 -0.4957 -0.1399  0.5365
  169MOL   O13130707   1.159   2.214   4.212  0.5128  0.0757  0.2228
  169MOL   O13230708   1.067   2.415   4.253 -0.5806  0.1835 -0.5401
  169MOL   H13330709   1.218   2.199   4.460  2.3487  1.0518 -0.5315
  169MOL   H13430710   1.365   2.419   4.387 -1.1551  1.6504  0.2598
  169MOL   H13530711   1.234   2.500   4.470  0.1268  0.2559  2.4282
  169MOL   H13630712   1.362   2.411   4.551 -0.5129  2.3039  0.1128
  169MOL   C13730713   1.018   2.437   4.116  0.5778  0.2339 -0.0242
  169MOL   C13830714   0.955   2.566   4.094  0.5795 -0.1025 -0.4845
  169MOL   C13930715   0.920   2.322   4.066  0.2813 -0.2846 -0.3011
  169MOL   O14030716   0.955   2.255   3.970 -0.0889  0.3727  0.0287
  169MOL   O14130717   0.800   2.320   4.127 -0.4058 -0.3169  0.3142
  169MOL   H14230718   1.105   2.433   4.050 -0.3648  3.0810 -1.5423
  169MOL   H14330719   1.035   2.639   4.096 -0.7729  1.4533 -1.7423
  169MOL   H14430720   0.901   2.572   4.000  0.4959  0.2350 -0.4146
  169MOL   H14530721   0.886   2.599   4.172 -1.2927  0.6034 -2.3946
  169MOL   C14630722   0.701   2.228   4.095  0.1630 -1.0443 -0.6823
  169MOL   C14730723   0.736   2.081   4.125  0.0322  0.7252  0.3272
  169MOL   C14830724   0.642   2.239   3.959 -0.4365 -0.2359 -0.1438
  169MOL   O14930725   0.653   2.148   3.877  0.6983 -0.4077 -0.3173
  169MOL   O15030726   0.584   2.365   3.927  0.0551  0.6796 -0.1955
  169MOL   H15130727   0.615   2.235   4.161  0.0783 -1.3923 -0.7542
  169MOL   H15230728   0.746   2.046   4.227 -0.6922 -1.1474 -0.2212
  169MOL   H15330729   0.650   2.019   4.100  0.6256  0.1908 -0.4317
  169MOL   H15430730   0.833   2.048   4.086  0.8521 -1.2515  3.8297
  169MOL   C15530731   0.504   2.375   3.814  0.5941  0.3995  0.0282
  169MOL   C15630732   0.545   2.487   3.718 -0.0491 -0.1350  0.1018
  169MOL   C15730733   0.356   2.380   3.860 -0.1134  0.6659  0.6327
  169MOL   O15830734   0.283   2.299   3.809  0.7964 -0.0191  0.3184
  169MOL   O15930735   0.327   2.475   3.947 -0.2319 -0.0943 -0.2569
  169MOL   H16030736   0.505   2.289   3.746  1.5189 -1.0131  1.7731
  169MOL   H16130737   0.532   2.577   3.778  0.4698 -0.4967  0.7612
  169MOL   H16230738   0.649   2.487   3.689 -0.0465 -1.2054  0.1014
  169MOL   H16330739   0.488   2.495   3.625 -1.0729  0.8691  0.7992
  169MOL   C16430740   0.191   2.490   3.985  0.5607 -0.3911  0.2698
  169MOL   C16530741   0.157   2.632   4.026 -0.1423  0.1491  0.0053
  169MOL   C16630742   0.163   2.382   4.091  0.0118  0.0027  0.0191
  169MOL   O16730743   0.197   2.392   4.206  0.4354 -0.0429 -0.0110
  169MOL   O16830744   0.097   2.272   4.042  0.0309  0.3143 -0.3165
  169MOL   H16930745   0.126   2.469   3.899 -1.1862  1.1167  1.2027
  169MOL   H17030746   0.051   2.639   4.053  0.1478  0.4247  1.1077
  169MOL   H17130747   0.215   2.653   4.116 -0.2290 -1.2967  0.4162
  169MOL   H17230748   0.174   2.707   3.949 -1.2768  0.5194  0.1054
  169MOL   C17330749   0.068   2.155   4.119  0.6337  0.1483 -0.3209
  169MOL   C17430750   0.093   2.036   4.029 -0.2405  0.0254 -0.7964
  169MOL   C17530751   8.064   2.162   4.166  0.3584  0.1874  0.0316
  169MOL   O17630752   7.985   2.072   4.158 -0.4421  0.6823 -0.1483
  169MOL   O17730753   8.042   2.276   4.230  0.6501 -0.2684  0.4028
  169MOL   H17830754   0.135   2.143   4.204 -1.0986  0.3605  1.1058
  169MOL   H17930755   0.195   2.024   3.991  0.5004  1.6502  0.6270
  169MOL   H18030756   0.064   1.946   4.083 -0.0216 -1.0082 -2.3661
  169MOL   H18130757   0.034   2.038   3.937  0.2104  0.1163 -1.0879
  169MOL   H18230758   7.960   2.280   4.278 -0.0601 -0.0436 -0.8022
  170MOL     C130759   3.759   0.145   5.238 -0.2345 -0.0343 -0.1941
  170MOL     C230760   3.679   0.037   5.315 -0.2860  0.2922 -0.2900
  170MOL     C330761   3.894   0.082   5.216 -0.7403  0.0946 -0.4816
  170MOL     O430762   3.923   0.047   5.101  0.0856  0.2088  0.1819
  170MOL     O530763   3.966   0.062   5.327 -0.6950  0.1537  0.0536
  170MOL     H630764   3.708   0.159   5.142  0.8925 -1.5720 -1.0239
  170MOL     H730765   3.575   0.069   5.318 -0.7820 -1.3114  0.1160
  170MOL     H830766   3.672   8.090   5.262  0.8328  0.2474 -0.3646
  170MOL     H930767   3.717   0.014   5.415 -0.4241  0.3761 -0.2181
  170MOL    H1030768   3.767   0.245   5.282  3.1500  0.2964 -1.4700
  170MOL    C1130769   4.068   8.112   5.344 -0.8930  0.5242  0.4078
  170MOL    C1230770   4.001   8.023   5.449 -0.2660 -0.1312 -0.0544
  170MOL    C1330771   4.196   0.027   5.413 -0.1153 -0.3188  0.2316
  170MOL    O1430772   4.210   0.150   5.426 -0.0743  0.2421  0.5590
  170MOL    O1530773   4.282   8.078   5.453  0.3639  0.1506  0.2178
  170MOL    H1630774   4.095   8.061   5.251 -0.0291  0.3540  0.7476
  170MOL    H1730775   3.906   7.989   5.406 -1.5006  1.6594  1.2211
  170MOL    H1830776   4.062   7.935   5.471 -1.7084 -1.0738  0.2681
  170MOL    H1930777   3.997   8.086   5.537  1.4262 -0.6303  0.3833
  170MOL    C2030778   4.410   8.128   5.490 -0.7112  0.5708 -0.4693
  170MOL    C2130779   4.490   7.995   5.512  0.0351  0.3514 -0.0688
  170MOL    C2230780   4.403   0.039   5.630  0.3937  0.1425 -0.2582
  170MOL    O2330781   4.319   0.004   5.713  0.0927 -0.0217 -0.1927
  170MOL    O2430782   4.492   0.139   5.645  0.5787  0.1031  0.5305
  170MOL    H2530783   4.461   0.044   5.418  1.3009 -1.3159 -0.7633
  170MOL    H2630784   4.475   7.939   5.419  0.5015  1.5087 -0.8639
  170MOL    H2730785   4.594   8.011   5.539  1.0988 -0.1376 -3.5863
  170MOL    H2830786   4.444   7.946   5.597 -2.2319  1.9873 -0.2951
  170MOL    C2930787   4.501   0.201   5.769  0.6480  0.3494  0.1117
  170MOL    C3030788   4.544   0.348   5.744 -0.3744 -0.7740 -0.7661
  170MOL    C3130789   4.609   0.130   5.847  0.2737  0.6575 -0.1351
  170MOL    O3230790   4.696   0.194   5.904  0.4218  0.4438  0.1526
  170MOL    O3330791   4.582   8.142   5.858  0.3193  0.0292  0.6370
  170MOL    H3430792   4.411   0.188   5.829  1.4905  1.8697  1.7351
  170MOL    H3530793   4.471   0.404   5.687 -0.0207  0.1869 -0.2788
  170MOL    H3630794   4.576   0.403   5.832 -0.5056  2.0728 -2.4326
  170MOL    H3730795   4.630   0.349   5.676 -1.2036 -1.5778 -1.8407
  170MOL    C3830796   4.650   8.044   5.939  0.7457  0.3501  0.0989
  170MOL    C3930797   4.591   7.902   5.920  1.0918  0.6075  0.0095
  170MOL    C4030798   4.639   8.077   6.087 -0.1660  0.2745 -0.0896
  170MOL    O4130799   4.531   8.121   6.132 -0.6058 -0.7551  0.4373
  170MOL    O4230800   4.750   8.052   6.149 -0.0307 -0.2596 -0.3170
  170MOL    H4330801   4.756   8.039   5.917  0.0781  0.6263 -3.4954
  170MOL    H4430802   4.486   7.908   5.949  1.4760  0.5013  1.4526
  170MOL    H4530803   4.590   7.875   5.815 -1.0786 -0.4362  0.2649
  170MOL    H4630804   4.642   7.826   5.979  3.0308  1.4663 -0.5294
  170MOL    C4730805   4.771   8.080   6.280  0.1267  0.1745  0.5692
  170MOL    C4830806   4.919   8.094   6.306 -0.3985  0.8693 -0.5788
  170MOL    C4930807   4.717   7.958   6.355  0.6010  0.1467  0.1732
  170MOL    O5030808   4.775   7.852   6.376  0.0576  0.1235  0.1848
  170MOL    O5130809   4.582   7.973   6.377 -0.4816  0.4027  0.1222
  170MOL    H5230810   4.734   0.028   6.319  2.0179 -0.1573  3.3747
  170MOL    H5330811   4.974   8.000   6.297 -3.4184 -1.1864  1.6297
  170MOL    H5430812   4.969   0.025   6.248 -1.1091  1.4936 -0.3442
  170MOL    H5530813   4.928   8.122   6.411 -0.8135 -0.5125 -0.1672
  170MOL    C5630814   4.496   7.876   6.438 -0.0467  0.1696  0.9916
  170MOL    C5730815   4.349   7.889   6.409  0.7934  0.3086  0.5033
  170MOL    C5830816   4.526   7.867   6.588  0.2085 -0.3275 -0.2827
  170MOL    O5930817   4.632   7.811   6.630 -0.1884 -0.2436 -0.3736
  170MOL    O6030818   4.427   7.919   6.672  0.1030 -0.2101 -0.0666
  170MOL    H6130819   4.530   7.781   6.398  0.1360  0.0142  1.5149
  170MOL    H6230820   4.318   7.903   6.305  0.6557 -0.6369  0.4129
  170MOL    H6330821   4.291   7.810   6.455 -0.1482 -0.1334 -1.3815
  170MOL    H6430822   4.309   7.976   6.460  3.2318  0.9356  1.3961
  170MOL    C6530823   4.444   7.927   6.809  1.0659  0.0591 -0.6593
  170MOL    C6630824   4.308   7.963   6.869  0.2348 -0.1343  0.2310
  170MOL    C6730825   4.544   8.034   6.851  0.3983  0.6122  0.0774
  170MOL    O6830826   4.629   8.006   6.939  0.0783  0.5525  0.2896
  170MOL    O6930827   4.525   0.009   6.795  0.2115  0.8374  0.0777
  170MOL    H7030828   4.474   7.825   6.837  0.5885  0.2585  0.6312
  170MOL    H7130829   4.221   7.917   6.823  0.5827 -1.5715  0.9639
  170MOL    H7230830   4.317   7.936   6.975 -2.4291  3.0950  1.3498
  170MOL    H7330831   4.287   8.069   6.863 -0.3444 -0.1658  1.5777
  170MOL    C7430832   4.632   0.109   6.810 -0.1157  0.1339  0.2761
  170MOL    C7530833   4.582   0.243   6.764  0.4519 -0.0095 -0.6836
  170MOL    C7630834   4.746   0.074   6.718  0.2643  0.0140  0.0419
  170MOL    O7730835   4.723   0.039   6.604 -0.3967  0.1463  0.3477
  170MOL    O7830836   4.864   0.072   6.780 -0.6391 -0.1488 -0.2167
  170MOL    H7930837   4.665   0.101   6.914 -0.9995  0.7962  0.6084
  170MOL    H8030838   4.666   0.312   6.758 -0.8567  1.5877 -0.9089
  170MOL    H8130839   4.532   0.242   6.667  0.1546 -1.2368 -0.5264
  170MOL    H8230840   4.505   0.293   6.824 -0.2472  2.2014 -3.3269
  170MOL    C8330841   4.988   0.032   6.713  0.9304 -0.9428 -0.6201
  170MOL    C8430842   5.082   8.124   6.820 -0.5512  0.0782  0.2562
  170MOL    C8530843   5.055   0.148   6.641 -0.3636  0.6687  0.9930
  170MOL    O8630844   5.026   0.267   6.635  0.0919  0.8707 -0.2585
  170MOL    O8730845   5.165   0.103   6.571  0.2045  0.3214 -0.4164
  170MOL    H8830846   4.958   8.096   6.649 -0.6245 -1.1344  0.3305
  170MOL    H8930847   5.140   0.061   6.858 -2.2700  0.6847  1.6753
  170MOL    H9030848   5.031   8.067   6.899  2.7742 -0.7032  1.9236
  170MOL    H9130849   5.157   8.057   6.778  0.9218  2.0362 -0.2964
  170MOL    C9230850   5.259   0.187   6.509  0.2303 -0.3213 -0.1254
  170MOL    C9330851   5.348   0.098   6.425  0.6441 -0.0332 -0.2579
  170MOL    C9430852   5.334   0.269   6.610 -0.3235 -1.3890 -0.7330
  170MOL    O9530853   5.305   0.272   6.729  0.3313 -0.4732 -0.0896
  170MOL    O9630854   5.437   0.341   6.549 -0.8569  0.2362  0.2817
  170MOL    H9730855   5.204   0.252   6.441  3.5934  0.8242 -1.9169
  170MOL    H9830856   5.288   0.035   6.359  0.4774 -0.4104  0.2526
  170MOL    H9930857   5.420   0.146   6.359  0.5013  1.6292  0.7586
  170MOL   H10030858   5.399   0.020   6.482 -0.8955 -1.8655 -1.3566
  170MOL   C10130859   5.511   0.455   6.609  0.1182 -0.2521  0.5311
  170MOL   C10230860   5.616   0.426   6.719  0.0882 -0.2437  0.8267
  170MOL   C10330861   5.417   0.565   6.650  0.4775  0.0548  0.4657
  170MOL   O10430862   5.460   0.655   6.723 -0.3000  0.2676  0.4967
  170MOL   O10530863   5.297   0.560   6.591 -0.2188 -0.1545 -0.0596
  170MOL   H10630864   5.574   0.505   6.535 -1.4040  2.2759  0.8900
  170MOL   H10730865   5.688   0.352   6.683  1.4352  0.8331  1.2534
  170MOL   H10830866   5.671   0.517   6.745  0.0826  0.6018 -1.9602
  170MOL   H10930867   5.562   0.384   6.804 -0.0404 -1.4004  0.1898
  170MOL   C11030868   5.202   0.661   6.577  0.1268 -0.0897  0.1666
  170MOL   C11130869   5.074   0.604   6.526  0.0446 -0.3028 -0.0500
  170MOL   C11230870   5.254   0.778   6.495 -0.0023 -0.1525 -0.3445
  170MOL   O11330871   5.199   0.884   6.486  0.4524  0.0537  0.5500
  170MOL   O11430872   5.369   0.752   6.426 -0.1203  0.0470 -0.0026
  170MOL   H11530873   5.191   0.693   6.681 -0.1884 -2.3160  0.8326
  170MOL   H11630874   5.054   0.512   6.581  0.4857  0.4012  1.3184
  170MOL   H11730875   4.990   0.665   6.561 -0.3457 -1.7700  1.7058
  170MOL   H11830876   5.056   0.602   6.419 -0.6887 -0.3138  0.0673
  170MOL   C11930877   5.453   0.855   6.364  0.3345  0.2372 -0.4232
  170MOL   C12030878   5.426   0.832   6.215  0.3866 -0.2715  0.3075
  170MOL   C12130879   5.602   0.843   6.404 -0.0765  0.6203  0.1012
  170MOL   O12230880   5.692   0.813   6.326 -0.3765 -0.4436  0.5365
  170MOL   O12330881   5.624   0.858   6.528  0.3120 -0.3930  0.3295
  170MOL   H12430882   5.427   0.959   6.386 -1.5231  0.1100 -1.9403
  170MOL   H12530883   5.337   0.883   6.176  2.5071  2.8012 -0.7060
  170MOL   H12630884   5.501   0.883   6.155  0.6725 -0.3217  0.6255
  170MOL   H12730885   5.428   0.725   6.191  2.5823 -0.5363  1.6014
  170MOL   C12830886   5.756   0.864   6.577  0.5569  0.4303 -0.0188
  170MOL   C12930887   5.756   0.831   6.727  1.3512 -0.2423 -0.1284
  170MOL   C13030888   5.819   0.998   6.543 -0.1133  0.2028 -0.9107
  170MOL   O13130889   5.747   1.093   6.516 -0.5297 -0.2411  0.0322
  170MOL   O13230890   5.948   0.991   6.560  0.2962 -1.0306 -0.7451
  170MOL   H13330891   5.822   0.790   6.532  1.3024  0.9742  0.1852
  170MOL   H13430892   5.684   0.751   6.745 -1.6821  2.2593 -0.7278
  170MOL   H13530893   5.857   0.798   6.749  0.4249 -3.2628 -0.1399
  170MOL   H13630894   5.732   0.911   6.796 -1.6620 -0.3528 -0.9545
  170MOL   C13730895   6.033   1.108   6.541  0.4074  0.1827  1.0913
  170MOL   C13830896   6.079   1.116   6.389 -0.0806  0.3523 -0.1018
  170MOL   C13930897   6.147   1.099   6.643  0.1766 -0.3796  0.0181
  170MOL   O14030898   6.173   1.189   6.725  0.1794 -0.2412  0.1390
  170MOL   O14130899   6.217   0.997   6.638  0.4393  0.7743  0.1476
  170MOL   H14230900   5.979   1.196   6.575 -0.5596  1.0231 -2.4073
  170MOL   H14330901   6.119   1.021   6.355 -1.4747 -0.5137  0.6242
  170MOL   H14430902   5.988   1.128   6.329 -0.7354 -0.0047  0.8154
  170MOL   H14530903   6.133   1.209   6.370  0.0031  0.6275  1.4002
  170MOL   C14630904   6.327   0.976   6.730  0.2709 -0.3012  0.5754
  170MOL   C14730905   6.410   0.861   6.687 -0.0480 -0.4299  0.4012
  170MOL   C14830906   6.267   0.957   6.872 -0.6647  0.6292 -0.3152
  170MOL   O14930907   6.167   0.889   6.894 -0.1050 -0.2471  0.1955
  170MOL   O15030908   6.347   1.005   6.973 -0.3747  0.2002  0.3884
  170MOL   H15130909   6.395   1.061   6.731 -0.9173  0.6665  0.0648
  170MOL   H15230910   6.340   0.782   6.660 -0.6682  0.0912  0.4674
  170MOL   H15330911   6.458   0.899   6.596  3.2319 -3.6352  0.6700
  170MOL   H15430912   6.495   0.838   6.751  0.4065 -0.8769 -0.3603
  170MOL   C15530913   6.322   0.975   7.107  0.2552  0.4872  0.0985
  170MOL   C15630914   6.429   1.050   7.196 -0.0586  0.2810  0.1307
  170MOL   C15730915   6.343   0.828   7.136 -0.2008  0.0982  0.0609
  170MOL   O15830916   6.284   0.775   7.228  0.2395 -0.1514 -0.1136
  170MOL   O15930917   6.418   0.764   7.046 -0.1925  0.5068 -0.5267
  170MOL   H16030918   6.221   1.001   7.139  0.8484  1.7180  1.0098
  170MOL   H16130919   6.530   1.011   7.186  0.3048  1.1249  0.4663
  170MOL   H16230920   6.434   1.154   7.164 -0.1936 -0.2999 -1.8767
  170MOL   H16330921   6.418   1.040   7.304 -2.8926 -1.8083 -0.2866
  170MOL   C16430922   6.436   0.623   7.053 -0.5327 -0.2094  0.4097
  170MOL   C16530923   6.559   0.589   6.968 -0.7189  0.2289 -0.5706
  170MOL   C16630924   6.306   0.546   7.014  0.1179 -0.4326  0.1949
  170MOL   O16730925   6.268   0.446   7.082 -1.1760 -0.6605  0.2840
  170MOL   O16830926   6.245   0.589   6.898  0.0656  0.2095  0.4179
  170MOL   H16930927   6.455   0.606   7.159  0.8872  1.6619  0.4803
  170MOL   H17030928   6.647   0.646   6.998 -0.8063 -0.2665  0.6652
  170MOL   H17130929   6.586   0.486   6.995  0.5942  1.3594  2.6417
  170MOL   H17230930   6.541   0.591   6.860  0.9536  2.1797 -0.8315
  170MOL   C17330931   6.114   0.538   6.860 -1.2813 -0.3265 -0.0751
  170MOL   C17430932   6.082   0.587   6.716 -1.0671 -0.0013  0.2943
  170MOL   C17530933   6.004   0.573   6.960  0.5486 -0.3072  0.0246
  170MOL   O17630934   5.926   0.495   7.018 -0.1805 -0.5657  0.0688
  170MOL   O17730935   6.001   0.710   6.975  0.1657  0.1612  0.2485
  170MOL   H17830936   6.125   0.429   6.858  1.2453 -0.1290  0.6815
  170MOL   H17930937   6.176   0.575   6.662 -1.0849 -0.0493  0.2740
  170MOL   H18030938   6.026   0.517   6.654 -0.7964  0.6723 -0.7079
  170MOL   H18130939   6.041   0.687   6.699 -1.6688 -0.3593 -0.3758
  170MOL   H18230940   6.070   0.756   6.930 -0.9124  1.5697 -0.0080
  171MOL     C130941   1.730   0.085   6.992  0.4566 -0.2187 -0.4394
  171MOL     C230942   1.879   0.075   6.943 -0.4043 -0.4100  0.0304
  171MOL     C330943   1.664   0.220   6.962  0.5409 -0.2801  0.0993
  171MOL     O430944   1.563   0.229   6.897  0.6964 -0.1485  0.1587
  171MOL     O530945   1.744   0.330   6.997  0.3339 -0.5074 -0.1833
  171MOL     H630946   1.668   0.002   6.958  0.7699  0.1714 -2.0002
  171MOL     H730947   1.923   8.126   6.967 -0.5835 -1.0959 -2.2574
  171MOL     H830948   1.900   0.081   6.836 -1.4590  4.1867 -0.0177
  171MOL     H930949   1.943   0.151   6.987  0.1881 -0.7012 -0.3142
  171MOL    H1030950   1.731   0.071   7.100 -1.2400  0.5324 -0.3022
  171MOL    C1130951   1.676   0.456   7.016 -0.1177  0.4536  0.3707
  171MOL    C1230952   1.781   0.569   7.052 -0.3553 -0.5152 -0.4809
  171MOL    C1330953   1.580   0.452   7.131  0.1801  0.3973 -0.5655
  171MOL    O1430954   1.583   0.374   7.229 -0.0933  0.5573  0.2213
  171MOL    O1530955   1.488   0.555   7.118 -0.0867  0.7190 -0.6857
  171MOL    H1630956   1.626   0.485   6.924 -0.2021 -2.0990 -0.4358
  171MOL    H1730957   1.740   0.669   7.040  3.0188  0.7817 -1.9094
  171MOL    H1830958   1.821   0.557   7.153 -1.2817  0.6885  0.0484
  171MOL    H1930959   1.868   0.558   6.988  0.4556  2.7309 -0.0172
  171MOL    C2030960   1.396   0.587   7.219  0.3841 -0.4080  0.2821
  171MOL    C2130961   1.316   0.707   7.169  0.4634  0.1001 -0.4225
  171MOL    C2230962   1.456   0.629   7.355  0.5359  0.3523 -0.0454
  171MOL    O2330963   1.563   0.690   7.360  0.5851 -0.4869 -0.0625
  171MOL    O2430964   1.378   0.597   7.457 -0.0598  0.2348 -0.3737
  171MOL    H2530965   1.323   0.510   7.245 -2.2737  1.7775 -0.4582
  171MOL    H2630966   1.298   0.683   7.064  1.6225 -1.3060 -0.3196
  171MOL    H2730967   1.218   0.716   7.216  0.4925 -0.4357 -0.2539
  171MOL    H2830968   1.364   0.805   7.170 -0.3232  0.4878  0.2848
  171MOL    C2930969   1.404   0.646   7.586 -1.1217 -0.4386  0.8014
  171MOL    C3030970   1.300   0.591   7.692  0.3425 -0.0806  0.4673
  171MOL    C3130971   1.391   0.804   7.582  0.4899  0.3686  0.5469
  171MOL    O3230972   1.477   0.879   7.634 -0.4124 -0.5088  0.0093
  171MOL    O3330973   1.282   0.838   7.512 -0.0418  0.6882  0.0799
  171MOL    H3430974   1.504   0.625   7.623 -0.1515  0.3639 -1.2978
  171MOL    H3530975   1.314   0.620   7.796  1.9363 -0.3414  0.3356
  171MOL    H3630976   1.200   0.621   7.660 -0.5344 -1.8722  1.4752
  171MOL    H3730977   1.299   0.482   7.689 -1.7573 -0.0953  1.2733
  171MOL    C3830978   1.248   0.972   7.487  0.0451 -0.5049  0.8234
  171MOL    C3930979   1.119   0.969   7.408  0.3817 -0.0349  0.1361
  171MOL    C4030980   1.350   1.044   7.398 -0.5659 -0.1394  0.8366
  171MOL    O4130981   1.431   0.985   7.326 -0.3681 -0.2638  0.2410
  171MOL    O4230982   1.351   1.180   7.421  0.1029  0.4620 -0.0872
  171MOL    H4330983   1.227   1.019   7.583 -0.2261 -0.4512  0.7377
  171MOL    H4430984   1.136   0.917   7.314 -0.0846 -1.4834  0.8455
  171MOL    H4530985   1.039   0.911   7.453  1.2125 -2.8154 -1.8426
  171MOL    H4630986   1.073   1.067   7.393  1.4355  0.5145  0.4292
  171MOL    C4730987   1.414   1.269   7.328 -0.2263 -0.3636 -0.3123
  171MOL    C4830988   1.438   1.401   7.410  0.0548 -0.1604  0.4055
  171MOL    C4930989   1.325   1.287   7.201 -0.0239 -0.6209 -0.1832
  171MOL    O5030990   1.369   1.261   7.090  0.4105  0.3833  0.4422
  171MOL    O5130991   1.205   1.336   7.230 -0.1988 -0.0130 -0.1536
  171MOL    H5230992   1.517   1.242   7.305  0.4599  0.4037  1.8217
  171MOL    H5330993   1.351   1.451   7.451 -0.8255 -0.7507 -0.7045
  171MOL    H5430994   1.507   1.394   7.494 -1.0760 -0.8870  1.2918
  171MOL    H5530995   1.472   1.471   7.333  1.7413  1.7665  2.8360
  171MOL    C5630996   1.107   1.342   7.132 -1.3415  0.5344 -0.0486
  171MOL    C5730997   0.997   1.430   7.187  0.4837 -0.5100 -0.1906
  171MOL    C5830998   1.057   1.210   7.081 -0.4610 -0.3885 -0.2877
  171MOL    O5930999   1.028   1.114   7.153 -0.0980  0.0040  0.2268
  171MOL    O6031000   1.031   1.211   6.944 -0.4838  0.3763  0.0280
  171MOL    H6131001   1.153   1.400   7.052  1.4131 -1.6288 -0.0903
  171MOL    H6231002   0.996   1.434   7.296  1.2340 -0.3448 -0.1838
  171MOL    H6331003   1.024   1.533   7.163  0.9877 -0.6962 -0.4422
  171MOL    H6431004   0.902   1.396   7.147  1.1168 -3.6026  0.7939
  171MOL    C6531005   0.965   1.097   6.887  0.3210 -0.2757  0.2447
  171MOL    C6631006   0.997   1.109   6.739 -0.2012 -0.8226 -0.1384
  171MOL    C6731007   0.814   1.103   6.906  0.1728  0.4938 -0.3151
  171MOL    O6831008   0.749   1.000   6.906 -0.9249 -0.0265 -0.2993
  171MOL    O6931009   0.772   1.223   6.907 -0.0936  0.0878 -0.5896
  171MOL    H7031010   1.009   1.005   6.924 -0.7837 -0.0290  2.2452
  171MOL    H7131011   1.102   1.129   6.719 -0.9040  1.7077 -1.4607
  171MOL    H7231012   0.974   1.019   6.682 -1.8769 -0.1168 -0.6271
  171MOL    H7331013   0.935   1.187   6.695  0.6242  0.5761  1.1463
  171MOL    C7431014   0.639   1.272   6.891 -0.3602 -0.3710  0.7671
  171MOL    C7531015   0.549   1.230   7.001  0.0785  0.0615 -0.5481
  171MOL    C7631016   0.586   1.233   6.751  0.3718  1.1357 -0.1551
  171MOL    O7731017   0.479   1.170   6.730 -0.9043  0.1440  0.6991
  171MOL    O7831018   0.664   1.272   6.652 -0.6719  0.1091 -0.0508
  171MOL    H7931019   0.647   1.381   6.894  1.2940 -0.3529 -2.2052
  171MOL    H8031020   0.447   1.269   6.996 -0.1314 -0.5189 -0.8329
  171MOL    H8131021   0.546   1.121   7.011  0.6722  0.0853 -0.0393
  171MOL    H8231022   0.595   1.270   7.092  0.6794 -0.6328 -0.5338
  171MOL    C8331023   0.623   1.267   6.517  0.2304 -0.4599  0.5078
  171MOL    C8431024   0.746   1.299   6.431 -0.8284  0.3004  0.4279
  171MOL    C8531025   0.502   1.361   6.485 -0.0168  0.2499 -0.2804
  171MOL    O8631026   0.459   1.447   6.562  0.2222 -0.4692 -0.0185
  171MOL    O8731027   0.444   1.340   6.359 -0.1928 -0.1933 -0.0560
  171MOL    H8831028   0.585   1.169   6.490 -1.4272  0.6182 -1.1500
  171MOL    H8931029   0.786   1.400   6.437  1.4653 -0.5338 -0.4375
  171MOL    H9031030   0.823   1.223   6.441 -1.1263 -0.4102 -2.3288
  171MOL    H9131031   0.715   1.289   6.327  0.2711 -2.3297  0.3234
  171MOL    C9231032   0.343   1.421   6.306 -0.3674 -0.3812 -0.1738
  171MOL    C9331033   0.295   1.344   6.178 -0.1360  0.5492 -0.3414
  171MOL    C9431034   0.397   1.559   6.266  0.1480  0.0658  0.1546
  171MOL    O9531035   0.517   1.583   6.258 -0.0646  0.1057 -0.4472
  171MOL    O9631036   0.300   1.649   6.246  0.2571 -0.4072  0.1334
  171MOL    H9731037   0.263   1.428   6.380  0.2449 -1.5365  0.6099
  171MOL    H9831038   0.387   1.320   6.126  1.3473 -1.1391  2.8694
  171MOL    H9931039   0.239   1.253   6.199  1.4913 -0.9050 -2.0820
  171MOL   H10031040   0.226   1.407   6.122  0.4749 -0.3956 -2.1950
  171MOL   C10131041   0.332   1.775   6.187 -0.4935 -0.4920  0.3646
  171MOL   C10231042   0.204   1.855   6.197 -0.1744  0.2916 -0.0276
  171MOL   C10331043   0.352   1.746   6.037 -0.9800 -0.3211 -0.2736
  171MOL   O10431044   0.444   1.806   5.983 -0.0632 -0.1978  0.5296
  171MOL   O10531045   0.259   1.659   5.979 -0.0132 -0.0429  0.2492
  171MOL   H10631046   0.417   1.828   6.228 -1.1072  1.1015 -0.3672
  171MOL   H10731047   0.215   1.951   6.147  1.7876 -0.6579 -1.4754
  171MOL   H10831048   0.116   1.805   6.156 -0.7237  1.4217 -0.2629
  171MOL   H10931049   0.177   1.861   6.303 -1.2815  1.0458 -0.3379
  171MOL   C11031050   0.268   1.611   5.842 -0.2994  0.1461 -0.2110
  171MOL   C11131051   0.147   1.513   5.831 -0.0890 -0.4082  0.3692
  171MOL   C11231052   0.403   1.555   5.804 -0.1533 -1.0463  0.1982
  171MOL   O11331053   0.447   1.570   5.690  0.1706  0.6298  0.2052
  171MOL   O11431054   0.452   1.470   5.894 -0.3477  0.1109  0.0928
  171MOL   H11531055   0.240   1.701   5.788 -0.5401 -0.3221 -0.8715
  171MOL   H11631056   0.136   1.452   5.920  2.8086 -0.5033  0.6942
  171MOL   H11731057   0.052   1.562   5.808 -0.9381 -2.2702 -0.2281
  171MOL   H11831058   0.155   1.457   5.738  0.3692  1.7811 -0.9359
  171MOL   C11931059   0.583   1.411   5.881 -0.1836 -0.1023 -0.2862
  171MOL   C12031060   0.552   1.262   5.853 -0.0203 -0.5695  0.9117
  171MOL   C12131061   0.667   1.429   6.011 -0.1831  0.0022  0.2910
  171MOL   O12231062   0.678   1.337   6.086  0.0423 -0.0678  0.6677
  171MOL   O12331063   0.720   1.554   6.028  0.2288 -0.1286 -0.6371
  171MOL   H12431064   0.648   1.448   5.801 -0.2904  0.0035 -0.3234
  171MOL   H12531065   0.500   1.274   5.758 -1.9025  0.6716  2.0595
  171MOL   H12631066   0.636   1.192   5.849  2.2804  2.1738 -0.1649
  171MOL   H12731067   0.479   1.232   5.929 -2.8875  3.0763 -0.2436
  171MOL   C12831068   0.810   1.578   6.140  0.6655  0.1203  0.2392
  171MOL   C12931069   0.820   1.730   6.150 -0.3289  0.1417 -0.8634
  171MOL   C13031070   0.952   1.518   6.118  0.3093 -0.0896 -0.4696
  171MOL   O13131071   0.989   1.485   6.008 -0.2531  0.0601  0.5592
  171MOL   O13231072   1.020   1.504   6.237  0.2749  0.4601  0.1314
  171MOL   H13331073   0.773   1.528   6.230 -0.8360  2.8943  1.2472
  171MOL   H13431074   0.879   1.756   6.238 -1.3600  0.7968 -0.3546
  171MOL   H13531075   0.888   1.772   6.075  1.8145 -0.1871  0.8218
  171MOL   H13631076   0.726   1.783   6.160  0.1802  0.8384  0.3909
  171MOL   C13731077   1.160   1.490   6.256 -0.6170  0.3795  0.0345
  171MOL   C13831078   1.183   1.349   6.314  0.4980 -0.2585  0.6221
  171MOL   C13931079   1.183   1.605   6.359 -0.0482  0.7835  0.0668
  171MOL   O14031080   1.210   1.580   6.476 -0.0430  0.2998  0.4430
  171MOL   O14131081   1.178   1.724   6.297 -0.3122 -0.3562 -0.5014
  171MOL   H14231082   1.224   1.506   6.169 -0.2779  0.0735  0.2255
  171MOL   H14331083   1.138   1.275   6.248  1.0827 -1.0700  1.1201
  171MOL   H14431084   1.290   1.330   6.322  0.3459 -0.5036  2.4173
  171MOL   H14531085   1.135   1.331   6.410 -1.6045  1.2910 -0.1131
  171MOL   C14631086   1.198   1.845   6.366  0.3416  0.7494 -1.1232
  171MOL   C14731087   1.133   1.955   6.281  0.2281 -0.8249  0.3254
  171MOL   C14831088   1.347   1.863   6.397 -0.3961  0.0445 -0.4063
  171MOL   O14931089   1.425   1.769   6.392 -0.2158  0.4881  0.0251
  171MOL   O15031090   1.384   1.996   6.419 -0.1781 -1.0033 -0.1317
  171MOL   H15131091   1.150   1.857   6.463  0.4237 -1.7347 -0.7613
  171MOL   H15231092   1.156   2.045   6.338  0.6929 -0.3691 -0.5685
  171MOL   H15331093   1.170   1.969   6.180 -0.8918 -0.0533  0.0209
  171MOL   H15431094   1.025   1.948   6.272  0.5387 -2.0884 -2.8985
  171MOL   C15531095   1.519   2.037   6.434 -0.5068  0.5486  0.4282
  171MOL   C15631096   1.522   2.190   6.435  0.1954 -0.4455  0.0652
  171MOL   C15731097   1.602   1.992   6.311  0.0255 -0.1200  0.5381
  171MOL   O15831098   1.569   1.987   6.195  0.0002 -0.3595 -0.0674
  171MOL   O15931099   1.724   1.968   6.354 -0.6308  0.5726 -0.0750
  171MOL   H16031100   1.563   1.991   6.522 -1.7243  0.3045  0.9205
  171MOL   H16131101   1.624   2.224   6.421  0.5900 -0.7201  2.0665
  171MOL   H16231102   1.470   2.222   6.345  0.0453  0.2822  0.4093
  171MOL   H16331103   1.476   2.235   6.524  1.9817  1.3289  0.1240
  171MOL   C16431104   1.831   1.895   6.288  0.1329  0.8029  0.2179
  171MOL   C16531105   1.911   1.994   6.198  0.3833 -0.4788 -0.0158
  171MOL   C16631106   1.780   1.763   6.209 -0.1204 -0.0287 -0.2792
  171MOL   O16731107   1.824   1.736   6.098 -0.7278  0.9621 -0.5666
  171MOL   O16831108   1.685   1.697   6.266  0.0656 -0.3548 -0.6432
  171MOL   H16931109   1.902   1.862   6.364  0.1293  1.4394  0.5003
  171MOL   H17031110   2.017   1.976   6.178  0.2548  1.1737 -2.4510
  171MOL   H17131111   1.854   1.999   6.105  1.0096 -2.9900 -0.5738
  171MOL   H17231112   1.910   2.087   6.256 -2.9411 -1.2637  1.2982
  171MOL   C17331113   1.643   1.580   6.213  0.0460  1.1082 -0.4067
  171MOL   C17431114   1.536   1.601   6.109 -0.2993  0.0069  0.3108
  171MOL   C17531115   1.593   1.499   6.329 -0.6218  1.3526 -0.1919
  171MOL   O17631116   1.483   1.453   6.337  0.0295 -0.9676 -0.0091
  171MOL   O17731117   1.691   1.480   6.421 -0.2854 -0.3716 -0.4021
  171MOL   H17831118   1.722   1.520   6.168 -0.3916  0.5965 -0.5065
  171MOL   H17931119   1.533   1.512   6.047  0.3821  0.7205 -0.7727
  171MOL   H18031120   1.435   1.615   6.146 -1.2942  1.9186 -2.9434
  171MOL   H18131121   1.558   1.678   6.035  0.7133 -0.3496  0.2318
  171MOL   H18231122   1.760   1.536   6.388 -0.5208 -1.0430 -2.0690
  172MOL     C131123   2.550   7.048   2.960  0.0736 -0.6400  0.5442
  172MOL     C231124   2.586   7.132   2.836 -0.0900 -0.4090  0.7147
  172MOL     C331125   2.406   7.014   2.977 -0.3399  0.5527 -0.3610
  172MOL     O431126   2.378   6.953   3.079  0.0601 -0.1681 -0.0135
  172MOL     O531127   2.323   7.063   2.878  0.5292 -0.2903 -0.2243
  172MOL     H631128   2.609   6.957   2.955  1.7901  0.4951 -0.5945
  172MOL     H731129   2.609   7.061   2.756  2.7282 -0.3995  1.4556
  172MOL     H831130   2.511   7.203   2.802 -1.6846 -2.4809 -0.1832
  172MOL     H931131   2.682   7.182   2.853 -1.2086  1.7094  0.9225
  172MOL    H1031132   2.582   7.094   3.054  0.8973  2.4673 -1.1837
  172MOL    C1131133   2.183   7.054   2.886 -0.0518  0.2744  0.8933
  172MOL    C1231134   2.125   7.056   2.744 -0.3542 -0.2140  0.1001
  172MOL    C1331135   2.146   7.183   2.956 -0.0791 -0.3295  0.7644
  172MOL    O1431136   2.198   7.289   2.928 -0.6537  0.5320 -0.2690
  172MOL    O1531137   2.047   7.164   3.046 -0.2436  0.6819 -0.4813
  172MOL    H1631138   2.146   6.961   2.930  1.1683 -1.7933 -2.2848
  172MOL    H1731139   2.182   7.120   2.677 -1.3633 -1.4788 -2.0256
  172MOL    H1831140   2.119   6.957   2.698  0.4973  1.0303 -2.7733
  172MOL    H1931141   2.025   7.098   2.735 -0.1104  0.8684  1.9968
  172MOL    C2031142   1.986   7.269   3.123 -0.3470 -0.4958  0.2022
  172MOL    C2131143   1.936   7.222   3.263 -0.5917  0.5624  0.4631
  172MOL    C2231144   1.872   7.337   3.045  0.3432 -0.1446  0.3257
  172MOL    O2331145   1.815   7.434   3.080  0.0525 -0.6007 -0.0880
  172MOL    O2431146   1.837   7.261   2.933  0.4309  0.0708  0.0589
  172MOL    H2531147   2.062   7.343   3.147  0.2318 -0.8257 -0.5900
  172MOL    H2631148   2.017   7.182   3.324  1.4868  1.8050 -1.3737
  172MOL    H2731149   1.870   7.291   3.313 -0.4902  0.8623  0.1862
  172MOL    H2831150   1.876   7.134   3.238  1.1228 -0.1203 -1.4946
  172MOL    C2931151   1.736   7.299   2.844 -0.1703  0.1805  0.5661
  172MOL    C3031152   1.677   7.175   2.777 -0.4694 -0.2476 -0.4897
  172MOL    C3131153   1.782   7.395   2.734  0.4205 -0.6343  0.0538
  172MOL    O3231154   1.896   7.432   2.724 -0.1340 -0.5909  0.3053
  172MOL    O3331155   1.679   7.432   2.653  0.4001 -0.0249 -0.4738
  172MOL    H3431156   1.664   7.349   2.909  0.4866  1.0508  0.6417
  172MOL    H3531157   1.616   7.118   2.848 -0.8863 -0.6658 -1.1847
  172MOL    H3631158   1.612   7.201   2.694 -0.3474  0.4746 -0.3628
  172MOL    H3731159   1.760   7.114   2.742 -1.0190 -1.3936  0.1808
  172MOL    C3831160   1.695   7.522   2.544  0.4494 -0.1273 -0.4665
  172MOL    C3931161   1.550   7.569   2.513 -1.1389  0.3487  0.0677
  172MOL    C4031162   1.765   7.454   2.427 -0.3757 -0.7479 -0.3190
  172MOL    O4131163   1.707   7.402   2.336 -0.6346 -0.2960 -0.4520
  172MOL    O4231164   1.901   7.458   2.440  0.4603  0.0090 -0.0484
  172MOL    H4331165   1.758   7.602   2.584  0.1948 -0.0207 -0.2825
  172MOL    H4431166   1.497   7.619   2.594 -3.2842  0.2203 -1.2207
  172MOL    H4531167   1.547   7.643   2.433 -0.9189 -1.3003 -1.4973
  172MOL    H4631168   1.492   7.484   2.478  1.6129 -0.7451 -2.0217
  172MOL    C4731169   1.980   7.397   2.335 -0.7373  0.4346 -0.7967
  172MOL    C4831170   2.120   7.352   2.390  0.7008  0.1746 -0.1701
  172MOL    C4931171   1.993   7.490   2.211 -0.6140  0.1659 -0.0081
  172MOL    O5031172   2.091   7.560   2.186 -0.2747  0.1238 -0.5366
  172MOL    O5131173   1.885   7.498   2.146  0.5043 -0.2142  0.5841
  172MOL    H5231174   1.944   7.298   2.306 -0.2586 -0.0205  0.1662
  172MOL    H5331175   2.098   7.300   2.483  0.1128 -0.6662 -0.7709
  172MOL    H5431176   2.180   7.291   2.323  0.1867 -4.0675  3.0502
  172MOL    H5531177   2.175   7.435   2.434  0.7949  0.2475 -0.4261
  172MOL    C5631178   1.859   7.590   2.048  0.3114 -0.9347 -0.1155
  172MOL    C5731179   1.709   7.600   2.025 -0.6243 -0.0008 -0.1502
  172MOL    C5831180   1.934   7.552   1.916 -0.1840  0.2243 -0.1963
  172MOL    O5931181   1.911   7.443   1.862  0.0933  0.0858  0.1827
  172MOL    O6031182   2.001   7.655   1.855  0.2055  0.3432 -0.3146
  172MOL    H6131183   1.892   7.690   2.075 -0.4723 -0.3157 -1.4061
  172MOL    H6231184   1.679   7.674   1.951 -0.5697  1.2332  1.0419
  172MOL    H6331185   1.655   7.506   2.014  1.4620 -1.3750  1.1185
  172MOL    H6431186   1.677   7.642   2.120  1.4407 -2.4187  1.6665
  172MOL    C6531187   2.054   7.640   1.725  0.4970 -0.8394  0.0448
  172MOL    C6631188   2.163   7.758   1.713  0.3115 -0.5720 -0.5555
  172MOL    C6731189   1.940   7.658   1.622 -0.2688  0.0584  0.1091
  172MOL    O6831190   1.838   7.716   1.644  0.1919 -0.1615  0.3296
  172MOL    O6931191   1.974   7.593   1.506  0.5198  0.0356 -0.5339
  172MOL    H7031192   2.102   7.542   1.725  1.3101 -0.4492 -1.3554
  172MOL    H7131193   2.244   7.757   1.785 -0.3930  0.6063  0.2888
  172MOL    H7231194   2.214   7.758   1.617 -0.3462 -2.0298 -0.9115
  172MOL    H7331195   2.112   7.854   1.729  2.1472  0.4119 -0.4440
  172MOL    C7431196   1.891   7.604   1.389  0.1866 -0.6929 -0.9521
  172MOL    C7531197   1.894   7.484   1.297  0.2129 -0.0785  0.4611
  172MOL    C7631198   1.922   7.739   1.323 -0.1214  0.9958  0.0859
  172MOL    O7731199   2.038   7.780   1.316  0.4778 -0.0742  0.9321
  172MOL    O7831200   1.811   7.806   1.296  0.2302 -0.1834  0.5439
  172MOL    H7931201   1.792   7.620   1.432  0.8505  0.2943  0.2472
  172MOL    H8031202   1.795   7.479   1.252  1.6578 -0.2210 -2.8237
  172MOL    H8131203   1.960   7.496   1.211 -1.8320 -1.6232 -1.3574
  172MOL    H8231204   1.928   7.388   1.338  1.3173 -0.0775 -0.4173
  172MOL    C8331205   1.820   7.932   1.213 -0.3503  0.1889  0.5303
  172MOL    C8431206   1.720   8.028   1.260 -0.2515 -0.2838 -0.6764
  172MOL    C8531207   1.806   7.897   1.062  0.0009  0.1333  0.1856
  172MOL    O8631208   1.801   7.778   1.013  0.1564 -0.6458 -0.2369
  172MOL    O8731209   1.823   8.009   0.984  0.3648 -0.5111 -0.1468
  172MOL    H8831210   1.912   7.980   1.247 -0.2276  0.6322 -0.4104
  172MOL    H8931211   1.743   8.067   1.359  0.1269  1.8042 -1.5673
  172MOL    H9031212   1.716   8.120   1.202 -2.0884  0.8106  1.1226
  172MOL    H9131213   1.627   7.972   1.255  1.3181 -2.9714 -0.4906
  172MOL    C9231214   1.836   7.998   0.842  0.0484  0.7447 -0.0245
  172MOL    C9331215   1.880   8.140   0.792  0.6326  0.4697  0.1184
  172MOL    C9431216   1.703   7.963   0.779 -0.3110  0.2799 -0.7811
  172MOL    O9531217   1.685   7.849   0.726  0.1251 -0.1440  0.2791
  172MOL    O9631218   1.604   8.048   0.802  0.3728  0.3503 -0.5338
  172MOL    H9731219   1.902   7.922   0.800 -3.2546 -0.8613 -2.5633
  172MOL    H9831220   1.873   0.015   0.686  0.0035  0.7581  0.2190
  172MOL    H9931221   1.807   0.062   0.831 -0.2974 -1.2655  1.5543
  172MOL   H10031222   1.976   0.022   0.836  0.0846  0.6267  1.2207
  172MOL   C10131223   1.467   8.027   0.756 -0.4598 -0.2600 -0.0342
  172MOL   C10231224   1.394   0.013   0.787  0.3241 -0.3704 -0.1713
  172MOL   C10331225   1.394   7.914   0.830 -0.3112  0.4112 -0.1453
  172MOL   O10431226   1.283   7.870   0.793 -0.3172 -0.0220 -0.0937
  172MOL   O10531227   1.462   7.860   0.933  0.2628 -0.3627 -0.3934
  172MOL   H10631228   1.477   8.016   0.648  0.9444 -0.3925  0.0932
  172MOL   H10731229   1.446   0.066   0.867  2.0536  1.3059 -2.3185
  172MOL   H10831230   1.399   0.070   0.694 -1.3498  0.8344  0.4540
  172MOL   H10931231   1.287   8.142   0.795  0.4333 -0.5197  1.0110
  172MOL   C11031232   1.425   7.741   1.007 -0.7733 -0.3474  0.7526
  172MOL   C11131233   1.444   7.761   1.156 -0.4962  0.0517  0.4341
  172MOL   C11231234   1.475   7.613   0.940 -0.0053  0.2455  0.7388
  172MOL   O11331235   1.532   7.615   0.834  0.1058 -0.5436 -0.1986
  172MOL   O11431236   1.443   7.505   1.007  0.1352  0.3302 -0.1310
  172MOL   H11531237   1.317   7.732   0.992 -0.6192  1.2198 -1.6629
  172MOL   H11631238   1.392   7.850   1.192  1.5316  1.3947  0.1456
  172MOL   H11731239   1.411   7.676   1.215 -0.6476  0.9283  1.6445
  172MOL   H11831240   1.551   7.770   1.177 -0.5602  3.4561 -0.3230
  172MOL   C11931241   1.481   7.370   0.974 -0.2940  0.5649  0.2927
  172MOL   C12031242   1.506   7.300   1.109 -0.5436 -0.9711  0.4600
  172MOL   C12131243   1.613   7.367   0.891 -0.4509 -0.4344 -0.2737
  172MOL   O12231244   1.618   7.312   0.784 -0.0298 -0.0086 -0.6612
  172MOL   O12331245   1.723   7.423   0.955  1.0001  0.0537  0.0400
  172MOL   H12431246   1.396   7.330   0.919  1.0194 -0.0897 -1.2870
  172MOL   H12531247   1.526   7.194   1.095  2.0192 -0.4514 -0.0513
  172MOL   H12631248   1.603   7.323   1.153  0.0085 -0.4811 -1.0108
  172MOL   H12731249   1.421   7.316   1.177 -2.0614 -3.6675 -0.7266
  172MOL   C12831250   1.853   7.385   0.912  0.0221 -0.0513  0.1278
  172MOL   C12931251   1.896   7.467   0.794  0.5286 -0.6247 -0.8231
  172MOL   C13031252   1.879   7.231   0.898 -1.1029 -0.2359  0.2195
  172MOL   O13131253   1.940   7.180   0.797  0.2991 -0.1849 -0.0740
  172MOL   O13231254   1.830   7.156   0.995  0.2380 -0.5829 -0.2083
  172MOL   H13331255   1.931   7.411   0.983  0.1677 -0.9114  0.2802
  172MOL   H13431256   1.859   7.433   0.697 -1.5377 -2.0758  0.4384
  172MOL   H13531257   1.871   7.572   0.805 -0.4699 -0.9622  0.2156
  172MOL   H13631258   2.004   7.455   0.786  0.8145 -0.4194  2.2663
  172MOL   C13731259   1.891   7.024   1.024 -0.2830  0.0080 -0.4821
  172MOL   C13831260   1.793   6.946   1.105  0.4125  1.0896 -0.0639
  172MOL   C13931261   2.035   7.035   1.085 -0.6606 -0.1387 -0.6352
  172MOL   O14031262   2.074   7.140   1.128 -0.8275  0.8491  0.3135
  172MOL   O14131263   2.095   6.926   1.098 -0.0254 -0.5490 -0.1990
  172MOL   H14231264   1.897   6.964   0.933  0.6940  3.1171 -2.5831
  172MOL   H14331265   1.831   6.844   1.115 -2.5196 -0.2415 -1.8836
  172MOL   H14431266   1.787   6.980   1.208  0.6272 -0.1015  0.3563
  172MOL   H14531267   1.692   6.946   1.064  0.2082 -0.4720  0.3890
  172MOL   C14631268   2.222   6.914   1.165 -0.1702  0.0938  0.2822
  172MOL   C14731269   2.277   6.791   1.101 -0.2938 -0.5985  0.4866
  172MOL   C14831270   2.205   6.886   1.311  0.3918  0.0072 -0.1662
  172MOL   O14931271   2.112   6.814   1.350  0.2526 -0.1254 -0.9097
  172MOL   O15031272   2.312   6.928   1.382  0.2643 -0.2837 -0.3040
  172MOL   H15131273   2.294   6.994   1.146 -1.6168  0.8425 -2.2171
  172MOL   H15231274   2.374   6.763   1.143  1.7212  0.9066 -2.9517
  172MOL   H15331275   2.215   6.703   1.122  2.2317 -2.6883 -0.4753
  172MOL   H15431276   2.284   6.800   0.993 -1.6956  0.8977  0.5057
  172MOL   C15531277   2.293   6.925   1.521 -0.1154 -0.2988 -0.9699
  172MOL   C15631278   2.361   7.045   1.575  0.2727 -0.6691 -0.0145
  172MOL   C15731279   2.344   6.794   1.580 -0.2570 -0.6000 -0.1864
  172MOL   O15831280   2.431   6.793   1.671  0.3958  0.4179  0.2820
  172MOL   O15931281   2.294   6.677   1.523  0.7757 -0.3439 -0.7905
  172MOL   H16031282   2.191   6.940   1.557  0.4222 -1.0034  0.8786
  172MOL   H16131283   2.334   7.133   1.517 -0.2203 -0.2403  0.8615
  172MOL   H16231284   2.329   7.054   1.679  1.3575  1.4053  0.1672
  172MOL   H16331285   2.469   7.031   1.564  0.5307  0.8385  0.4227
  172MOL   C16431286   2.318   6.547   1.581  0.0248  0.1083  0.5873
  172MOL   C16531287   2.286   6.444   1.472  0.4223  0.0335 -0.1339
  172MOL   C16631288   2.236   6.526   1.710 -0.1457  0.0090 -0.9550
  172MOL   O16731289   2.157   6.438   1.724 -0.3736 -0.1849  0.2930
  172MOL   O16831290   2.272   6.606   1.814  0.3110 -0.8340 -0.1655
  172MOL   H16931291   2.426   6.548   1.598  0.1647 -1.5899 -0.0582
  172MOL   H17031292   2.178   6.430   1.464  0.5874 -1.1577 -0.4845
  172MOL   H17131293   2.324   6.480   1.377 -0.4934  0.0445 -0.5024
  172MOL   H17231294   2.332   6.349   1.499  0.7033  0.2537  0.1574
  172MOL   C17331295   2.221   6.593   1.952 -0.0555 -0.5727  0.3402
  172MOL   C17431296   2.214   6.713   2.035 -0.0303 -0.3743  0.3458
  172MOL   C17531297   2.283   6.474   2.028  0.9840 -0.3035  0.2781
  172MOL   O17631298   2.345   6.499   2.131  0.1314 -0.3470 -0.3829
  172MOL   O17731299   2.257   6.353   1.970 -0.3217  0.0636 -0.0728
  172MOL   H17831300   2.113   6.580   1.938  0.4112 -2.5935 -1.7600
  172MOL   H17931301   2.189   6.800   1.974 -1.5801 -0.3822  0.9348
  172MOL   H18031302   2.145   6.698   2.119 -0.0815  0.2546  0.4206
  172MOL   H18131303   2.314   6.727   2.074  1.4526 -0.4795 -3.2674
  172MOL   H18231304   2.194   6.363   1.899 -0.2629 -1.4336 -0.3561
  173MOL     C131305   3.637   2.388   6.834  0.9049 -0.5314  0.3806
  173MOL     C231306   3.644   2.235   6.825 -0.2593 -0.4884  0.2248
  173MOL     C331307   3.741   2.433   6.941  0.0677  0.4418  0.3882
  173MOL     O431308   3.714   2.513   7.029  0.1634 -0.1853  0.5122
  173MOL     O531309   3.863   2.389   6.916 -0.8549 -0.2136 -0.3455
  173MOL     H631310   3.670   2.423   6.737  1.0491 -0.9992  0.2630
  173MOL     H731311   3.633   2.179   6.918 -2.8214  0.0024  0.2509
  173MOL     H831312   3.559   2.195   6.770 -0.0587  1.9395 -1.9325
  173MOL     H931313   3.728   2.192   6.770 -0.0810  0.2012 -0.0349
  173MOL    H1031314   3.535   2.423   6.851  0.5149 -1.7085  0.4737
  173MOL    C1131315   3.977   2.410   7.002 -0.0343 -0.5025 -0.0588
  173MOL    C1231316   4.108   2.387   6.924 -0.0879 -0.0526 -0.3572
  173MOL    C1331317   3.966   2.321   7.128  0.0438  0.7116 -0.2496
  173MOL    O1431318   3.990   2.371   7.238  0.2739 -0.3025  0.6368
  173MOL    O1531319   3.929   2.201   7.097  0.1052  0.4037  0.5287
  173MOL    H1631320   3.980   2.509   7.048 -0.4763 -0.8471  0.7130
  173MOL    H1731321   4.113   2.460   6.843 -0.8342  0.6809  0.2425
  173MOL    H1831322   4.191   2.399   6.994 -1.0848 -0.0493  0.8352
  173MOL    H1931323   4.108   2.282   6.895  0.1383 -0.6313  1.6448
  173MOL    C2031324   3.909   2.099   7.191  0.2378 -0.4112 -0.7721
  173MOL    C2131325   4.041   2.021   7.205  0.1437 -0.1976 -0.1638
  173MOL    C2231326   3.796   2.006   7.144 -0.6121 -0.0828 -0.0226
  173MOL    O2331327   3.766   1.993   7.024  0.3215  0.1034  0.0068
  173MOL    O2431328   3.737   1.930   7.249  0.2805 -0.0203 -0.3670
  173MOL    H2531329   3.872   2.129   7.290  0.3547 -0.7134 -0.6372
  173MOL    H2631330   4.105   2.071   7.278  2.2264 -2.0398 -0.6977
  173MOL    H2731331   4.039   1.919   7.242  1.5948  0.1096  0.7740
  173MOL    H2831332   4.104   2.029   7.117 -0.4910 -1.3223 -0.7290
  173MOL    C2931333   3.661   1.813   7.222  0.0088 -0.0966  0.5008
  173MOL    C3031334   3.595   1.758   7.352 -0.0471  0.2064 -0.5335
  173MOL    C3131335   3.745   1.695   7.166 -0.3059  0.0685  0.7263
  173MOL    O3231336   3.690   1.612   7.089  0.6437  0.3503  0.4526
  173MOL    O3331337   3.877   1.691   7.205  0.4614 -0.1334  0.0316
  173MOL    H3431338   3.585   1.841   7.148 -1.3848  0.2007  2.0176
  173MOL    H3531339   3.538   1.831   7.410  0.5321  0.3908 -0.1921
  173MOL    H3631340   3.522   1.682   7.326  0.3083 -0.2190 -0.2823
  173MOL    H3731341   3.674   1.725   7.420 -0.8438  1.3924  1.0072
  173MOL    C3831342   3.973   1.599   7.160 -0.2869  0.1028  0.1124
  173MOL    C3931343   4.086   1.594   7.259 -0.3926 -0.3744  0.1665
  173MOL    C4031344   4.011   1.656   7.026  0.3890 -0.4071 -0.3888
  173MOL    O4131345   4.001   1.778   6.992 -0.1410 -0.4751 -0.4243
  173MOL    O4231346   4.071   1.563   6.954 -0.0767 -0.4992 -0.1636
  173MOL    H4331347   3.926   1.500   7.156  1.4915 -0.6750 -3.1217
  173MOL    H4431348   4.165   1.530   7.218  1.4830  1.7208  0.3729
  173MOL    H4531349   4.129   1.691   7.284 -1.6059 -0.3315  2.1905
  173MOL    H4631350   4.056   1.539   7.348 -0.9723  0.4720  0.4954
  173MOL    C4731351   4.126   1.593   6.821  0.2361 -0.0541 -0.1574
  173MOL    C4831352   4.143   1.471   6.737  0.8644 -0.0618 -0.3895
  173MOL    C4931353   4.254   1.682   6.828 -0.3249 -0.3419  0.3486
  173MOL    O5031354   4.330   1.661   6.921 -0.8985 -0.3176  0.2130
  173MOL    O5131355   4.271   1.767   6.732 -0.2335  0.1208  0.4523
  173MOL    H5231356   4.055   1.653   6.764  0.1230 -1.3704 -1.4167
  173MOL    H5331357   4.205   1.394   6.782 -1.0787 -2.0159 -0.9490
  173MOL    H5431358   4.043   1.430   6.721 -0.1298  1.9614  0.4093
  173MOL    H5531359   4.181   1.498   6.639  0.7360  0.0826 -0.4006
  173MOL    C5631360   4.372   1.865   6.720 -0.1554  0.0502  0.9365
  173MOL    C5731361   4.320   1.970   6.618  1.3385  0.1134  0.0930
  173MOL    C5831362   4.500   1.799   6.673  0.3468 -0.9437 -0.4681
  173MOL    O5931363   4.607   1.814   6.735  0.2982 -0.0609 -0.0088
  173MOL    O6031364   4.489   1.722   6.559 -0.4276 -0.0562  0.0779
  173MOL    H6131365   4.396   1.917   6.812 -2.0816 -0.3222  1.6735
  173MOL    H6231366   4.327   1.936   6.515  0.9619  0.0042  0.1021
  173MOL    H6331367   4.215   1.994   6.634  1.2289  1.6278 -2.6162
  173MOL    H6431368   4.381   2.058   6.639  1.7381 -0.6635  2.3214
  173MOL    C6531369   4.593   1.633   6.513  0.1624 -0.8541 -0.1409
  173MOL    C6631370   4.561   1.605   6.366  0.4151  0.9371  0.2523
  173MOL    C6731371   4.584   1.507   6.594 -0.4117  1.2149  0.0674
  173MOL    O6831372   4.543   1.514   6.710  0.0108  0.5991 -0.2710
  173MOL    O6931373   4.618   1.391   6.525  0.8310 -0.1629 -0.2294
  173MOL    H7031374   4.690   1.681   6.525  0.0361 -0.3993 -0.9293
  173MOL    H7131375   4.636   1.546   6.315  0.8096  2.8713 -1.4943
  173MOL    H7231376   4.474   1.546   6.337  3.7661 -2.8967 -2.3479
  173MOL    H7331377   4.550   1.698   6.310  0.0109  1.7004  1.5663
  173MOL    C7431378   4.576   1.267   6.576  0.2719  0.0508 -0.3376
  173MOL    C7531379   4.651   1.166   6.488 -0.2174  0.6181  0.7415
  173MOL    C7631380   4.424   1.244   6.572  0.0797  0.0256  0.4139
  173MOL    O7731381   4.338   1.320   6.524  0.0736 -0.2863 -0.6376
  173MOL    O7831382   4.390   1.130   6.634 -0.0769  0.7900  0.3538
  173MOL    H7931383   4.622   1.268   6.675 -0.8931  0.9557  0.2025
  173MOL    H8031384   4.758   1.185   6.490 -0.3103  1.6865 -1.9831
  173MOL    H8131385   4.627   1.066   6.523  1.2647  0.5599  1.6662
  173MOL    H8231386   4.623   1.169   6.383 -0.2022  1.1195  0.7485
  173MOL    C8331387   4.254   1.081   6.631  0.7077 -0.2075  0.3683
  173MOL    C8431388   4.235   0.995   6.754 -0.1505 -0.6955  0.7401
  173MOL    C8531389   4.229   1.011   6.499  0.1580 -0.2003  0.3588
  173MOL    O8631390   4.323   0.986   6.424 -0.1155  0.5618 -0.5241
  173MOL    O8731391   4.104   0.983   6.480  0.1580  0.9128 -0.0149
  173MOL    H8831392   4.190   1.167   6.652 -1.6885 -1.4734 -1.4097
  173MOL    H8931393   4.274   1.034   6.848 -1.0818  2.1052  0.0031
  173MOL    H9031394   4.131   0.969   6.774 -1.1238  0.5355 -2.4659
  173MOL    H9131395   4.288   0.906   6.719  0.4107 -0.4684  1.0109
  173MOL    C9231396   4.052   0.896   6.377 -0.3285 -0.8699  0.4319
  173MOL    C9331397   3.913   0.946   6.337  0.1423  0.5100  0.0679
  173MOL    C9431398   4.048   0.745   6.417 -0.2785 -0.0425 -0.5908
  173MOL    O9531399   3.951   0.671   6.408  0.1031  0.5991  0.2754
  173MOL    O9631400   4.163   0.703   6.459 -0.9903 -0.0927 -0.4064
  173MOL    H9731401   4.119   0.904   6.292  0.8000 -0.3371  1.3654
  173MOL    H9831402   3.851   0.982   6.419 -1.6910  1.4769 -1.7089
  173MOL    H9931403   3.918   1.017   6.254  2.7969 -2.0736 -2.1059
  173MOL   H10031404   3.864   0.862   6.289 -1.6023  1.9058 -0.6523
  173MOL   C10131405   4.182   0.574   6.514 -0.2688 -0.0094 -0.7522
  173MOL   C10231406   4.276   0.580   6.633 -0.6561  0.0633  0.3312
  173MOL   C10331407   4.246   0.482   6.404  0.9730  0.5703 -0.1056
  173MOL   O10431408   4.245   0.518   6.284  0.0009 -0.0240 -0.1946
  173MOL   O10531409   4.286   0.362   6.442 -0.6137 -0.2924  0.2815
  173MOL   H10631410   4.088   0.534   6.550 -0.5175  0.3258 -1.0166
  173MOL   H10731411   4.218   0.623   6.714 -1.3625 -2.3585  1.1503
  173MOL   H10831412   4.307   0.482   6.668 -0.7693  0.7618  2.4186
  173MOL   H10931413   4.358   0.647   6.604  0.3879 -1.5617 -0.5809
  173MOL   C11031414   4.332   0.273   6.340  0.3820 -0.0756 -0.2645
  173MOL   C11131415   4.331   0.139   6.410  0.1578  0.3743 -0.9062
  173MOL   C11231416   4.472   0.311   6.279 -0.2704 -0.1317 -0.1719
  173MOL   O11331417   4.480   0.322   6.158 -0.3489  0.4225  0.4626
  173MOL   O11431418   4.562   0.333   6.372  0.9673 -0.4133 -0.1017
  173MOL   H11531419   4.264   0.271   6.255 -0.5617  0.3942  0.4595
  173MOL   H11631420   4.390   0.143   6.501  2.3230  2.1560 -2.3142
  173MOL   H11731421   4.231   0.115   6.445  0.7592  0.7237  1.0848
  173MOL   H11831422   4.376   0.058   6.352 -1.0210 -1.0800  0.1888
  173MOL   C11931423   4.680   0.405   6.336 -0.4123 -0.6887  0.7953
  173MOL   C12031424   4.790   0.350   6.421 -0.3773 -0.0347 -0.2293
  173MOL   C12131425   4.664   0.553   6.358  0.3092 -0.2545  0.6387
  173MOL   O12231426   4.720   0.617   6.449 -0.2512  0.3101  0.3269
  173MOL   O12331427   4.580   0.607   6.276  0.0149 -0.7012 -0.1104
  173MOL   H12431428   4.709   0.373   6.235 -0.2497  0.4671  0.4699
  173MOL   H12531429   4.796   0.405   6.516 -1.3000  0.1901 -0.2901
  173MOL   H12631430   4.804   0.242   6.419  1.9998  0.2347 -0.1150
  173MOL   H12731431   4.887   0.366   6.374 -0.5824  0.2365 -0.5601
  173MOL   C12831432   4.559   0.752   6.269 -0.8057 -0.4008 -0.5184
  173MOL   C12931433   4.433   0.791   6.200  0.1761  0.1853  0.5379
  173MOL   C13031434   4.679   0.824   6.215  0.0413 -0.3153  0.5348
  173MOL   O13131435   4.678   0.871   6.102 -0.3506  0.7033  0.5096
  173MOL   O13231436   4.773   0.843   6.303 -0.1855 -0.3651 -0.2851
  173MOL   H13331437   4.557   0.802   6.367  0.3194 -0.6472 -0.3630
  173MOL   H13431438   4.421   0.749   6.100  0.7344  0.9327  0.1534
  173MOL   H13531439   4.343   0.763   6.255  0.3663 -0.3723  0.5690
  173MOL   H13631440   4.421   0.897   6.180  0.3292 -0.0234 -0.7123
  173MOL   C13731441   4.914   0.865   6.290 -0.5581 -0.0557  0.1261
  173MOL   C13831442   4.951   1.018   6.274  0.4866  0.3348  0.0480
  173MOL   C13931443   4.965   0.784   6.177  0.9461  0.8263  0.1930
  173MOL   O14031444   4.997   0.838   6.070 -0.0042  0.2818 -0.0122
  173MOL   O14131445   4.949   0.652   6.183 -0.6821 -0.4403  0.3394
  173MOL   H14231446   4.966   0.827   6.378 -0.7147  0.9958  0.6896
  173MOL   H14331447   4.928   1.091   6.351  1.1690  1.1778 -0.5297
  173MOL   H14431448   5.058   1.038   6.269  0.4948  1.1370  2.7675
  173MOL   H14531449   4.907   1.048   6.180 -0.2808 -0.2743  0.2097
  173MOL   C14631450   4.974   0.577   6.058  0.2761  0.2597 -0.2979
  173MOL   C14731451   4.839   0.569   5.984 -0.0117 -0.0884 -0.0639
  173MOL   C14831452   5.030   0.440   6.095 -0.4086 -0.7039  0.4070
  173MOL   O14931453   4.963   0.338   6.100 -0.2254  0.6344 -0.2843
  173MOL   O15031454   5.163   0.451   6.122  0.2513  0.4812  0.0784
  173MOL   H15131455   5.046   0.621   5.989 -1.1939 -0.7451 -2.4988
  173MOL   H15231456   4.747   0.540   6.034 -1.0956  0.9949 -1.3998
  173MOL   H15331457   4.816   0.664   5.936  0.0601 -1.7493 -3.5370
  173MOL   H15431458   4.845   0.485   5.915 -0.2288 -0.2617  0.1296
  173MOL   C15531459   5.250   0.342   6.143 -0.6974  0.2941 -0.1229
  173MOL   C15631460   5.381   0.397   6.199 -0.0686  0.3810  0.6678
  173MOL   C15731461   5.271   0.255   6.011 -0.0030 -0.4378 -0.5292
  173MOL   O15831462   5.371   0.268   5.945 -0.7369 -0.4746 -0.2770
  173MOL   O15931463   5.169   0.164   5.997  0.1563  0.9062  0.7392
  173MOL   H16031464   5.208   0.279   6.221  0.2743 -0.3107 -0.0902
  173MOL   H16131465   5.426   0.482   6.148 -1.0777 -0.0039 -0.8959
  173MOL   H16231466   5.360   0.439   6.297  0.3796  0.5120  0.7073
  173MOL   H16331467   5.461   0.323   6.208  1.3042  1.6843 -0.5413
  173MOL   C16431468   5.182   0.058   5.895 -0.1106 -0.4198 -0.4258
  173MOL   C16531469   5.043   8.134   5.915  0.5498  0.0106 -0.6408
  173MOL   C16631470   5.303   8.116   5.920  0.4985 -0.1022 -0.6424
  173MOL   O16731471   5.380   8.101   5.833  0.0213  0.3194  0.0822
  173MOL   O16831472   5.301   8.047   6.039 -0.3159  0.1509 -0.1245
  173MOL   H16931473   5.181   0.122   5.807 -3.2776  2.1751  1.3692
  173MOL   H17031474   5.041   8.050   5.986 -0.8354 -0.7438 -1.5664
  173MOL   H17131475   4.961   0.051   5.945 -0.0783 -1.0674  0.0216
  173MOL   H17231476   5.016   8.075   5.828  2.2267 -1.0653 -0.4610
  173MOL   C17331477   5.420   7.986   6.090 -0.1460 -0.2077 -0.6658
  173MOL   C17431478   5.438   7.846   6.033 -0.0506  0.0639  0.2745
  173MOL   C17531479   5.420   7.978   6.237 -0.1144  0.8197  0.3164
  173MOL   O17631480   5.509   8.023   6.308  0.4302  0.0621  0.5484
  173MOL   O17731481   5.297   7.935   6.271  0.0643  0.1636  0.2644
  173MOL   H17831482   5.504   8.049   6.062  1.3771 -1.7252  0.4047
  173MOL   H17931483   5.504   7.786   6.096  1.7835 -0.0550 -1.6933
  173MOL   H18031484   5.342   7.795   6.027 -0.8634  1.7432 -1.5169
  173MOL   H18131485   5.484   7.844   5.934  2.1445 -2.1130  1.2783
  173MOL   H18231486   5.230   7.940   6.204 -0.0483 -0.6184  0.3140
  174MOL     C131487   3.576   5.392   0.185 -0.4400 -0.3292 -0.1715
  174MOL     C231488   3.639   5.473   0.068  0.1626  0.4688  0.2940
  174MOL     C331489   3.679   5.339   0.281  0.0397 -0.7986  0.0622
  174MOL     O431490   3.763   5.261   0.249  0.1469  0.5842  0.1060
  174MOL     O531491   3.658   5.379   0.410  0.1831 -0.3202  0.1101
  174MOL     H631492   3.496   5.452   0.228 -1.7854 -1.6880 -0.6972
  174MOL     H731493   3.564   5.478   8.138  0.7658  1.4915 -0.2304
  174MOL     H831494   3.652   5.576   0.101  0.3063 -0.0331  1.8682
  174MOL     H931495   3.730   5.425   0.030  0.9755  1.9619  0.3260
  174MOL    H1031496   3.523   5.308   0.138 -0.2049  0.8002 -2.5132
  174MOL    C1131497   3.733   5.327   0.516 -0.0799  0.2336  0.0090
  174MOL    C1231498   3.655   5.216   0.590 -0.2262 -0.2050  0.5442
  174MOL    C1331499   3.771   5.453   0.603  0.7306 -0.2419 -0.8755
  174MOL    O1431500   3.812   5.556   0.554 -0.7025  0.4105  0.3758
  174MOL    O1531501   3.741   5.440   0.731 -0.0479 -0.4340  0.2998
  174MOL    H1631502   3.824   5.273   0.489 -0.3014 -0.2082  0.1412
  174MOL    H1731503   3.556   5.261   0.598  0.3285  1.5150 -1.8401
  174MOL    H1831504   3.638   5.127   0.529  0.3644  0.2577 -0.3035
  174MOL    H1931505   3.687   5.191   0.692  2.4258  1.9049  0.2908
  174MOL    C2031506   3.788   5.543   0.828 -0.0754 -0.0550  0.0791
  174MOL    C2131507   3.778   5.488   0.975 -0.3568 -0.7341 -0.3096
  174MOL    C2231508   3.700   5.667   0.821 -0.6042  0.0821  0.2232
  174MOL    O2331509   3.743   5.782   0.834 -0.0545 -0.5383  0.4850
  174MOL    O2431510   3.573   5.636   0.811  0.4888  0.5335 -0.1303
  174MOL    H2531511   3.885   5.578   0.794 -0.5003 -1.3490 -2.5639
  174MOL    H2631512   3.821   5.389   0.992  0.0348 -0.6713 -0.9192
  174MOL    H2731513   3.835   5.548   1.046  1.5318  1.8080 -3.7975
  174MOL    H2831514   3.677   5.487   1.014 -0.9278 -0.8593 -1.7742
  174MOL    C2931515   3.471   5.736   0.817 -0.3446  0.0908 -0.4159
  174MOL    C3031516   3.401   5.710   0.947  0.9714  0.8090  0.0141
  174MOL    C3131517   3.379   5.719   0.698  0.2769 -0.1188 -0.5228
  174MOL    O3231518   3.410   5.664   0.592 -0.7457 -0.2638 -0.0331
  174MOL    O3331519   3.255   5.775   0.721  0.4273 -0.6384  0.0044
  174MOL    H3431520   3.501   5.841   0.823 -0.6123  0.1759 -0.5422
  174MOL    H3531521   3.341   5.798   0.970 -0.8102 -0.7419  1.4228
  174MOL    H3631522   3.336   5.623   0.946 -0.2634  1.6872  1.7189
  174MOL    H3731523   3.467   5.694   1.032 -0.5192  0.5324  1.1372
  174MOL    C3831524   3.135   5.737   0.650 -0.6487  0.6008  0.0528
  174MOL    C3931525   3.037   5.857   0.638 -0.3964 -0.4526 -0.1313
  174MOL    C4031526   3.082   5.613   0.719 -0.0129 -0.3924  0.1757
  174MOL    O4131527   2.965   5.610   0.750  0.3980  0.1750  0.0970
  174MOL    O4231528   3.179   5.511   0.743  0.5606 -0.1619  0.0070
  174MOL    H4331529   3.152   5.707   0.547 -1.3632 -0.8286  0.3453
  174MOL    H4431530   2.942   5.827   0.593 -0.7303 -0.7237  0.7451
  174MOL    H4531531   3.014   5.909   0.731  1.4599  0.5618 -0.2222
  174MOL    H4631532   3.075   5.938   0.576 -3.7886  3.1037  2.1447
  174MOL    C4731533   3.141   5.387   0.804  0.1624  0.1400 -0.1079
  174MOL    C4831534   3.271   5.329   0.859  0.7255 -0.0234 -0.5562
  174MOL    C4931535   3.091   5.301   0.690 -0.0878 -0.2625 -0.7092
  174MOL    O5031536   2.972   5.273   0.676 -0.2590  0.3941  0.5096
  174MOL    O5131537   3.183   5.275   0.593 -0.3325  0.2937  0.5297
  174MOL    H5231538   3.069   5.403   0.885  1.0683 -0.7352  0.8833
  174MOL    H5331539   3.262   5.228   0.900  0.3512  0.0426 -0.4762
  174MOL    H5431540   3.345   5.328   0.778 -0.1107  0.3659 -1.3272
  174MOL    H5531541   3.309   5.393   0.940  1.2337 -2.4468  1.1905
  174MOL    C5631542   3.149   5.217   0.467 -0.4443 -0.5629  0.1076
  174MOL    C5731543   3.279   5.194   0.392  0.3532 -0.1799  0.8028
  174MOL    C5831544   3.059   5.311   0.377  0.2748 -0.1486  0.1920
  174MOL    O5931545   3.034   5.424   0.413  0.2371 -0.4484  0.0431
  174MOL    O6031546   3.032   5.269   0.256 -0.9654  0.3164 -0.2079
  174MOL    H6131547   3.089   5.126   0.472  0.5024 -1.1835  0.3386
  174MOL    H6231548   3.344   5.280   0.401  0.1051  0.0452  0.4614
  174MOL    H6331549   3.334   5.127   0.458  1.1709  2.4244  2.8147
  174MOL    H6431550   3.278   5.145   0.294  1.5537  0.7013  0.3451
  174MOL    C6531551   3.016   5.366   0.148 -0.4557 -0.6686 -0.1987
  174MOL    C6631552   2.964   5.293   0.024  0.7772 -0.6027  0.2750
  174MOL    C6731553   3.150   5.433   0.117 -0.7356  0.1372 -0.3025
  174MOL    O6831554   3.253   5.372   0.093  0.1675 -0.2619  0.2953
  174MOL    O6931555   3.148   5.572   0.129  0.3353 -0.1704 -0.2192
  174MOL    H7031556   2.943   5.443   0.176 -0.0585 -1.0306  1.9195
  174MOL    H7131557   2.864   5.259   0.049  0.2273  0.9393  0.2108
  174MOL    H7231558   2.955   5.349   8.078  0.8161  0.7322  1.0521
  174MOL    H7331559   3.025   5.209   8.139 -1.5038 -1.8418 -0.9333
  174MOL    C7431560   3.261   5.650   0.092  0.1646  0.8421  0.8711
  174MOL    C7531561   3.343   5.694   0.215  0.0024  0.3057  0.8235
  174MOL    C7631562   3.211   5.780   0.022 -0.4514  0.6054 -0.0183
  174MOL    O7731563   3.092   5.809   0.023  0.0396 -0.3153 -0.2146
  174MOL    O7831564   3.309   5.846   8.105  0.2972 -0.1191 -0.1083
  174MOL    H7931565   3.331   5.597   0.026 -0.3149  2.1530 -0.7190
  174MOL    H8031566   3.354   5.616   0.291  1.0149 -1.4330 -1.0395
  174MOL    H8131567   3.445   5.721   0.189 -1.3316  2.6916 -2.1307
  174MOL    H8231568   3.297   5.783   0.257 -2.3107 -1.1693  1.5439
  174MOL    C8331569   3.277   5.976   8.056 -0.3233 -0.4805  0.0455
  174MOL    C8431570   3.373   5.995   7.942  0.3925 -0.2284 -0.5283
  174MOL    C8531571   3.309   6.078   0.019  0.5785  0.0232 -0.1397
  174MOL    O8631572   3.402   6.162   0.005  0.0897 -0.0073  0.9475
  174MOL    O8731573   3.226   6.070   0.128 -0.8218  0.0671  0.1048
  174MOL    H8831574   3.175   5.990   8.020  0.5656 -0.3845 -2.5150
  174MOL    H8931575   3.470   5.965   7.982 -0.0492 -0.4178  0.4082
  174MOL    H9031576   3.348   5.938   7.852 -0.0092 -0.7960 -0.0546
  174MOL    H9131577   3.382   6.101   7.916  1.4243 -0.1018  0.2919
  174MOL    C9231578   3.237   6.167   0.232  0.1739  0.1652  0.7307
  174MOL    C9331579   3.188   6.107   0.360 -0.3930 -0.4567 -0.0635
  174MOL    C9431580   3.164   6.299   0.189 -0.5784 -0.0793  0.0455
  174MOL    O9531581   3.111   6.311   0.083  0.5574  0.5891  0.6170
  174MOL    O9631582   3.179   6.396   0.277  0.2406 -0.1642  0.2182
  174MOL    H9731583   3.340   6.200   0.248  0.3295 -0.9527  2.2441
  174MOL    H9831584   3.081   6.110   0.382 -1.2625 -3.3501 -3.4691
  174MOL    H9931585   3.233   6.010   0.379  1.4118  0.2096 -0.8529
  174MOL   H10031586   3.231   6.165   0.443 -0.4770  0.1411 -0.4350
  174MOL   C10131587   3.108   6.520   0.271  0.9228 -0.2550 -0.8016
  174MOL   C10231588   3.192   6.622   0.342 -0.0765  0.3844 -0.1139
  174MOL   C10331589   2.970   6.511   0.340 -0.1570  0.3871  0.3272
  174MOL   O10431590   2.871   6.560   0.289 -0.1422 -0.4097 -0.4579
  174MOL   O10531591   2.969   6.417   0.436  0.0381 -0.2130  0.0929
  174MOL   H10631592   3.082   6.554   0.171 -0.5062  0.4587 -0.1980
  174MOL   H10731593   3.297   6.609   0.316 -0.3448 -0.9459 -0.5787
  174MOL   H10831594   3.162   6.725   0.324  1.7139  1.1618  1.1665
  174MOL   H10931595   3.185   6.601   0.448  0.7507 -0.4002 -0.2119
  174MOL   C11031596   2.843   6.373   0.502  0.2907 -0.3546  0.0926
  174MOL   C11131597   2.867   6.330   0.647 -0.1425 -0.0147 -0.0889
  174MOL   C11231598   2.763   6.274   0.409 -0.2071  0.1183  0.3764
  174MOL   O11331599   2.811   6.211   0.320  0.2506  0.2332  0.2922
  174MOL   O11431600   2.638   6.274   0.455 -0.3666 -0.4091  0.3073
  174MOL   H11531601   2.774   6.457   0.516 -0.0404 -0.8600  1.5872
  174MOL   H11631602   2.785   6.287   0.704  0.8210 -0.5758  0.8814
  174MOL   H11731603   2.945   6.255   0.649 -0.2925 -0.1524  0.4712
  174MOL   H11831604   2.918   6.411   0.699  2.1200  1.0195 -3.6803
  174MOL   C11931605   2.532   6.181   0.415 -0.8605  0.0984  0.2598
  174MOL   C12031606   2.403   6.228   0.487 -0.6619 -0.3252 -0.0558
  174MOL   C12131607   2.566   6.033   0.446  0.1779 -0.2920  0.2027
  174MOL   O12231608   2.511   5.980   0.541 -0.8894 -0.3418 -0.0262
  174MOL   O12331609   2.659   5.981   0.367 -0.0521 -0.2496  0.7842
  174MOL   H12431610   2.505   6.184   0.310 -1.7113  2.0058  0.5097
  174MOL   H12531611   2.322   6.172   0.440 -2.6407  1.3066  1.3236
  174MOL   H12631612   2.407   6.217   0.595  0.2806 -1.3326 -0.1894
  174MOL   H12731613   2.390   6.335   0.467 -0.2675 -0.2880 -0.1202
  174MOL   C12831614   2.715   5.847   0.396 -0.0649  0.0207 -0.5331
  174MOL   C12931615   2.855   5.827   0.328  0.0661  0.0646 -0.1633
  174MOL   C13031616   2.617   5.735   0.358 -0.3203  0.3424  0.5411
  174MOL   O13131617   2.515   5.762   0.292  0.6001 -0.2861 -0.5626
  174MOL   O13231618   2.651   5.613   0.407 -0.2101  0.5937  0.0165
  174MOL   H13331619   2.744   5.833   0.500  1.3463  0.6104 -0.8326
  174MOL   H13431620   2.921   5.910   0.354  0.6708  0.1767 -1.9946
  174MOL   H13531621   2.901   5.729   0.328  0.7750  0.3512 -3.3293
  174MOL   H13631622   2.837   5.843   0.222  0.1090 -0.6467 -0.2759
  174MOL   C13731623   2.572   5.495   0.392 -0.0252 -0.2388  0.3791
  174MOL   C13831624   2.596   5.392   0.505 -0.0101 -0.1317 -0.1892
  174MOL   C13931625   2.587   5.422   0.258  1.3211 -0.1217  0.0948
  174MOL   O14031626   2.674   5.443   0.176 -0.4250 -0.0554 -0.6166
  174MOL   O14131627   2.486   5.334   0.226  0.0280 -0.4516  0.3783
  174MOL   H14231628   2.470   5.528   0.413 -0.6678 -2.2202  0.4710
  174MOL   H14331629   2.527   5.307   0.500  1.2349 -1.1865  0.1040
  174MOL   H14431630   2.694   5.344   0.501 -0.4890 -1.0303 -1.9174
  174MOL   H14531631   2.578   5.451   0.595  0.4168 -0.1391 -0.0964
  174MOL   C14631632   2.490   5.221   0.143 -0.2673  0.0312 -0.3069
  174MOL   C14731633   2.351   5.156   0.127 -0.0377  0.3805  0.5090
  174MOL   C14831634   2.596   5.122   0.196 -0.1623 -0.4069  0.1418
  174MOL   O14931635   2.707   5.102   0.135 -0.1481 -0.4125  0.1751
  174MOL   O15031636   2.569   5.059   0.312  0.1668  0.0881 -0.3693
  174MOL   H15131637   2.525   5.242   0.042 -1.0169  1.0235 -0.3637
  174MOL   H15231638   2.328   5.101   0.036  1.6980 -1.9276  1.4213
  174MOL   H15331639   2.320   5.098   0.214 -4.1139  0.3781 -0.8311
  174MOL   H15431640   2.270   5.229   0.120 -0.6452 -0.4620 -1.5074
  174MOL   C15531641   2.652   4.951   0.356  0.4423  0.4145 -0.1833
  174MOL   C15631642   2.559   4.847   0.411 -0.3779 -0.5597 -0.3657
  174MOL   C15731643   2.760   4.999   0.453 -0.3672  0.3852 -0.5180
  174MOL   O15831644   2.822   5.105   0.442 -0.0548  0.1873  0.1775
  174MOL   O15931645   2.771   4.917   0.560  0.0155 -0.0428  0.2356
  174MOL   H16031646   2.706   4.900   0.276 -1.1707 -1.6710  0.0008
  174MOL   H16131647   2.612   4.753   0.426  0.6635  0.2686  1.1775
  174MOL   H16231648   2.520   4.873   0.509 -1.1705 -0.1232 -0.7916
  174MOL   H16331649   2.471   4.826   0.349 -1.1369  0.0158  0.5020
  174MOL   C16431650   2.828   4.956   0.685  0.0596 -0.1373 -0.1108
  174MOL   C16531651   2.840   4.827   0.766  0.0292 -0.2526  0.5520
  174MOL   C16631652   2.728   5.053   0.745 -0.1332 -0.0583 -0.1247
  174MOL   O16731653   2.606   5.048   0.723 -0.2943  0.0011 -0.2761
  174MOL   O16831654   2.774   5.143   0.835  0.4501  0.1150 -0.1523
  174MOL   H16931655   2.923   5.009   0.681  0.4379 -0.8268 -0.5294
  174MOL   H17031656   2.884   4.841   0.864  1.4566 -1.1085  0.0512
  174MOL   H17131657   2.742   4.781   0.781  0.9397 -1.7952  1.8871
  174MOL   H17231658   2.905   4.761   0.709 -2.8713 -3.9962  1.3850
  174MOL   C17331659   2.687   5.229   0.909 -0.4778 -0.5609  0.3391
  174MOL   C17431660   2.714   5.374   0.882  0.3531 -0.2595  0.5228
  174MOL   C17531661   2.684   5.190   1.061  0.4802  0.7602 -0.0460
  174MOL   O17631662   2.725   5.269   1.144 -0.9769 -0.3784  0.5438
  174MOL   O17731663   2.644   5.062   1.092  0.5015  0.1297 -0.3489
  174MOL   H17831664   2.582   5.217   0.882  0.1233 -3.3527 -0.9234
  174MOL   H17931665   2.734   5.386   0.776  0.5736  1.4240  0.7367
  174MOL   H18031666   2.633   5.439   0.916  0.5230  0.0176  0.3994
  174MOL   H18131667   2.807   5.400   0.932  0.5108  0.7963 -0.3123
  174MOL   H18231668   2.650   5.046   1.185 -0.0005 -1.4032 -0.5731
  175MOL     C131669   1.676   1.583   4.841 -0.0134  0.7465  0.7187
  175MOL     C231670   1.611   1.694   4.925 -0.1374 -0.6637 -0.0004
  175MOL     C331671   1.706   1.637   4.703  0.0891  0.2595 -0.4286
  175MOL     O431672   1.816   1.668   4.664 -0.0929  0.2485  0.4300
  175MOL     O531673   1.591   1.654   4.631 -0.0988  0.5099  0.3758
  175MOL     H631674   1.776   1.558   4.878 -0.4888  0.2296  1.6825
  175MOL     H731675   1.634   1.665   5.027 -0.6069  1.3102  0.6754
  175MOL     H831676   1.655   1.792   4.906 -0.4140 -0.5337  0.0311
  175MOL     H931677   1.503   1.698   4.914 -0.2141 -1.5707  0.3591
  175MOL    H1031678   1.616   1.493   4.850 -1.6478  1.5729 -1.5076
  175MOL    C1131679   1.582   1.703   4.494 -0.8090 -0.2217  0.1927
  175MOL    C1231680   1.621   1.600   4.390  0.5906 -0.1581 -0.1647
  175MOL    C1331681   1.654   1.839   4.477 -0.5775 -0.2733  0.7659
  175MOL    O1431682   1.715   1.878   4.375  0.2809  0.2927  0.0706
  175MOL    O1531683   1.634   1.916   4.584 -0.2636 -0.7449 -0.6638
  175MOL    H1631684   1.483   1.748   4.484 -1.4553 -1.4376  1.0336
  175MOL    H1731685   1.571   1.504   4.400  0.7453 -0.1722  0.4872
  175MOL    H1831686   1.601   1.635   4.289  2.9971  1.1178 -0.2270
  175MOL    H1931687   1.728   1.583   4.398  0.8753  1.0904 -1.1237
  175MOL    C2031688   1.696   2.043   4.601 -0.3614  0.2519 -0.4546
  175MOL    C2131689   1.831   2.013   4.676  0.3733 -0.5726 -0.1444
  175MOL    C2231690   1.599   2.135   4.676 -0.3242  0.1015 -0.2497
  175MOL    O2331691   1.565   2.241   4.633  0.6384  0.1029  0.0207
  175MOL    O2431692   1.552   2.073   4.784  0.8934 -0.6764  0.2601
  175MOL    H2531693   1.720   2.091   4.506  0.9917  0.7654  0.1457
  175MOL    H2631694   1.899   1.959   4.611  0.6396 -3.8493  2.7225
  175MOL    H2731695   1.885   2.104   4.704  2.6514 -1.2843 -2.1264
  175MOL    H2831696   1.816   1.961   4.771  0.1906 -1.2597 -0.5461
  175MOL    C2931697   1.443   2.124   4.861 -0.0846  0.3536 -0.2185
  175MOL    C3031698   1.455   2.074   5.004 -0.6641 -0.1907 -0.2489
  175MOL    C3131699   1.309   2.079   4.799  0.2983 -0.5170 -0.0357
  175MOL    O3231700   1.214   2.154   4.785 -0.4343  0.8204 -0.1373
  175MOL    O3331701   1.316   1.954   4.748  0.1080  0.4475 -0.4897
  175MOL    H3431702   1.453   2.232   4.875 -0.8971  0.2049  1.6467
  175MOL    H3531703   1.548   2.114   5.042  1.2295 -1.7875 -3.0494
  175MOL    H3631704   1.374   2.102   5.072 -0.7421  1.6462 -1.0746
  175MOL    H3731705   1.451   1.966   5.018  2.1025  0.0268  2.5927
  175MOL    C3831706   1.219   1.886   4.675  0.2414  0.4943  0.0549
  175MOL    C3931707   1.234   1.733   4.700  0.3688  1.2348  0.1172
  175MOL    C4031708   1.251   1.911   4.526  0.4902  0.3087 -0.7762
  175MOL    O4131709   1.353   1.951   4.481  0.3457  0.8144 -0.1197
  175MOL    O4231710   1.136   1.883   4.447 -0.3353 -0.0190 -0.0264
  175MOL    H4331711   1.118   1.920   4.695  0.1628 -0.7967  1.9390
  175MOL    H4431712   1.165   1.701   4.778  0.4465 -1.9692 -1.0792
  175MOL    H4531713   1.198   1.676   4.615  3.4424 -1.8669  0.7870
  175MOL    H4631714   1.332   1.687   4.712  1.0880  2.6623 -0.1941
  175MOL    C4731715   1.152   1.885   4.304  0.0030 -0.2889  0.3352
  175MOL    C4831716   1.012   1.896   4.243 -0.3037 -0.4718 -0.0639
  175MOL    C4931717   1.232   1.764   4.249  0.0403  0.3552  0.1694
  175MOL    O5031718   1.287   1.682   4.329  0.2899  0.3732 -0.1862
  175MOL    O5131719   1.235   1.756   4.108  0.0818  0.3623 -0.0507
  175MOL    H5231720   1.214   1.971   4.279 -0.1814  0.2235  1.6187
  175MOL    H5331721   0.976   1.998   4.255 -0.4502 -0.5075 -0.1960
  175MOL    H5431722   1.004   1.885   4.135 -1.8712  0.1341 -0.0127
  175MOL    H5531723   0.934   1.835   4.289 -1.5449 -0.6926 -2.4149
  175MOL    C5631724   1.271   1.634   4.055 -0.1219  0.3490 -0.4349
  175MOL    C5731725   1.429   1.636   4.054 -0.2321 -0.2899 -0.1701
  175MOL    C5831726   1.218   1.602   3.919 -0.7521  0.0968 -0.3483
  175MOL    O5931727   1.282   1.519   3.851  0.3347 -0.0485 -0.0643
  175MOL    O6031728   1.107   1.667   3.893 -0.1031  0.0247  0.2373
  175MOL    H6131729   1.243   1.549   4.117 -1.5977  1.1555  0.0528
  175MOL    H6231730   1.472   1.713   4.118 -0.3133  0.7489 -1.3400
  175MOL    H6331731   1.469   1.536   4.071 -1.2982 -0.6675  0.1677
  175MOL    H6431732   1.475   1.662   3.958 -0.2593  1.5041  0.2967
  175MOL    C6531733   1.032   1.637   3.775 -0.6316 -0.3600  0.3551
  175MOL    C6631734   0.914   1.742   3.777  0.0492  0.2124  0.0859
  175MOL    C6731735   0.986   1.491   3.760  0.0006  0.0505  0.0990
  175MOL    O6831736   0.976   1.441   3.648  0.1909  0.6027  0.7827
  175MOL    O6931737   0.982   1.424   3.878  0.1537 -0.3551 -0.4496
  175MOL    H7031738   1.092   1.666   3.689 -2.4844  1.7462 -0.2934
  175MOL    H7131739   0.873   1.740   3.675  1.7378  1.2194 -0.6320
  175MOL    H7231740   0.835   1.699   3.839 -0.5540  1.5238  0.2622
  175MOL    H7331741   0.933   1.847   3.800  2.0040 -0.5597  2.0896
  175MOL    C7431742   0.991   1.277   3.894  0.5567  0.5283  0.7269
  175MOL    C7531743   1.130   1.229   3.860  0.8280  0.6445 -0.2855
  175MOL    C7631744   0.892   1.187   3.819 -0.2011  0.5153  0.0213
  175MOL    O7731745   0.814   1.237   3.737 -0.6955  0.4614  0.0851
  175MOL    O7831746   0.890   1.055   3.861  0.6534 -0.5561 -0.3746
  175MOL    H7931747   0.966   1.247   3.996 -0.3219 -1.1210  0.0336
  175MOL    H8031748   1.155   1.232   3.754  0.8298 -2.7151 -0.4480
  175MOL    H8131749   1.205   1.281   3.919  2.5008  0.4016 -2.1692
  175MOL    H8231750   1.142   1.123   3.882  0.6179  0.1853 -2.2551
  175MOL    C8331751   0.789   0.961   3.824 -0.7796 -0.6279 -0.2477
  175MOL    C8431752   0.717   0.923   3.958 -0.1835 -0.0489 -0.6949
  175MOL    C8531753   0.860   0.839   3.765 -0.4972  0.0237  0.9790
  175MOL    O8631754   0.823   0.796   3.655  0.4176 -0.3569 -0.4990
  175MOL    O8731755   0.959   0.792   3.845  0.3191  0.3552 -0.3061
  175MOL    H8831756   0.713   1.000   3.756  0.2312  0.7044 -0.6431
  175MOL    H8931757   0.690   0.818   3.971  3.1555 -0.6865  1.5861
  175MOL    H9031758   0.767   0.947   4.051  0.3594 -0.0244 -0.9922
  175MOL    H9131759   0.622   0.978   3.959  0.2991  0.7890  0.4014
  175MOL    C9231760   1.042   0.683   3.813 -0.8756  0.4156 -0.4256
  175MOL    C9331761   1.139   0.661   3.922  0.2781 -0.2005 -0.2880
  175MOL    C9431762   1.115   0.700   3.683  0.3402 -0.0182  0.4316
  175MOL    O9531763   1.134   0.598   3.616 -0.3893  0.1646  0.3049
  175MOL    O9631764   1.191   0.815   3.673  0.0427  0.8811  0.0352
  175MOL    H9731765   0.976   0.596   3.803  1.9190 -1.7769 -0.3737
  175MOL    H9831766   1.211   0.743   3.919 -0.1641  0.1313 -2.1142
  175MOL    H9931767   1.091   0.658   4.020 -0.0085  1.0567 -0.3837
  175MOL   H10031768   1.191   0.568   3.899  2.6281  0.5791  1.5682
  175MOL   C10131769   1.277   0.839   3.560 -0.1080 -0.0179  0.2874
  175MOL   C10231770   1.409   0.902   3.614  0.0771 -0.1543  0.6341
  175MOL   C10331771   1.213   0.932   3.464  0.2761 -0.5093  0.4124
  175MOL   O10431772   1.121   1.008   3.501  0.2745 -0.4582 -0.2185
  175MOL   O10531773   1.279   0.940   3.341  0.8128 -0.0713  0.7765
  175MOL   H10631774   1.301   0.749   3.503 -1.5985 -0.6254  0.6120
  175MOL   H10731775   1.386   1.003   3.648 -0.8600  0.6419 -2.2599
  175MOL   H10831776   1.445   0.859   3.707 -2.6633 -1.4465  1.1409
  175MOL   H10931777   1.491   0.902   3.543  0.5735  0.7222  1.2034
  175MOL   C11031778   1.239   1.045   3.249 -0.1189 -0.2869  0.2268
  175MOL   C11131779   1.282   1.016   3.104  0.3461 -0.1526 -0.2112
  175MOL   C11231780   1.316   1.178   3.296 -0.1199  0.7200 -0.1538
  175MOL   O11331781   1.438   1.191   3.275 -0.2677 -0.0768  0.2083
  175MOL   O11431782   1.233   1.276   3.337 -0.0946 -0.0487 -0.3472
  175MOL   H11531783   1.131   1.056   3.248 -0.1683 -0.6997  0.5254
  175MOL   H11631784   1.194   0.974   3.056 -1.6948  0.9403  2.4810
  175MOL   H11731785   1.305   1.102   3.041 -0.5135  0.6343  0.5459
  175MOL   H11831786   1.351   0.932   3.093  0.4806 -0.2973  1.6157
  175MOL   C11931787   1.289   1.403   3.372 -0.4259  0.0288  0.3710
  175MOL   C12031788   1.290   1.410   3.524 -0.0314  0.5464  0.1269
  175MOL   C12131789   1.212   1.518   3.309 -0.1272 -0.3418 -0.3671
  175MOL   O12231790   1.273   1.601   3.237  0.0828 -0.1671  0.4952
  175MOL   O12331791   1.081   1.513   3.337 -0.4082  0.3473 -0.4536
  175MOL   H12431792   1.392   1.409   3.337  0.0888 -0.8566  1.6756
  175MOL   H12531793   1.192   1.392   3.568  0.6543 -0.6241  1.2006
  175MOL   H12631794   1.361   1.344   3.574 -0.2136 -1.0926 -1.6937
  175MOL   H12731795   1.300   1.513   3.555  0.8790  1.6493 -3.5513
  175MOL   C12831796   0.998   1.615   3.284  0.3207 -0.1567 -0.6377
  175MOL   C12931797   0.874   1.637   3.372  0.0425  0.3753 -0.2024
  175MOL   C13031798   0.963   1.584   3.134  0.1756  0.0026 -0.8290
  175MOL   O13131799   0.984   1.663   3.039 -0.4082  0.1935 -0.5679
  175MOL   O13231800   0.884   1.466   3.126 -0.2170 -0.1667 -0.0547
  175MOL   H13331801   1.061   1.704   3.290 -0.3122  0.2625 -0.1391
  175MOL   H13431802   0.911   1.663   3.472  0.1516 -3.3116  0.7939
  175MOL   H13531803   0.809   1.716   3.336 -0.2752  0.3690  0.3491
  175MOL   H13631804   0.809   1.549   3.374  0.9121 -0.2616  1.0557
  175MOL   C13731805   0.871   1.395   3.004  0.1568  0.0603 -0.6106
  175MOL   C13831806   0.794   1.264   3.022  0.3677 -0.4345  0.7871
  175MOL   C13931807   0.997   1.354   2.935  0.1959  0.0148 -0.5630
  175MOL   O14031808   1.081   1.296   3.002  0.0591  0.3783 -0.4233
  175MOL   O14131809   1.014   1.398   2.813  0.3783  0.1796  0.0524
  175MOL   H14231810   0.800   1.440   2.935  0.0369  0.4944 -0.2039
  175MOL   H14331811   0.787   1.198   2.936 -2.0320 -0.9612  1.3599
  175MOL   H14431812   0.842   1.205   3.101 -1.8857  1.6542  3.7991
  175MOL   H14531813   0.690   1.268   3.055  0.1825  2.8529 -0.0863
  175MOL   C14631814   1.141   1.376   2.745  0.4990 -0.8736 -0.1112
  175MOL   C14731815   1.164   1.472   2.625 -0.6819  0.0600 -0.2083
  175MOL   C14831816   1.166   1.226   2.719 -0.1851 -0.5610 -0.1925
  175MOL   O14931817   1.270   1.178   2.761 -0.2321 -0.1436  0.0967
  175MOL   O15031818   1.057   1.165   2.662 -0.1760 -0.5716  0.4895
  175MOL   H15131819   1.206   1.425   2.818 -1.7980 -1.2470  2.2560
  175MOL   H15231820   1.141   1.574   2.654  1.0816 -0.5847  3.8033
  175MOL   H15331821   1.267   1.469   2.591 -0.3379 -1.0067  0.8842
  175MOL   H15431822   1.099   1.436   2.546  0.1915 -4.0806  0.8107
  175MOL   C15531823   1.074   1.025   2.628 -0.2344 -0.0616 -0.5616
  175MOL   C15631824   1.098   0.932   2.751  0.3438  1.0198  0.4064
  175MOL   C15731825   1.177   0.994   2.513  0.1182  0.7475 -0.5107
  175MOL   O15831826   1.243   1.076   2.452 -0.0039 -0.0970  0.3669
  175MOL   O15931827   1.182   0.864   2.477 -0.8609  0.1004 -0.0494
  175MOL   H16031828   0.975   1.002   2.587 -0.0775 -3.6521  0.8584
  175MOL   H16131829   1.188   0.948   2.810  1.6834  2.9432 -2.0497
  175MOL   H16231830   1.015   0.926   2.821  1.4087 -4.7924  1.4045
  175MOL   H16331831   1.101   0.836   2.699  2.3117  1.7100 -0.8056
  175MOL   C16431832   1.262   0.799   2.375  0.3152 -0.0583  0.4346
  175MOL   C16531833   1.191   0.658   2.347 -1.3113  0.2074 -0.9204
  175MOL   C16631834   1.413   0.799   2.411 -0.0831  0.2093  0.5364
  175MOL   O16731835   1.449   0.835   2.524 -0.1036  0.4123  0.0107
  175MOL   O16831836   1.489   0.743   2.323 -0.7121  0.0867 -0.0293
  175MOL   H16931837   1.253   0.860   2.285 -2.2016 -1.1607 -0.0842
  175MOL   H17031838   1.195   0.592   2.433 -0.3349 -1.6044 -2.3112
  175MOL   H17131839   1.089   0.663   2.307 -1.1903 -1.4160 -1.4770
  175MOL   H17231840   1.233   0.594   2.270 -1.1439 -0.3300 -0.3830
  175MOL   C17331841   1.621   0.695   2.365 -0.7363 -0.4183 -0.3677
  175MOL   C17431842   1.723   0.816   2.366  0.8123  0.5560  0.2136
  175MOL   C17531843   1.672   0.591   2.261  0.0743  0.5847 -0.4374
  175MOL   O17631844   1.773   0.602   2.193  0.3451 -0.2789  0.3392
  175MOL   O17731845   1.594   0.481   2.264  0.2613  0.2465 -0.1818
  175MOL   H17831846   1.622   0.646   2.462  0.0237 -2.0805 -1.1988
  175MOL   H17931847   1.826   0.785   2.347  0.1099 -0.6429 -1.8068
  175MOL   H18031848   1.688   0.878   2.284 -1.4166 -0.8180  0.0770
  175MOL   H18131849   1.713   0.879   2.454  1.9305  2.0488 -0.6923
  175MOL   H18231850   1.522   0.488   2.325  0.7517  3.6324  0.0885
  176MOL     C131851   6.330   2.232   5.648  0.2131 -0.6140 -0.0389
  176MOL     C231852   6.223   2.124   5.691 -1.5158  0.0499 -0.1785
  176MOL     C331853   6.278   2.371   5.686  0.2835  0.0202 -0.3057
  176MOL     O431854   6.224   2.389   5.796  0.0722 -0.2790  0.2582
  176MOL     O531855   6.299   2.462   5.592  0.4316 -0.1657 -0.1939
  176MOL     H631856   6.421   2.222   5.708  0.3182  0.7681  0.0393
  176MOL     H731857   6.221   2.112   5.799 -0.3368  0.1500 -0.1436
  176MOL     H831858   6.124   2.149   5.652  0.1255  1.0546 -3.9007
  176MOL     H931859   6.255   2.030   5.645 -0.0672  0.7480 -0.6293
  176MOL    H1031860   6.350   2.229   5.541 -2.2332 -0.1221 -0.5183
  176MOL    C1131861   6.251   2.594   5.600 -0.4526  0.0637  0.4571
  176MOL    C1231862   6.106   2.592   5.580  0.1199 -0.1350  0.3595
  176MOL    C1331863   6.330   2.666   5.491  0.7692  0.4175  0.5312
  176MOL    O1431864   6.455   2.671   5.487  0.2761  0.3675 -0.7026
  176MOL    O1531865   6.249   2.729   5.401  0.7742  0.1545 -0.0238
  176MOL    H1631866   6.274   2.644   5.694 -1.6454 -0.3005  0.9397
  176MOL    H1731867   6.069   2.694   5.594  2.4354  0.8046 -0.1569
  176MOL    H1831868   6.070   2.566   5.481  2.3086 -0.2725 -0.4272
  176MOL    H1931869   6.062   2.532   5.659 -0.4910  0.1181  0.2163
  176MOL    C2031870   6.294   2.790   5.280  0.4708  0.4582 -0.0401
  176MOL    C2131871   6.171   2.863   5.227 -0.6513  0.5527 -0.3202
  176MOL    C2231872   6.354   2.689   5.177 -0.1011 -0.5629 -0.1496
  176MOL    O2331873   6.346   2.566   5.193  0.1293 -0.1469  0.1284
  176MOL    O2431874   6.401   2.742   5.065  0.0737  0.1007 -0.2646
  176MOL    H2531875   6.357   2.873   5.313  0.8235 -0.0219  0.5027
  176MOL    H2631876   6.087   2.795   5.214  0.1508 -0.1208 -2.1032
  176MOL    H2731877   6.130   2.933   5.300  0.6594 -0.7745  1.7294
  176MOL    H2831878   6.189   2.934   5.146 -1.8483 -0.4921 -1.5202
  176MOL    C2931879   6.439   2.669   4.953 -0.1699 -0.3322 -0.2131
  176MOL    C3031880   6.518   2.767   4.869 -0.9498 -0.1221 -0.7406
  176MOL    C3131881   6.316   2.624   4.860 -0.0267 -0.7871  0.8223
  176MOL    O3231882   6.316   2.513   4.803  0.1875 -0.3916 -0.7409
  176MOL    O3331883   6.228   2.722   4.828  0.2427  0.3749 -0.0143
  176MOL    H3431884   6.502   2.584   4.980 -0.8044 -0.8245 -0.2450
  176MOL    H3531885   6.601   2.801   4.930 -0.8211  0.8371 -1.4327
  176MOL    H3631886   6.564   2.727   4.778  2.1585  0.1222  0.6789
  176MOL    H3731887   6.459   2.851   4.833  2.1277  1.5294 -2.2172
  176MOL    C3831888   6.119   2.703   4.732 -0.3195  0.4400 -0.9888
  176MOL    C3931889   6.056   2.840   4.693  0.0253 -0.3111  0.0453
  176MOL    C4031890   6.011   2.611   4.786 -0.1632 -0.3254  0.2487
  176MOL    O4131891   6.022   2.570   4.901 -0.3822  0.6020 -0.0001
  176MOL    O4231892   5.902   2.596   4.706 -0.1825  0.0411  0.0289
  176MOL    H4331893   6.159   2.657   4.642  3.8745 -0.2646  1.0907
  176MOL    H4431894   6.011   2.889   4.779  1.4406  0.7410  0.1858
  176MOL    H4531895   6.130   2.906   4.648  0.1670 -0.5203 -0.0304
  176MOL    H4631896   5.982   2.829   4.613  0.4726  1.8807 -0.7059
  176MOL    C4731897   5.766   2.546   4.745 -0.2192 -0.0535  0.3090
  176MOL    C4831898   5.691   2.550   4.611  0.4165  0.3237  0.7523
  176MOL    C4931899   5.707   2.646   4.845 -0.3725  0.5081 -0.2160
  176MOL    O5031900   5.709   2.762   4.818  0.2107 -0.2676  0.1559
  176MOL    O5131901   5.643   2.586   4.949 -0.0417  0.3703 -0.2087
  176MOL    H5231902   5.785   2.446   4.784 -0.6807  0.4374  1.7974
  176MOL    H5331903   5.583   2.538   4.616  0.4765  0.0420  1.4670
  176MOL    H5431904   5.704   2.641   4.553  0.4691 -1.1110 -1.5563
  176MOL    H5531905   5.735   2.476   4.544  1.3703 -1.1428  2.9362
  176MOL    C5631906   5.608   2.651   5.078  0.1136  0.5359  0.2924
  176MOL    C5731907   5.463   2.711   5.063 -0.6121  0.0144 -0.6161
  176MOL    C5831908   5.711   2.752   5.123 -0.0469 -0.3800  0.8506
  176MOL    O5931909   5.822   2.716   5.152  0.6693 -0.0163  0.0458
  176MOL    O6031910   5.655   2.875   5.143 -0.4074 -0.1990 -0.0286
  176MOL    H6131911   5.597   2.571   5.152  0.9329 -0.3460 -0.5153
  176MOL    H6231912   5.426   2.774   5.143 -0.1455  0.1687 -0.5192
  176MOL    H6331913   5.453   2.763   4.967  1.1749 -0.5915 -1.1494
  176MOL    H6431914   5.384   2.637   5.045  0.1359 -0.9414 -0.0304
  176MOL    C6531915   5.735   2.979   5.192 -0.2897  0.1777 -0.5390
  176MOL    C6631916   5.753   2.974   5.347 -0.2263 -0.0673  0.0221
  176MOL    C6731917   5.652   3.102   5.165  0.0252 -1.1582 -0.6091
  176MOL    O6831918   5.534   3.092   5.138 -0.3430  0.1048  0.1086
  176MOL    O6931919   5.720   3.220   5.176 -0.0698  0.5525  0.4996
  176MOL    H7031920   5.828   2.995   5.138  1.3339  0.0970  2.1092
  176MOL    H7131921   5.768   3.074   5.388  1.1624 -0.1386 -0.2802
  176MOL    H7231922   5.684   2.914   5.406 -1.4594  2.0271  0.7508
  176MOL    H7331923   5.846   2.917   5.349 -0.6221 -0.6928  0.7906
  176MOL    C7431924   5.667   3.350   5.152 -0.3056  0.5616  0.7408
  176MOL    C7531925   5.683   3.362   5.003 -0.3439 -0.2401  0.3931
  176MOL    C7631926   5.752   3.456   5.227 -0.6374 -0.6522 -0.0231
  176MOL    O7731927   5.829   3.526   5.159 -0.1559 -0.6233 -0.3514
  176MOL    O7831928   5.746   3.446   5.358 -0.1347  0.0754  0.4197
  176MOL    H7931929   5.563   3.359   5.184 -0.4780  2.4689 -0.2630
  176MOL    H8031930   5.634   3.278   4.954 -0.1318 -1.5517  2.3720
  176MOL    H8131931   5.628   3.451   4.971 -1.0231 -1.0890 -0.8144
  176MOL    H8231932   5.788   3.359   4.975  0.7883 -1.1360  4.3247
  176MOL    C8331933   5.855   3.500   5.434 -0.0265 -0.3422  0.1620
  176MOL    C8431934   5.846   3.424   5.564  0.1432 -1.3551  0.1767
  176MOL    C8531935   5.830   3.653   5.469  0.1406 -0.0441  0.4420
  176MOL    O8631936   5.712   3.699   5.481 -0.1606  0.1367 -0.2138
  176MOL    O8731937   5.948   3.720   5.485  0.6753  0.0101 -0.3471
  176MOL    H8831938   5.954   3.490   5.390 -0.8800  1.0846 -2.1716
  176MOL    H8931939   5.753   3.424   5.622  1.1138 -1.2702  1.7558
  176MOL    H9031940   5.870   3.321   5.538  1.0470 -0.4633 -2.6754
  176MOL    H9131941   5.917   3.462   5.637 -0.5835 -0.1154  0.2491
  176MOL    C9231942   5.954   3.853   5.538  0.4725  0.2479 -0.1242
  176MOL    C9331943   6.105   3.893   5.546 -0.7115 -0.3807  0.2250
  176MOL    C9431944   5.886   3.863   5.683  0.1898 -0.1064 -0.5291
  176MOL    O9531945   5.851   3.763   5.746  0.2120  0.6273 -0.0202
  176MOL    O9631946   5.877   3.992   5.723  0.9288 -0.4600  0.5823
  176MOL    H9731947   5.903   3.925   5.475  0.3548  0.9149  0.7174
  176MOL    H9831948   6.165   3.806   5.573  1.5454  0.4523 -1.8473
  176MOL    H9931949   6.150   3.924   5.452 -1.1979  0.2704  0.2023
  176MOL   H10031950   6.130   3.966   5.624  0.8636 -0.1515 -0.4594
  176MOL   C10131951   5.819   4.029   5.851  0.3446  0.1176 -0.2217
  176MOL   C10231952   5.795   4.178   5.850  0.3731 -0.9259 -0.0069
  176MOL   C10331953   5.909   3.986   5.969  0.0925 -0.0847 -0.0200
  176MOL   O10431954   5.880   3.888   6.038 -0.8553  0.6099 -0.3397
  176MOL   O10531955   6.024   4.046   5.969  0.0337 -0.1492 -0.7591
  176MOL   H10631956   5.730   3.972   5.878  2.0259 -2.9614 -0.8276
  176MOL   H10731957   5.720   4.181   5.771 -1.2267  0.7501  1.5340
  176MOL   H10831958   5.745   4.213   5.940 -0.1103  0.2726 -0.7363
  176MOL   H10931959   5.885   4.234   5.825 -0.7007  1.5325  1.4865
  176MOL   C11031960   6.124   4.040   6.074  0.6397  0.6208  0.7005
  176MOL   C11131961   6.182   4.181   6.082  0.2289 -0.0814  0.5220
  176MOL   C11231962   6.239   3.946   6.020 -0.0354 -0.1370 -0.0593
  176MOL   O11331963   6.358   3.976   6.025 -0.0816 -0.7510 -0.3196
  176MOL   O11431964   6.187   3.823   5.991  0.1496 -0.7830  0.2285
  176MOL   H11531965   6.081   4.002   6.166 -0.5811 -0.3695 -0.2620
  176MOL   H11631966   6.261   4.193   6.157 -0.5123 -1.0355  1.4636
  176MOL   H11731967   6.218   4.200   5.981 -1.4575  1.9616  0.2732
  176MOL   H11831968   6.106   4.257   6.100  0.3969  0.0013  0.8929
  176MOL   C11931969   6.264   3.707   5.957  0.8316  0.6160  0.4847
  176MOL   C12031970   6.220   3.661   5.818 -0.4938  0.3449  0.4547
  176MOL   C12131971   6.236   3.604   6.074  0.9929 -0.2605  0.2804
  176MOL   O12231972   6.144   3.617   6.157  0.0724  0.2094 -0.1054
  176MOL   O12331973   6.334   3.510   6.072  0.2542  0.5954  0.2801
  176MOL   H12431974   6.368   3.736   5.958 -0.0572  4.0931  4.2352
  176MOL   H12531975   6.115   3.677   5.797 -0.3668  1.4842  0.6654
  176MOL   H12631976   6.283   3.700   5.738 -2.5114  0.9340 -0.8749
  176MOL   H12731977   6.236   3.553   5.812  0.2544  0.5187 -0.7146
  176MOL   C12831978   6.327   3.389   6.152  0.3287  0.1395  0.0119
  176MOL   C12931979   6.471   3.348   6.177  0.0062  0.0454 -0.1782
  176MOL   C13031980   6.258   3.279   6.082  0.4317  0.1379  0.1159
  176MOL   O13131981   6.260   3.269   5.956  0.2143  0.1328  0.0590
  176MOL   O13231982   6.195   3.198   6.176 -0.1009  0.1154 -0.0485
  176MOL   H13331983   6.289   3.403   6.253  2.0262  0.6049  0.5978
  176MOL   H13431984   6.507   3.308   6.083  0.3570 -1.2149  0.4771
  176MOL   H13531985   6.543   3.427   6.196 -0.1279  0.1551 -0.1286
  176MOL   H13631986   6.493   3.272   6.253  0.0759  0.2101 -0.0338
  176MOL   C13731987   6.154   3.065   6.138 -0.0140 -0.3284 -1.0953
  176MOL   C13831988   6.078   3.020   6.261 -0.7686 -0.1774  0.4105
  176MOL   C13931989   6.282   2.980   6.113  0.7434  0.2980  0.0095
  176MOL   O14031990   6.297   2.913   6.010 -0.8344 -0.5199 -0.1623
  176MOL   O14131991   6.376   2.998   6.207 -0.1218 -1.0236  0.5068
  176MOL   H14231992   6.089   3.072   6.051  1.6872  1.4136 -2.2422
  176MOL   H14331993   6.058   2.912   6.260  1.2830 -0.5881  0.0188
  176MOL   H14431994   6.139   3.029   6.350  1.6007 -0.9091 -1.0882
  176MOL   H14531995   5.982   3.068   6.280 -0.9921 -0.5686  0.2957
  176MOL   C14631996   6.490   2.913   6.209  0.3998  0.1462  0.3856
  176MOL   C14731997   6.564   2.943   6.340  0.1187 -0.1388  0.2464
  176MOL   C14831998   6.582   2.940   6.092 -0.0310  0.4891  0.0147
  176MOL   O14931999   6.626   2.848   6.024 -0.5111 -0.3331 -0.4587
  176MOL   O15032000   6.615   3.070   6.065  0.0174 -0.4680 -0.6051
  176MOL   H15132001   6.471   2.806   6.204  1.9869 -0.0799 -1.7979
  176MOL   H15232002   6.521   2.886   6.422  0.2531 -1.4923 -0.6029
  176MOL   H15332003   6.668   2.915   6.324  0.3793  1.1170 -0.3399
  176MOL   H15432004   6.575   3.051   6.353 -2.0991  0.3881 -1.8622
  176MOL   C15532005   6.711   3.092   5.964 -0.6462 -0.1318  0.2387
  176MOL   C15632006   6.782   3.221   6.007 -0.8274 -0.0247 -0.4624
  176MOL   C15732007   6.635   3.115   5.835 -0.5557  0.2255 -0.5026
  176MOL   O15832008   6.567   3.210   5.809  0.0961 -0.3096 -0.0396
  176MOL   O15932009   6.656   3.017   5.742  0.6052 -0.0666 -0.3806
  176MOL   H16032010   6.789   3.017   5.953 -0.0038  0.7099 -1.0942
  176MOL   H16132011   6.842   3.196   6.094 -2.7363 -0.5169  0.7516
  176MOL   H16232012   6.850   3.271   5.938  1.8717 -0.8127  1.5515
  176MOL   H16332013   6.715   3.299   6.043 -1.5165  0.1528 -2.0894
  176MOL   C16432014   6.581   3.010   5.622 -0.0073  0.7145  0.9406
  176MOL   C16532015   6.623   3.110   5.513 -0.1310 -0.4046  0.5008
  176MOL   C16632016   6.434   2.983   5.650  0.2606  0.3536 -0.1556
  176MOL   O16732017   6.398   2.905   5.740 -0.7612  0.4289  0.3883
  176MOL   O16832018   6.352   3.055   5.583 -0.4608  0.3982 -0.0588
  176MOL   H16932019   6.620   2.920   5.574 -2.4624 -0.3054  0.8155
  176MOL   H17032020   6.600   3.212   5.543  0.2294  0.5255 -2.2554
  176MOL   H17132021   6.730   3.116   5.491  0.0391  0.4275  1.5338
  176MOL   H17232022   6.577   3.080   5.419  1.5007 -0.3557 -0.3221
  176MOL   C17332023   6.231   3.103   5.636  0.3386 -0.4252  0.0762
  176MOL   C17432024   6.109   3.030   5.577 -0.2761  0.7582  0.5808
  176MOL   C17532025   6.232   3.257   5.612 -0.5438 -0.1911 -0.7199
  176MOL   O17632026   6.148   3.311   5.536 -0.4034  0.2360  0.0375
  176MOL   O17732027   6.339   3.315   5.676 -0.5036 -0.2468 -1.4376
  176MOL   H17832028   6.231   3.079   5.742 -1.2616 -1.9163 -0.2364
  176MOL   H17932029   6.010   3.057   5.612 -0.1844  1.0324  0.6337
  176MOL   H18032030   6.106   3.059   5.472 -1.0404 -2.2081 -0.2351
  176MOL   H18132031   6.126   2.923   5.577  0.8604  0.9249 -0.6972
  176MOL   H18232032   6.399   3.265   5.729 -1.1255 -1.7322 -2.0973
  177MOL     C132033   2.761   4.561   6.935 -0.1905 -0.4221 -0.2475
  177MOL     C232034   2.884   4.644   6.896  0.4518 -0.2149 -0.7006
  177MOL     C332035   2.673   4.517   6.816 -0.5594 -0.0216 -0.1339
  177MOL     O432036   2.701   4.554   6.704  0.0200 -0.1050  0.1137
  177MOL     O532037   2.569   4.447   6.851  0.2984  0.2266  0.2292
  177MOL     H632038   2.795   4.464   6.972 -0.9140 -0.5066  0.2125
  177MOL     H732039   2.932   4.610   6.804 -0.5610  1.3916 -1.8683
  177MOL     H832040   2.859   4.746   6.867  1.6591 -0.1388 -1.5014
  177MOL     H932041   2.958   4.632   6.975 -0.2080 -2.3337 -0.3824
  177MOL    H1032042   2.694   4.602   7.011 -0.1013  1.4973 -1.1745
  177MOL    C1132043   2.480   4.391   6.755 -0.0163 -0.5625 -0.2396
  177MOL    C1232044   2.378   4.331   6.844 -0.0667  0.7123  0.0644
  177MOL    C1332045   2.555   4.271   6.682 -0.0670 -0.1179  0.0861
  177MOL    O1432046   2.551   4.262   6.561  0.0920  0.1602 -0.3684
  177MOL    O1532047   2.615   4.179   6.764 -0.3926 -0.0130 -0.2076
  177MOL    H1632048   2.432   4.464   6.690 -3.2198 -0.6715  1.9192
  177MOL    H1732049   2.425   4.257   6.908 -2.6196  0.3045  1.5262
  177MOL    H1832050   2.332   4.403   6.912 -2.6651 -0.5105 -0.3265
  177MOL    H1932051   2.288   4.290   6.798 -1.2287  2.3542  0.7959
  177MOL    C2032052   2.703   4.077   6.722 -0.4892  0.3106  0.0984
  177MOL    C2132053   2.727   3.977   6.835  0.3291  0.4101  0.2756
  177MOL    C2232054   2.826   4.129   6.658 -0.0640 -0.3978 -0.4869
  177MOL    O2332055   2.885   4.055   6.579  0.1806  0.1940 -0.1687
  177MOL    O2432056   2.860   4.256   6.693  0.2434  0.5262 -0.1495
  177MOL    H2532057   2.664   4.027   6.634 -1.7471 -0.3630  1.0257
  177MOL    H2632058   2.758   3.888   6.780 -0.6220 -0.0031  0.3936
  177MOL    H2732059   2.795   4.017   6.909 -3.3226  4.0045  1.8518
  177MOL    H2832060   2.633   3.953   6.886 -0.2997  1.7329 -0.2440
  177MOL    C2932061   2.990   4.313   6.660 -0.0751  0.4068  0.1323
  177MOL    C3032062   3.037   4.293   6.508 -0.0524 -0.2855 -0.3536
  177MOL    C3132063   3.095   4.281   6.771  0.5479  0.5740  1.0972
  177MOL    O3232064   3.077   4.194   6.858 -0.0432 -0.2368  0.5644
  177MOL    O3332065   3.213   4.330   6.743  0.6353  0.2621  0.2962
  177MOL    H3432066   2.956   4.416   6.671 -1.0917 -0.2066  3.4429
  177MOL    H3532067   3.119   4.361   6.488  0.1348 -0.3139  0.2966
  177MOL    H3632068   3.080   4.195   6.487 -3.4835 -1.8231 -0.7050
  177MOL    H3732069   2.962   4.312   6.431 -0.6698 -1.4267 -0.0564
  177MOL    C3832070   3.323   4.324   6.833  0.4060  0.3626  0.2836
  177MOL    C3932071   3.414   4.440   6.800  0.8567 -0.0206 -0.6084
  177MOL    C4032072   3.394   4.184   6.825 -0.8811 -0.6243  0.4849
  177MOL    O4132073   3.380   4.112   6.728 -0.5777  0.2746  0.3979
  177MOL    O4232074   3.462   4.160   6.936  0.4470 -0.1365  0.1734
  177MOL    H4332075   3.282   4.332   6.934 -1.4886 -1.7956 -0.2695
  177MOL    H4432076   3.494   4.451   6.873  0.0293 -2.2958  0.6950
  177MOL    H4532077   3.456   4.428   6.701 -0.6640  0.1392 -1.2849
  177MOL    H4632078   3.346   4.525   6.793  0.9221 -0.1899 -3.5928
  177MOL    C4732079   3.516   4.033   6.973 -0.0494  0.3877  0.6645
  177MOL    C4832080   3.529   4.042   7.121  0.3212 -0.6615  0.2098
  177MOL    C4932081   3.644   3.998   6.897  0.0012  0.0371  0.0179
  177MOL    O5032082   3.716   4.087   6.848 -0.5966  0.5158 -1.2502
  177MOL    O5132083   3.670   3.869   6.887  0.4522  0.2917 -0.5691
  177MOL    H5232084   3.440   3.959   6.950 -2.0053  1.9373  1.9191
  177MOL    H5332085   3.573   4.136   7.153 -0.3105  0.1350 -1.1997
  177MOL    H5432086   3.434   4.030   7.173 -0.7766 -1.1593 -1.8529
  177MOL    H5532087   3.586   3.958   7.162 -0.0650 -2.1217 -2.1615
  177MOL    C5632088   3.783   3.828   6.816 -0.6236 -0.4497  0.8825
  177MOL    C5732089   3.755   3.682   6.784 -0.0303  0.0284 -0.0683
  177MOL    C5832090   3.911   3.849   6.897  0.2158  0.1014 -0.7126
  177MOL    O5932091   3.931   3.776   6.989  0.0688 -0.1329  0.0793
  177MOL    O6032092   3.985   3.949   6.861  0.2508  0.2023 -0.1513
  177MOL    H6132093   3.802   3.886   6.726  1.6255 -0.6282  1.2115
  177MOL    H6232094   3.821   3.644   6.706  0.5797 -0.5165  0.7084
  177MOL    H6332095   3.791   3.629   6.872 -0.1351  0.6769  0.3684
  177MOL    H6432096   3.648   3.671   6.765 -0.0716 -2.5855  1.3364
  177MOL    C6532097   4.111   3.975   6.928  0.8356  0.5067  0.8420
  177MOL    C6632098   4.164   4.107   6.879 -0.5208 -0.4226 -0.1915
  177MOL    C6732099   4.210   3.860   6.881 -0.2966 -0.7590  0.1970
  177MOL    O6832100   4.236   3.836   6.764 -0.0386 -0.1863  0.1316
  177MOL    O6932101   4.266   3.798   6.988  0.5048  0.2000 -0.1440
  177MOL    H7032102   4.091   3.970   7.035 -1.1716 -0.7312  0.4305
  177MOL    H7132103   4.096   4.185   6.912 -0.1894 -0.0546 -0.3752
  177MOL    H7232104   4.266   4.119   6.915 -0.6123  0.8596 -0.3313
  177MOL    H7332105   4.165   4.121   6.771 -1.0648 -1.4732 -0.3376
  177MOL    C7432106   4.343   3.679   6.967 -0.2518  0.2043  0.1501
  177MOL    C7532107   4.330   3.605   7.098  0.0258  0.1267  0.4920
  177MOL    C7632108   4.496   3.710   6.929  0.2590 -0.0389 -0.4210
  177MOL    O7732109   4.564   3.632   6.864 -0.1804  0.0761 -0.6027
  177MOL    O7832110   4.533   3.816   6.992  0.3482 -0.4937  0.3763
  177MOL    H7932111   4.310   3.613   6.886 -0.9521  0.0898  0.5282
  177MOL    H8032112   4.226   3.594   7.128 -0.7723 -0.0415 -2.2840
  177MOL    H8132113   4.378   3.508   7.086  1.6673  0.9486  0.2693
  177MOL    H8232114   4.389   3.649   7.179  0.6017  0.6594 -0.2098
  177MOL    C8332115   4.656   3.880   6.964 -0.0209 -0.4941  0.6956
  177MOL    C8432116   4.744   3.904   7.092  0.2564  0.0401 -0.9129
  177MOL    C8532117   4.628   4.017   6.907  0.1047 -0.1744  0.2341
  177MOL    O8632118   4.517   4.073   6.921  0.2510 -0.2389  0.4668
  177MOL    O8732119   4.733   4.072   6.844 -0.0630 -0.2416 -0.4090
  177MOL    H8832120   4.721   3.826   6.895 -1.8789 -2.6877  0.6088
  177MOL    H8932121   4.758   3.819   7.159 -1.7500  0.8988  0.6387
  177MOL    H9032122   4.839   3.953   7.068 -0.1980  1.5962  0.3781
  177MOL    H9132123   4.692   3.970   7.161  0.7369 -0.6384  0.1144
  177MOL    C9232124   4.762   4.205   6.814  0.1495  0.3574  0.4750
  177MOL    C9332125   4.846   4.234   6.692 -0.1682  0.9012  0.0373
  177MOL    C9432126   4.808   4.283   6.940 -0.1375 -0.3295 -0.5039
  177MOL    O9532127   4.779   4.404   6.959 -0.3683  0.0807  0.2611
  177MOL    O9632128   4.872   4.203   7.023 -0.2883 -0.3135  0.4769
  177MOL    H9732129   4.670   4.252   6.779 -0.3008  0.3332  1.5793
  177MOL    H9832130   4.882   4.337   6.690 -2.1933  1.6309 -0.0018
  177MOL    H9932131   4.939   4.177   6.696 -1.0929 -0.6542 -0.2566
  177MOL   H10032132   4.786   4.216   6.602 -1.9503  1.5577  1.0702
  177MOL   C10132133   4.910   4.242   7.157 -0.0848 -0.0901 -0.0462
  177MOL   C10232134   5.033   4.162   7.192  0.0548  0.3247  0.2118
  177MOL   C10332135   4.799   4.234   7.258 -0.5244  0.1783  0.3252
  177MOL   O10432136   4.811   4.163   7.362 -0.0419  0.0902  0.0717
  177MOL   O10532137   4.686   4.305   7.227  0.3179  0.2645 -0.6188
  177MOL   H10632138   4.938   4.348   7.151 -0.7504  0.0525 -0.7069
  177MOL   H10732139   5.018   4.055   7.187  0.2805  0.2327  1.4152
  177MOL   H10832140   5.117   4.196   7.131  0.1662 -1.1431 -0.4591
  177MOL   H10932141   5.066   4.199   7.289 -0.1909  2.0465 -0.3375
  177MOL   C11032142   4.575   4.319   7.315  0.4428  0.1518  0.0936
  177MOL   C11132143   4.609   4.412   7.428 -0.5493  0.0030  0.0070
  177MOL   C11232144   4.515   4.186   7.367  0.4297  0.2336 -0.0879
  177MOL   O11332145   4.479   4.171   7.484 -0.3859  0.1642  0.1981
  177MOL   O11432146   4.490   4.100   7.264  0.1559 -0.8983 -0.0551
  177MOL   H11532147   4.500   4.373   7.257 -1.0688  0.7315  2.5159
  177MOL   H11632148   4.645   4.511   7.399 -1.3158  0.7735  1.6314
  177MOL   H11732149   4.527   4.409   7.501  0.3802 -0.2741  1.0614
  177MOL   H11832150   4.694   4.368   7.480 -0.6773  0.5227  0.6711
  177MOL   C11932151   4.421   3.984   7.284  0.5069  0.4281 -0.7141
  177MOL   C12032152   4.272   4.020   7.260 -0.3707  0.0175 -0.3702
  177MOL   C12132153   4.457   3.879   7.391 -0.3603 -0.1581 -0.1459
  177MOL   O12232154   4.376   3.824   7.462 -0.0781 -0.4754  0.5312
  177MOL   O12332155   4.588   3.857   7.392  0.6904 -0.4786  0.4518
  177MOL   H12432156   4.439   3.945   7.184 -1.7555 -0.3666 -0.8268
  177MOL   H12532157   4.243   4.100   7.329 -0.7101 -0.0605 -0.4204
  177MOL   H12632158   4.259   4.059   7.159 -1.0964  0.0919 -0.2519
  177MOL   H12732159   4.200   3.939   7.273 -0.6595  0.5077  1.1927
  177MOL   C12832160   4.648   3.780   7.496  0.7774 -0.5852 -0.1788
  177MOL   C12932161   4.784   3.841   7.522  0.2866 -0.0296  0.6895
  177MOL   C13032162   4.648   3.635   7.451 -0.0205  0.5208  0.0697
  177MOL   O13132163   4.590   3.593   7.350 -0.2373  0.0185  0.0706
  177MOL   O13232164   4.726   3.560   7.530  0.1517 -0.1875 -0.3342
  177MOL   H13332165   4.586   3.800   7.583 -1.0843  2.0238 -2.0227
  177MOL   H13432166   4.847   3.834   7.433  0.5962 -2.1856  1.0298
  177MOL   H13532167   4.786   3.948   7.539  0.2209 -0.0485  0.8175
  177MOL   H13632168   4.838   3.796   7.606  0.2080 -0.8037  0.3324
  177MOL   C13732169   4.773   3.429   7.494  0.1537  0.4433  0.0001
  177MOL   C13832170   4.821   3.413   7.346  0.3557  0.3495 -0.0285
  177MOL   C13932171   4.664   3.330   7.543 -0.1841  0.1619  0.6840
  177MOL   O14032172   4.576   3.292   7.469  0.1597 -0.1748 -0.2788
  177MOL   O14132173   4.671   3.309   7.678  0.4562 -0.2442  0.8173
  177MOL   H14232174   4.863   3.412   7.553 -0.6495  0.0640  1.1454
  177MOL   H14332175   4.749   3.358   7.286 -0.7015  2.0806 -0.3855
  177MOL   H14432176   4.833   3.512   7.303 -1.5418  0.3001 -0.7180
  177MOL   H14532177   4.917   3.363   7.345  0.4925  0.6355 -2.1958
  177MOL   C14632178   4.562   3.243   7.754  0.4877  1.1894 -0.4586
  177MOL   C14732179   4.531   3.098   7.703 -0.4887  0.3467 -0.0946
  177MOL   C14832180   4.433   3.333   7.748  1.2148  0.9350  0.4000
  177MOL   O14932181   4.322   3.308   7.698 -0.1312  0.0111  0.6672
  177MOL   O15032182   4.463   3.443   7.807  0.2447  0.0915 -0.1742
  177MOL   H15132183   4.594   3.227   7.857 -0.0875 -1.2458 -0.6443
  177MOL   H15232184   4.622   3.055   7.662 -1.7725  0.1095 -2.7759
  177MOL   H15332185   4.476   3.038   7.776 -0.0179 -0.1231 -0.1195
  177MOL   H15432186   4.471   3.104   7.612 -1.0370 -1.1129  0.1411
  177MOL   C15532187   4.371   3.543   7.851 -0.0129  0.1209  0.0618
  177MOL   C15632188   4.462   3.665   7.893 -0.0907 -0.4243  0.4203
  177MOL   C15732189   4.286   3.498   7.966  0.6096  0.2188 -0.6971
  177MOL   O15832190   4.164   3.505   7.946 -0.0462 -0.2076 -0.2191
  177MOL   O15932191   4.352   3.426   8.061 -0.0147  0.4127  0.2638
  177MOL   H16032192   4.319   3.568   7.759  3.7673 -0.2859 -2.2990
  177MOL   H16132193   4.391   3.739   7.931 -1.0649 -0.2150 -1.7129
  177MOL   H16232194   4.536   3.636   7.967 -0.0980 -0.0334  0.5869
  177MOL   H16332195   4.512   3.719   7.813 -0.4021 -2.2077 -1.0038
  177MOL   C16432196   4.276   3.359   0.010  0.2578 -0.5656  0.0772
  177MOL   C16532197   4.339   3.354   0.147  0.1690 -0.5350  0.0852
  177MOL   C16632198   4.223   3.220   8.108 -0.1147 -0.3600 -0.2096
  177MOL   O16732199   4.256   3.163   8.003 -0.0560 -0.7833  0.1629
  177MOL   O16832200   4.152   3.166   0.059 -0.0778 -0.2782 -0.7847
  177MOL   H16932201   4.181   3.402   0.041 -0.0200 -2.0454  1.3792
  177MOL   H17032202   4.316   3.273   0.216 -0.8708  1.0197  1.6037
  177MOL   H17132203   4.448   3.352   0.135  0.1822 -2.8758  0.3756
  177MOL   H17232204   4.323   3.441   0.212 -0.4365 -0.9653  0.5099
  177MOL   C17332205   4.087   3.038   0.040 -0.0382  0.5801  0.4803
  177MOL   C17432206   3.957   3.029   0.125  0.3937  0.3889  0.4234
  177MOL   C17532207   4.181   2.928   0.079  0.0676  0.2737 -0.6846
  177MOL   O17632208   4.198   2.825   0.011 -0.3768 -0.1418 -0.0980
  177MOL   O17732209   4.221   2.949   0.208 -0.4072  0.3976  0.2775
  177MOL   H17832210   4.060   3.014   8.085 -2.1964 -1.6176  1.5333
  177MOL   H17932211   3.892   3.108   0.088 -1.0092 -0.8869  0.1400
  177MOL   H18032212   3.913   2.930   0.118 -1.2980  0.9448  2.3726
  177MOL   H18132213   3.969   3.047   0.232 -1.0767  1.7912  0.3743
  177MOL   H18232214   4.271   2.876   0.241  0.0436  0.3258 -0.5276
  178MOL     C132215   3.061   6.376   2.011  0.2727 -0.3715 -0.1389
  178MOL     C232216   2.970   6.497   1.965 -0.1400 -0.1617  0.8925
  178MOL     C332217   3.034   6.248   1.928  0.9280 -0.0135 -0.0032
  178MOL     O432218   3.022   6.248   1.809 -0.1071 -0.4485  0.3089
  178MOL     O532219   3.032   6.139   2.004  0.2129  0.3487 -0.0705
  178MOL     H632220   3.167   6.400   2.010  0.0541  0.6068  0.3326
  178MOL     H732221   2.869   6.459   1.958  0.4777 -1.5494 -1.3248
  178MOL     H832222   2.978   6.576   2.039  0.0920 -0.1368  0.8430
  178MOL     H932223   2.989   6.536   1.864  0.9804 -0.0319  1.1460
  178MOL    H1032224   3.027   6.357   2.112 -0.3473 -2.1914 -0.6651
  178MOL    C1132225   3.033   5.998   1.952 -0.3982 -0.2865 -0.1716
  178MOL    C1232226   2.941   5.921   2.051  0.4311  0.4728  0.4370
  178MOL    C1332227   3.183   5.958   1.947  0.5032  0.0144 -0.4401
  178MOL    O1432228   3.220   5.848   1.981 -0.0393  0.2617 -0.2161
  178MOL    O1532229   3.261   6.059   1.899 -0.4508  0.0875 -0.5344
  178MOL    H1632230   2.986   5.996   1.853 -0.2186 -0.3179 -0.2569
  178MOL    H1732231   2.973   5.927   2.155  0.8887 -0.1394  0.3339
  178MOL    H1832232   2.839   5.956   2.040  0.7477  1.4637  0.6326
  178MOL    H1932233   2.935   5.817   2.018 -1.0318  0.2577  1.3670
  178MOL    C2032234   3.403   6.036   1.871 -0.2224 -0.3857 -0.6355
  178MOL    C2132235   3.481   6.176   1.873  0.4480 -1.0316 -0.4999
  178MOL    C2232236   3.423   5.979   1.733  0.5215  0.6669 -0.5275
  178MOL    O2332237   3.330   5.975   1.652 -0.4933 -0.4703  0.1852
  178MOL    O2432238   3.545   5.926   1.711  0.1120  0.2621  0.7523
  178MOL    H2532239   3.440   5.969   1.948 -0.0214 -1.4873 -1.6811
  178MOL    H2632240   3.586   6.160   1.853  1.1004  1.6560  0.4686
  178MOL    H2732241   3.431   6.233   1.794 -0.9546  2.0632  2.4642
  178MOL    H2832242   3.479   6.215   1.975 -1.6746 -0.2702 -0.7886
  178MOL    C2932243   3.559   5.839   1.604 -0.4535  0.0584 -0.2858
  178MOL    C3032244   3.630   5.719   1.662  0.5126  0.2734  0.5293
  178MOL    C3132245   3.645   5.901   1.489  0.4575 -0.1158  0.5284
  178MOL    O3232246   3.703   6.011   1.510  0.1574 -0.4386 -0.7042
  178MOL    O3332247   3.649   5.833   1.376 -0.0220  0.0001  0.0112
  178MOL    H3432248   3.468   5.802   1.557  0.2441 -1.7196 -0.2779
  178MOL    H3532249   3.649   5.633   1.597  2.5992  1.0968 -0.0040
  178MOL    H3632250   3.726   5.763   1.691  0.0134  0.6918  1.5659
  178MOL    H3732251   3.577   5.683   1.749  1.2034 -1.5996  0.2100
  178MOL    C3832252   3.758   5.855   1.280  0.4001 -0.4304 -0.4923
  178MOL    C3932253   3.717   5.799   1.147  0.2436 -0.3176  0.6703
  178MOL    C4032254   3.890   5.796   1.325  0.3105  0.7503 -0.2713
  178MOL    O4132255   3.894   5.717   1.414  0.3891 -0.7208  0.0383
  178MOL    O4232256   3.999   5.847   1.270  0.2689  0.0859 -0.6452
  178MOL    H4332257   3.770   5.962   1.262 -1.5207  0.0512  0.9723
  178MOL    H4432258   3.803   5.801   1.080 -0.1369  0.4860  0.1999
  178MOL    H4532259   3.672   5.700   1.150  0.7165 -0.6072 -1.1596
  178MOL    H4632260   3.639   5.868   1.116 -0.7408 -1.2982  0.9514
  178MOL    C4732261   4.135   5.833   1.319  0.1493 -0.6861 -0.1437
  178MOL    C4832262   4.228   5.926   1.250 -0.1971 -0.1076  0.0606
  178MOL    C4932263   4.180   5.686   1.296  0.2352  0.6976 -0.1460
  178MOL    O5032264   4.210   5.610   1.388 -0.1829  1.1589 -0.5454
  178MOL    O5132265   4.181   5.652   1.163 -0.0753 -0.5966  0.1541
  178MOL    H5232266   4.143   5.854   1.425 -0.7363  0.5943 -0.3176
  178MOL    H5332267   4.232   5.908   1.142 -0.5666 -1.1390  0.2092
  178MOL    H5432268   4.196   6.028   1.269 -0.7703 -0.5109  1.2766
  178MOL    H5532269   4.329   5.911   1.286  0.0264 -2.6418 -1.4591
  178MOL    C5632270   4.223   5.523   1.121 -0.0465 -0.4159  0.1365
  178MOL    C5732271   4.379   5.521   1.118  0.5683 -0.1249 -0.2381
  178MOL    C5832272   4.166   5.500   0.981  0.3866  0.3833  1.0874
  178MOL    O5932273   4.109   5.593   0.923  0.5563 -0.2299  0.2313
  178MOL    O6032274   4.150   5.369   0.947  0.1888  0.0011  0.1641
  178MOL    H6132275   4.176   5.450   1.186 -1.9765 -0.1340 -0.8943
  178MOL    H6232276   4.415   5.624   1.120  0.5832 -0.1122 -0.9896
  178MOL    H6332277   4.412   5.462   1.203  0.2187 -2.5359 -1.7382
  178MOL    H6432278   4.418   5.465   1.033 -0.5011  0.2486 -0.9874
  178MOL    C6532279   4.073   5.330   0.839  0.0411  0.8468  0.2850
  178MOL    C6632280   4.000   5.200   0.878  0.1659  0.5563 -0.2175
  178MOL    C6732281   4.170   5.286   0.725  0.2782  0.2561 -0.3336
  178MOL    O6832282   4.288   5.265   0.750  0.1464  0.0946 -0.2193
  178MOL    O6932283   4.096   5.283   0.615  0.3845 -0.3139 -0.1568
  178MOL    H7032284   4.003   5.406   0.802 -3.0803 -2.3572 -0.7319
  178MOL    H7132285   3.933   5.167   0.799  1.8087  1.3297 -1.9792
  178MOL    H7232286   4.058   5.108   0.886 -2.3847 -1.3583 -2.6759
  178MOL    H7332287   3.953   5.195   0.976 -0.3805  0.3612 -0.4838
  178MOL    C7432288   4.157   5.247   0.490 -0.7008  0.1576  0.3494
  178MOL    C7532289   4.109   5.329   0.370  0.2418  0.2071 -0.3633
  178MOL    C7632290   4.137   5.095   0.469 -0.0091 -0.2128  0.5202
  178MOL    O7732291   4.233   5.014   0.475  0.4521  0.0937 -0.7537
  178MOL    O7832292   4.021   5.062   0.443 -0.2900 -0.0893 -0.0705
  178MOL    H7932293   4.265   5.263   0.482 -0.5551 -1.0963 -0.2796
  178MOL    H8032294   4.068   5.425   0.400  0.7677 -0.7236  3.5578
  178MOL    H8132295   4.182   5.334   0.289 -0.3787  1.4690 -0.8557
  178MOL    H8232296   4.029   5.279   0.315  2.4341 -1.5686 -2.0348
  178MOL    C8332297   3.978   4.934   0.413 -0.1789  0.3102 -0.2753
  178MOL    C8432298   3.982   4.915   0.259 -0.5181 -0.0524  0.5384
  178MOL    C8532299   3.838   4.913   0.476 -0.6850  0.1213 -0.3076
  178MOL    O8632300   3.734   4.909   0.409  0.2751  0.6988 -0.1562
  178MOL    O8732301   3.841   4.904   0.607  0.6354 -0.2583 -0.2796
  178MOL    H8832302   4.043   4.861   0.461 -0.4963  1.1369  1.4464
  178MOL    H8932303   3.936   4.818   0.236  0.6770 -0.6395  0.5959
  178MOL    H9032304   3.912   4.990   0.223  0.0153  0.9335  1.5312
  178MOL    H9132305   4.080   4.932   0.216  0.2982  0.4828  2.5586
  178MOL    C9232306   3.741   4.827   0.679  0.0914  0.5613  0.1125
  178MOL    C9332307   3.742   4.898   0.811  0.4654  0.1163  0.0421
  178MOL    C9432308   3.792   4.679   0.698 -1.0797 -0.3839 -0.6880
  178MOL    O9532309   3.721   4.578   0.677  0.1756  0.9184  0.2456
  178MOL    O9632310   3.922   4.675   0.734  0.1404 -0.0135  0.5360
  178MOL    H9732311   3.645   4.821   0.629  1.2559 -0.6882 -2.0254
  178MOL    H9832312   3.682   4.839   0.881 -0.4027  1.8152  0.7776
  178MOL    H9932313   3.839   4.887   0.860 -0.2336 -2.2389  0.9855
  178MOL   H10032314   3.705   5.001   0.808 -1.2480 -0.5312 -1.8765
  178MOL   C10132315   3.994   4.551   0.753  0.5244  0.2383  0.0590
  178MOL   C10232316   4.124   4.613   0.795 -0.2387 -0.1229  0.2718
  178MOL   C10332317   4.007   4.478   0.617 -0.4151 -0.3923  0.6788
  178MOL   O10432318   3.979   4.358   0.596 -0.1080 -0.0606  0.1729
  178MOL   O10532319   4.076   4.562   0.524 -0.5219 -0.0466  0.0738
  178MOL   H10632320   3.953   4.482   0.828  0.2670  1.5864  1.1908
  178MOL   H10732321   4.134   4.636   0.901 -1.7777 -2.4740  0.9658
  178MOL   H10832322   4.216   4.567   0.758  0.0153  0.6786 -0.1032
  178MOL   H10932323   4.145   4.710   0.750  0.7216  0.3162  1.6195
  178MOL   C11032324   4.115   4.518   0.397  0.0085 -0.4272 -0.3796
  178MOL   C11132325   4.211   4.625   0.335  0.4704  0.5661 -0.0329
  178MOL   C11232326   3.999   4.496   0.301 -0.4958  0.4009  0.1373
  178MOL   O11332327   4.002   4.399   0.225  0.1238  0.0191 -0.0384
  178MOL   O11432328   3.899   4.596   0.291 -0.2227  0.1966  0.1300
  178MOL   H11532329   4.174   4.430   0.422 -2.1380 -1.2963  1.9642
  178MOL   H11632330   4.167   4.724   0.318 -3.8517 -1.1548  0.5658
  178MOL   H11732331   4.289   4.635   0.411  2.0600 -3.1889 -1.0549
  178MOL   H11832332   4.263   4.601   0.241  2.5328  0.7879  1.0111
  178MOL   C11932333   3.801   4.605   0.193  0.4099 -0.0298  0.0984
  178MOL   C12032334   3.701   4.485   0.199 -0.3481  0.2627  0.1622
  178MOL   C12132335   3.861   4.618   0.053  0.4637 -0.3010  0.0049
  178MOL   O12232336   3.987   4.618   0.035 -0.5373  0.0432 -0.0766
  178MOL   O12332337   3.767   4.635   8.108  0.3909  0.5236 -0.4400
  178MOL   H12432338   3.750   4.700   0.206 -0.9577 -0.7543  0.1918
  178MOL   H12532339   3.608   4.510   0.149  0.7493  2.0869 -1.0080
  178MOL   H12632340   3.732   4.395   0.147 -1.5482  0.8636 -1.6457
  178MOL   H12732341   3.671   4.461   0.301 -0.8968 -0.6967 -0.2200
  178MOL   C12832342   3.794   4.623   7.967  0.0433 -0.2528  0.3391
  178MOL   C12932343   3.738   4.742   7.892  0.7132 -0.4464  0.4384
  178MOL   C13032344   3.745   4.495   7.908  0.0657 -0.2017  0.3888
  178MOL   O13132345   3.652   4.434   7.960  0.2897  0.4046 -0.0801
  178MOL   O13232346   3.806   4.473   7.790  0.8542 -0.1382 -0.0473
  178MOL   H13332347   3.900   4.624   7.940 -0.2702 -2.8162 -1.1921
  178MOL   H13432348   3.644   4.792   7.915  0.4251  0.3844 -2.3795
  178MOL   H13532349   3.804   4.825   7.918  0.0595  0.2555 -0.1368
  178MOL   H13632350   3.740   4.729   7.784 -1.4262 -2.2256  0.5608
  178MOL   C13732351   3.757   4.389   7.688  0.4930  0.0785 -0.1635
  178MOL   C13832352   3.828   4.262   7.700 -0.1924 -0.3837  0.2388
  178MOL   C13932353   3.781   4.465   7.554 -0.2251 -0.5523  0.4317
  178MOL   O14032354   3.869   4.433   7.477 -0.3951  0.1248 -0.2221
  178MOL   O14132355   3.692   4.559   7.527 -0.2107  0.3857 -0.0172
  178MOL   H14232356   3.648   4.383   7.691  0.4703  1.1177  4.2501
  178MOL   H14332357   3.933   4.290   7.697 -0.7798  1.9561  0.1895
  178MOL   H14432358   3.809   4.221   7.799 -1.4072 -1.9537 -0.6161
  178MOL   H14532359   3.810   4.181   7.629  0.5909  0.4117 -0.8746
  178MOL   C14632360   3.679   4.628   7.396 -0.3669  0.4618 -0.0418
  178MOL   C14732361   3.566   4.732   7.429  0.3408  0.2095  0.4037
  178MOL   C14832362   3.642   4.526   7.272  0.1396 -0.1325 -0.4193
  178MOL   O14932363   3.540   4.549   7.211 -0.5987 -0.2063 -0.0101
  178MOL   O15032364   3.734   4.439   7.234  0.2876  0.1944 -0.2411
  178MOL   H15132365   3.778   4.671   7.378 -0.8120  2.0643  1.1774
  178MOL   H15232366   3.609   4.809   7.493 -0.0320 -0.3828  1.3849
  178MOL   H15332367   3.537   4.787   7.339 -0.2950 -0.4613  0.1949
  178MOL   H15432368   3.482   4.686   7.481 -1.0628  1.3870 -0.7752
  178MOL   C15532369   3.737   4.377   7.109  0.1527 -0.0968 -0.0799
  178MOL   C15632370   3.850   4.274   7.127  0.2555  0.6752 -0.8038
  178MOL   C15732371   3.771   4.463   6.995  0.2193  0.1492  0.6182
  178MOL   O15832372   3.827   4.575   7.019  0.1118 -0.2733  0.3111
  178MOL   O15932373   3.733   4.412   6.868 -0.5245 -0.5266 -0.7045
  178MOL   H16032374   3.639   4.330   7.100  0.4434 -0.8084  0.4445
  178MOL   H16132375   3.948   4.317   7.152  1.2692 -2.3929  0.7528
  178MOL   H16232376   3.830   4.221   7.220 -1.5560  0.7911 -1.1195
  178MOL   H16332377   3.856   4.196   7.052 -2.8940 -1.7324  1.3112
  178MOL   C16432378   3.783   4.454   6.738 -1.0030 -0.3229 -0.2037
  178MOL   C16532379   3.786   4.329   6.654  0.2973  0.0702 -0.0008
  178MOL   C16632380   3.924   4.510   6.732 -0.4090  0.4508  0.8205
  178MOL   O16732381   4.023   4.439   6.756  0.7562  0.3347 -0.5123
  178MOL   O16832382   3.921   4.640   6.706 -0.1675  0.2568  0.6569
  178MOL   H16932383   3.709   4.526   6.702  1.0861  2.7990  1.5449
  178MOL   H17032384   3.691   4.277   6.668  0.3882 -0.3552 -0.8692
  178MOL   H17132385   3.790   4.355   6.548  0.0697  2.0439  0.4559
  178MOL   H17232386   3.862   4.259   6.686  1.6993  1.1185 -0.9759
  178MOL   C17332387   4.046   4.708   6.678  0.1134  0.7025  0.5694
  178MOL   C17432388   4.055   4.825   6.769 -0.0915 -0.1082  0.3374
  178MOL   C17532389   4.063   4.742   6.529 -0.6833  0.7738 -0.7692
  178MOL   O17632390   4.159   4.707   6.462 -0.1802  0.2545 -0.0884
  178MOL   O17732391   3.971   4.824   6.487 -0.0180 -0.4622  0.0669
  178MOL   H17832392   4.127   4.640   6.703  0.0630  0.4515  0.0611
  178MOL   H17932393   3.964   4.884   6.762  0.3256  0.3123 -1.9683
  178MOL   H18032394   4.089   4.801   6.870  0.8598  0.6073  0.1982
  178MOL   H18132395   4.130   4.898   6.739 -0.8182  0.0843 -1.0315
  178MOL   H18232396   4.004   4.877   6.416  0.4600 -0.1457  0.5229
  179MOL     C132397   5.856   2.011   4.464 -0.0831  0.0464 -0.3986
  179MOL     C232398   5.916   2.132   4.393  0.4256  0.8290  0.5930
  179MOL     C332399   5.718   2.033   4.533 -1.0265  0.4839  0.2534
  179MOL     O432400   5.669   2.138   4.532 -0.2302  0.1950 -0.5095
  179MOL     O532401   5.663   1.924   4.597 -0.8139 -0.0301  0.1250
  179MOL     H632402   5.848   1.926   4.396  0.1080 -0.3404  0.0618
  179MOL     H732403   5.964   2.105   4.300 -1.7110  0.4959 -0.4420
  179MOL     H832404   5.840   2.205   4.363  0.0096  0.4563  0.7359
  179MOL     H932405   5.986   2.181   4.461 -0.0060  0.2352  1.4672
  179MOL    H1032406   5.916   1.990   4.552 -1.0553 -1.3416 -0.0661
  179MOL    C1132407   5.540   1.930   4.666 -0.6250 -0.2531  0.0436
  179MOL    C1232408   5.544   1.825   4.775 -0.1381 -0.2655 -0.6676
  179MOL    C1332409   5.419   1.913   4.570  0.0910 -0.2026  0.5075
  179MOL    O1432410   5.435   1.857   4.461  0.5070 -0.6854  0.4259
  179MOL    O1532411   5.310   1.983   4.613  0.3646  0.2604 -0.5537
  179MOL    H1632412   5.530   2.031   4.704 -1.8323 -0.2588 -0.2464
  179MOL    H1732413   5.464   1.833   4.849 -0.4377 -1.4249 -0.8606
  179MOL    H1832414   5.541   1.722   4.737 -0.6629 -0.7120  0.5675
  179MOL    H1932415   5.638   1.822   4.829 -0.8606  0.9167  0.6911
  179MOL    C2032416   5.189   1.992   4.541  0.1305  1.2292 -0.0806
  179MOL    C2132417   5.116   1.856   4.523  1.1525 -0.2983 -0.4862
  179MOL    C2232418   5.204   2.079   4.413 -0.4444  0.1361 -0.2958
  179MOL    O2332419   5.171   2.047   4.302  0.5750  0.1825 -0.2076
  179MOL    O2432420   5.265   2.196   4.450  0.5095 -0.1225 -0.8235
  179MOL    H2532421   5.126   2.063   4.595 -0.6533  0.2802  0.2542
  179MOL    H2632422   5.185   1.780   4.487  1.5611 -1.1586  2.0080
  179MOL    H2732423   5.066   1.805   4.606  1.5033  1.2832  0.7118
  179MOL    H2832424   5.040   1.858   4.445  1.9052  1.4798 -1.1835
  179MOL    C2932425   5.292   2.302   4.361  0.0825  0.3863 -0.6464
  179MOL    C3032426   5.417   2.374   4.408  0.7178 -0.3102  0.1066
  179MOL    C3132427   5.178   2.402   4.360 -0.6365 -0.1466  0.6595
  179MOL    O3232428   5.131   2.435   4.253 -0.7932 -0.0524 -0.4698
  179MOL    O3332429   5.140   2.442   4.485  0.0924 -0.0847  0.0553
  179MOL    H3432430   5.317   2.264   4.262  0.6849 -1.3743  0.1590
  179MOL    H3532431   5.416   2.439   4.495  0.1696 -1.0530  0.6589
  179MOL    H3632432   5.496   2.299   4.405 -0.8657 -1.9532 -3.0768
  179MOL    H3732433   5.440   2.444   4.328 -1.8375 -1.8938 -2.1050
  179MOL    C3832434   5.040   2.541   4.505  0.2337  0.3310 -0.0506
  179MOL    C3932435   5.068   2.562   4.659  0.1082 -0.6791  0.0258
  179MOL    C4032436   4.903   2.486   4.472 -0.1637 -0.4798 -0.6192
  179MOL    O4132437   4.879   2.366   4.474 -0.4035  0.3308  0.1034
  179MOL    O4232438   4.820   2.587   4.449 -0.2676 -0.3776  0.1869
  179MOL    H4332439   5.066   2.623   4.439 -0.8324  1.4402  0.9046
  179MOL    H4432440   5.017   2.479   4.709 -1.2054 -0.0882 -0.3384
  179MOL    H4532441   5.176   2.559   4.679 -0.1233 -0.9159  1.2691
  179MOL    H4632442   5.023   2.652   4.699 -2.2821 -1.8190 -0.0565
  179MOL    C4732443   4.681   2.566   4.432  0.7643 -0.3665  0.7368
  179MOL    C4832444   4.621   2.682   4.351 -0.3405  0.0517 -0.3738
  179MOL    C4932445   4.610   2.563   4.571 -0.3369  0.6153 -0.3690
  179MOL    O5032446   4.493   2.526   4.594 -0.0887  0.4186 -0.1768
  179MOL    O5132447   4.698   2.608   4.665  0.6850 -0.2105 -0.5012
  179MOL    H5232448   4.666   2.469   4.383 -1.1348 -0.4719  1.4931
  179MOL    H5332449   4.685   2.703   4.265  0.0297 -1.6115 -0.5225
  179MOL    H5432450   4.521   2.660   4.314 -0.5655 -1.2738  0.9908
  179MOL    H5532451   4.612   2.776   4.405 -2.4494 -0.8773  0.9722
  179MOL    C5632452   4.667   2.598   4.800 -0.6954  0.4953  0.0628
  179MOL    C5732453   4.757   2.690   4.890 -0.2325  0.2438  0.1226
  179MOL    C5832454   4.678   2.452   4.842 -0.2131  0.3365 -0.0533
  179MOL    O5932455   4.748   2.371   4.779  0.4156  0.0786  0.1592
  179MOL    O6032456   4.600   2.420   4.944 -0.4634  0.1271 -0.1185
  179MOL    H6132457   4.561   2.614   4.814 -1.1806 -1.9151 -0.5809
  179MOL    H6232458   4.725   2.694   4.994 -0.6135  1.3256 -0.0338
  179MOL    H6332459   4.859   2.655   4.873 -0.9070 -2.3232  1.1785
  179MOL    H6432460   4.762   2.788   4.841 -0.3086 -0.5204 -1.4517
  179MOL    C6532461   4.618   2.293   5.014  0.1838 -0.5805 -0.4333
  179MOL    C6632462   4.540   2.189   4.937 -0.1331 -0.7503  0.2861
  179MOL    C6732463   4.563   2.291   5.161 -0.4665  0.0951  0.0729
  179MOL    O6832464   4.504   2.194   5.208  0.8154  0.2837  0.5520
  179MOL    O6932465   4.579   2.405   5.226  0.2714 -0.0304  0.0903
  179MOL    H7032466   4.723   2.264   5.016  0.3437  0.0896  1.5326
  179MOL    H7132467   4.593   2.171   4.844 -0.6120  0.6610 -0.2806
  179MOL    H7232468   4.547   2.093   4.988  1.5396 -2.4622 -3.0014
  179MOL    H7332469   4.442   2.231   4.915  0.3490  0.2618  0.0692
  179MOL    C7432470   4.561   2.423   5.366  0.5381  0.7956  0.3418
  179MOL    C7532471   4.522   2.570   5.391 -0.6343  0.3804 -0.5219
  179MOL    C7632472   4.688   2.393   5.435  0.2423 -0.4901 -0.2939
  179MOL    O7732473   4.796   2.434   5.390  0.4947  0.3326 -0.7051
  179MOL    O7832474   4.672   2.341   5.561  0.3028 -0.1323  0.1958
  179MOL    H7932475   4.483   2.361   5.411  0.6710  1.5232  1.5904
  179MOL    H8032476   4.418   2.592   5.367 -0.7047  1.5726  0.7631
  179MOL    H8132477   4.515   2.584   5.499  0.0148 -0.7247 -0.3399
  179MOL    H8232478   4.592   2.647   5.357  1.8465 -0.2368  2.9053
  179MOL    C8332479   4.781   2.339   5.655  0.4664  0.5245  0.4465
  179MOL    C8432480   4.728   2.273   5.789 -0.4198  0.9175  0.3004
  179MOL    C8532481   4.852   2.472   5.686 -0.4271 -0.2092  0.7508
  179MOL    O8632482   4.977   2.472   5.701 -0.4129 -0.0232 -0.1021
  179MOL    O8732483   4.772   2.570   5.722 -0.2942 -0.4869  0.1230
  179MOL    H8832484   4.852   2.271   5.608 -1.3411 -1.4872  0.5484
  179MOL    H8932485   4.791   2.268   5.878 -0.3649 -1.7628  0.1529
  179MOL    H9032486   4.638   2.319   5.828  0.4316  0.6969  2.5813
  179MOL    H9132487   4.697   2.171   5.766  1.4271  0.5458 -0.7006
  179MOL    C9232488   4.813   2.706   5.734 -0.2425  0.6172  0.5413
  179MOL    C9332489   4.891   2.712   5.866 -0.8757  0.1539  0.6105
  179MOL    C9432490   4.685   2.784   5.727  0.2577  0.3441  0.4478
  179MOL    O9532491   4.610   2.764   5.631 -0.0516 -0.0919  0.2534
  179MOL    O9632492   4.663   2.855   5.839 -0.4259 -0.1692  0.2724
  179MOL    H9732493   4.876   2.726   5.647 -1.7269  1.6214 -0.3223
  179MOL    H9832494   4.907   2.818   5.884 -0.1738 -0.2284  2.3024
  179MOL    H9932495   4.840   2.657   5.945 -1.8376  0.9147  0.5220
  179MOL   H10032496   4.990   2.666   5.869 -0.2573  1.2888 -1.2826
  179MOL   C10132497   4.538   2.916   5.851  0.5046  0.1880 -0.2206
  179MOL   C10232498   4.538   3.042   5.763  0.8883 -0.3811  0.4687
  179MOL   C10332499   4.517   2.952   5.998  0.6611 -0.2265 -0.0794
  179MOL   O10432500   4.411   2.936   6.059  0.5793 -0.0797  0.1771
  179MOL   O10532501   4.625   3.010   6.049  0.7656  0.3369  0.8497
  179MOL   H10632502   4.459   2.847   5.822  0.2133  0.7195 -0.6937
  179MOL   H10732503   4.608   3.121   5.790 -1.5585  1.1866  2.4618
  179MOL   H10832504   4.549   3.005   5.661 -2.4999  0.5704 -0.2779
  179MOL   H10932505   4.452   3.107   5.774  3.1875  2.8683 -0.0840
  179MOL   C11032506   4.633   3.049   6.183 -0.0193  0.1512 -0.6717
  179MOL   C11132507   4.589   3.201   6.200  0.3901 -0.3528  0.2871
  179MOL   C11232508   4.785   3.031   6.221 -0.9260  0.3572  0.1181
  179MOL   O11332509   4.866   2.959   6.161  0.7499 -0.2914  0.3987
  179MOL   O11432510   4.809   3.096   6.330 -0.8512  0.5243 -0.8816
  179MOL   H11532511   4.563   2.997   6.249 -0.4918  1.2228 -0.3149
  179MOL   H11632512   4.652   3.284   6.168  0.6070  0.0374  1.6523
  179MOL   H11732513   4.493   3.218   6.151  0.7557  1.9631  0.2787
  179MOL   H11832514   4.582   3.229   6.306  1.5016 -1.0946  0.5623
  179MOL   C11932515   4.939   3.133   6.369  0.0900  0.3525 -0.3505
  179MOL   C12032516   4.944   3.181   6.515 -0.7445 -0.4054 -0.0349
  179MOL   C12132517   5.011   3.230   6.273 -0.3093  0.0448 -0.4243
  179MOL   O12232518   4.941   3.301   6.195  0.7375 -0.0540  0.3365
  179MOL   O12332519   5.145   3.215   6.264 -0.1343 -0.6040  0.4570
  179MOL   H12432520   5.001   3.043   6.367  0.3222  0.5154 -0.3927
  179MOL   H12532521   5.029   3.246   6.537 -0.5628 -1.6094  2.9633
  179MOL   H12632522   4.852   3.232   6.545  0.2615  0.8747  0.9437
  179MOL   H12732523   4.952   3.105   6.592 -0.4575 -0.0141  0.3257
  179MOL   C12832524   5.220   3.308   6.177 -0.0371 -0.7664 -0.7813
  179MOL   C12932525   5.361   3.244   6.181  0.0997  0.4267 -0.8359
  179MOL   C13032526   5.220   3.451   6.229  0.4269  0.2121 -0.5791
  179MOL   O13132527   5.188   3.536   6.146 -0.4135 -0.4057  0.2498
  179MOL   O13232528   5.249   3.472   6.353 -0.0355 -0.4361  0.3871
  179MOL   H13332529   5.165   3.305   6.082  1.1343 -0.8660 -1.4644
  179MOL   H13432530   5.371   3.139   6.152 -0.3057  0.3083 -0.5474
  179MOL   H13532531   5.422   3.302   6.112 -0.1367  3.1315  1.1525
  179MOL   H13632532   5.409   3.256   6.278 -0.4170  0.9163 -0.6388
  179MOL   C13732533   5.217   3.594   6.414  0.1941 -0.2118  0.2399
  179MOL   C13832534   5.268   3.596   6.555  0.4067 -0.0648 -0.9554
  179MOL   C13932535   5.062   3.608   6.416 -0.4139 -0.2355 -1.4202
  179MOL   O14032536   4.996   3.536   6.486 -0.3616  0.6337  0.2248
  179MOL   O14132537   5.015   3.709   6.342 -0.1417 -0.3052 -0.1348
  179MOL   H14232538   5.269   3.673   6.361 -0.4156 -0.5770 -0.9395
  179MOL   H14332539   5.373   3.567   6.558  1.1713  2.6961  0.6247
  179MOL   H14432540   5.240   3.687   6.607 -2.3790 -0.6485 -1.3642
  179MOL   H14532541   5.210   3.521   6.609 -1.0939  0.4791 -1.7941
  179MOL   C14632542   4.874   3.732   6.321 -0.5291  0.1597 -0.1973
  179MOL   C14732543   4.849   3.782   6.168 -0.1611  0.4861 -0.2733
  179MOL   C14832544   4.815   3.834   6.424 -0.6085  0.1293 -0.1695
  179MOL   O14932545   4.874   3.874   6.524  0.4875  0.5168 -0.0198
  179MOL   O15032546   4.691   3.867   6.391 -0.3745 -0.4436  0.5263
  179MOL   H15132547   4.822   3.636   6.331 -0.0304  0.0880  1.9722
  179MOL   H15232548   4.894   3.879   6.146 -1.8083  0.8333 -2.3211
  179MOL   H15332549   4.895   3.721   6.090  1.6031  2.4335 -0.7964
  179MOL   H15432550   4.745   3.799   6.139 -0.7683 -2.9126 -0.2934
  179MOL   C15532551   4.616   3.965   6.464  0.0743  0.9432 -0.3718
  179MOL   C15632552   4.478   3.907   6.474  0.2016  0.1985 -0.3044
  179MOL   C15732553   4.618   4.101   6.398 -0.4158 -0.4844 -0.2994
  179MOL   O15832554   4.656   4.117   6.283 -0.0333  0.2218  0.6046
  179MOL   O15932555   4.566   4.201   6.478  0.0543  0.3125 -0.0175
  179MOL   H16032556   4.671   3.978   6.558  0.6314  1.1305 -0.7215
  179MOL   H16132557   4.401   3.977   6.507 -1.0565 -0.7764 -1.1515
  179MOL   H16232558   4.448   3.873   6.375 -0.2272  0.4841 -0.2728
  179MOL   H16332559   4.482   3.829   6.550 -1.4869  1.2875  0.9434
  179MOL   C16432560   4.550   4.334   6.431  0.7948  0.7469 -0.4467
  179MOL   C16532561   4.521   4.419   6.555 -0.0502  0.3175  0.6566
  179MOL   C16632562   4.433   4.341   6.326 -0.1770  0.3530 -0.5278
  179MOL   O16732563   4.453   4.398   6.219 -0.3341  0.4766 -0.2287
  179MOL   O16832564   4.320   4.280   6.357 -0.3553 -0.2118  0.0081
  179MOL   H16932565   4.639   4.377   6.387  1.9292  0.3170  1.3814
  179MOL   H17032566   4.428   4.379   6.597 -0.9754  0.7762 -0.9007
  179MOL   H17132567   4.602   4.409   6.627 -0.1797 -2.4159  0.4707
  179MOL   H17232568   4.501   4.524   6.534  1.4550  0.8664  1.9250
  179MOL   C17332569   4.201   4.282   6.277 -0.7411 -0.3665 -0.5507
  179MOL   C17432570   4.073   4.301   6.362  0.1803  0.3834  0.3462
  179MOL   C17532571   4.180   4.148   6.208 -0.2153  0.4075  0.6776
  179MOL   O17632572   4.075   4.084   6.206  0.1233 -0.1126 -0.4884
  179MOL   O17732573   4.289   4.106   6.143  0.4065 -0.2101  0.1874
  179MOL   H17832574   4.208   4.356   6.197 -2.4157  0.0143 -0.3567
  179MOL   H17932575   4.070   4.229   6.445 -0.8835  0.1103  0.0774
  179MOL   H18032576   4.064   4.394   6.418 -1.6451  1.1575 -1.2042
  179MOL   H18132577   3.983   4.280   6.305 -0.0084  0.7277  0.5208
  179MOL   H18232578   4.262   4.023   6.108 -0.3462 -0.1022  0.5144
  180MOL     C132579   4.868   6.452   6.028 -0.0846 -0.1464 -0.4542
  180MOL     C232580   4.897   6.508   5.885  0.3152  0.2425  0.3093
  180MOL     C332581   4.877   6.301   6.040  0.6865 -0.2836  0.0093
  180MOL     O432582   4.810   6.228   5.966 -0.6463  0.1619 -0.3825
  180MOL     O532583   4.949   6.262   6.153 -0.1256  0.0795  0.4846
  180MOL     H632584   4.925   6.500   6.108  0.8803  0.0493 -1.2561
  180MOL     H732585   4.878   6.449   5.795 -1.1777 -1.6754  1.8273
  180MOL     H832586   4.856   6.607   5.865 -0.2939  0.1939  1.2887
  180MOL     H932587   5.001   6.538   5.888  0.1502  0.9072 -0.3516
  180MOL    H1032588   4.766   6.477   6.057  0.7399 -0.1808  2.7306
  180MOL    C1132589   4.940   6.130   6.204  0.1485  0.3182 -0.2641
  180MOL    C1232590   5.018   6.020   6.121  0.0151  0.3866 -0.4289
  180MOL    C1332591   4.791   6.094   6.248  0.3121 -0.1714  0.8282
  180MOL    O1432592   4.702   6.176   6.251 -0.2999  0.4415  0.4807
  180MOL    O1532593   4.768   5.962   6.281 -0.2593 -0.0937 -0.6893
  180MOL    H1632594   4.991   6.118   6.299 -2.2453  1.1482  1.1513
  180MOL    H1732595   4.981   5.917   6.127  0.3064  0.1329 -2.6536
  180MOL    H1832596   5.001   6.039   6.015  1.2834  0.5802 -0.6058
  180MOL    H1932597   5.126   6.019   6.134  0.0988  2.0908 -0.8316
  180MOL    C2032598   4.638   5.919   6.330 -0.0252  0.2062 -0.0826
  180MOL    C2132599   4.521   5.887   6.228  0.4456  0.7308  0.2532
  180MOL    C2232600   4.580   5.997   6.457 -0.0325  0.2370  0.6732
  180MOL    O2332601   4.468   6.045   6.440 -0.1128  0.0578 -0.0830
  180MOL    O2432602   4.651   5.977   6.563  0.1034  0.2085  0.3082
  180MOL    H2532603   4.659   5.819   6.370  0.4848  0.4994  0.3888
  180MOL    H2632604   4.437   5.832   6.270 -0.9829  1.4465 -1.5653
  180MOL    H2732605   4.471   5.978   6.194  1.3233  0.9665 -0.4276
  180MOL    H2832606   4.546   5.840   6.133  1.7352  1.0784  0.4205
  180MOL    C2932607   4.626   6.043   6.682  0.3442  0.2763  0.4714
  180MOL    C3032608   4.756   6.038   6.763 -0.3106  0.0180  0.9949
  180MOL    C3132609   4.506   5.987   6.756 -0.4539 -0.1139 -0.0309
  180MOL    O3232610   4.390   6.038   6.761 -0.4583 -0.0445 -0.1302
  180MOL    O3332611   4.533   5.872   6.824  0.2586 -0.3759 -0.4574
  180MOL    H3432612   4.611   6.147   6.651 -0.9649 -0.0655 -0.0349
  180MOL    H3532613   4.849   6.063   6.711  0.3416 -3.2904  0.4513
  180MOL    H3632614   4.744   6.122   6.831 -0.0882  0.5747  0.3467
  180MOL    H3732615   4.775   5.951   6.826  0.6869  1.5081  2.8060
  180MOL    C3832616   4.444   5.796   6.904  0.0193 -0.3082 -0.6996
  180MOL    C3932617   4.508   5.676   6.973 -0.2778 -0.3352 -0.8499
  180MOL    C4032618   4.329   5.743   6.825  0.1999 -0.9472  0.8012
  180MOL    O4132619   4.216   5.757   6.871  0.3227 -0.5221 -0.3331
  180MOL    O4232620   4.356   5.698   6.698  0.2867  0.3317  0.3284
  180MOL    H4332621   4.402   5.868   6.974  2.8622  0.6183  0.1226
  180MOL    H4432622   4.438   5.617   7.032  2.3950  1.0053  3.9544
  180MOL    H4532623   4.566   5.614   6.905 -0.1053 -0.2671 -0.7676
  180MOL    H4632624   4.586   5.703   7.044 -1.1169 -4.4078  1.7773
  180MOL    C4732625   4.243   5.654   6.617  0.1230  0.7803 -0.2429
  180MOL    C4832626   4.289   5.548   6.509 -0.5722 -0.0055 -0.5669
  180MOL    C4932627   4.176   5.774   6.552  0.2971 -0.5423  0.1982
  180MOL    O5032628   4.070   5.807   6.597  0.4172 -0.0241 -0.3831
  180MOL    O5132629   4.233   5.833   6.441 -0.0192  0.2554  0.2300
  180MOL    H5232630   4.174   5.591   6.674 -0.2727  0.6389 -0.8732
  180MOL    H5332631   4.360   5.599   6.444  1.5164  0.0790  1.7268
  180MOL    H5432632   4.350   5.468   6.550 -2.5665 -1.3159 -0.0790
  180MOL    H5532633   4.201   5.503   6.462 -0.1030 -1.0125 -0.5026
  180MOL    C5632634   4.159   5.923   6.360  0.2178 -0.0663 -0.4517
  180MOL    C5732635   4.117   6.057   6.431  0.0516  0.3231 -1.2504
  180MOL    C5832636   4.044   5.843   6.296  0.0286  0.2052 -0.2057
  180MOL    O5932637   3.928   5.888   6.290  0.0041  0.2784  0.4409
  180MOL    O6032638   4.089   5.722   6.251  0.2102  0.2067 -0.2952
  180MOL    H6132639   4.228   5.960   6.283  0.8520 -1.3784 -0.5387
  180MOL    H6232640   4.116   6.154   6.383  2.4886  0.5315 -0.9241
  180MOL    H6332641   4.016   6.032   6.464  0.1951 -0.0619 -1.0991
  180MOL    H6432642   4.184   6.073   6.515 -2.2654  0.8688  0.5251
  180MOL    C6532643   3.992   5.628   6.188  0.2747  0.2216 -0.4247
  180MOL    C6632644   3.942   5.678   6.046 -0.2179  0.3714  0.3226
  180MOL    C6732645   3.879   5.591   6.281 -0.4894 -0.7547  0.0071
  180MOL    O6832646   3.760   5.590   6.243  0.1721  0.0249 -0.1983
  180MOL    O6932647   3.922   5.575   6.405  0.2824  0.1968  0.2816
  180MOL    H7032648   4.045   5.533   6.185 -0.7847 -0.4652  1.3501
  180MOL    H7132649   3.882   5.601   5.998  2.1037 -0.3883 -1.4772
  180MOL    H7232650   3.875   5.763   6.050  0.9369  1.2555  1.0898
  180MOL    H7332651   4.022   5.720   5.985 -0.5606  0.8730  0.2165
  180MOL    C7432652   3.824   5.539   6.507  0.1932  0.2155  0.3457
  180MOL    C7532653   3.795   5.654   6.605  0.3631  0.0395  0.2370
  180MOL    C7632654   3.877   5.415   6.573 -0.8211  0.1506 -0.0309
  180MOL    O7732655   3.919   5.323   6.512  0.0241  0.5462  0.3496
  180MOL    O7832656   3.883   5.421   6.710  0.3956 -0.5562 -0.0223
  180MOL    H7932657   3.726   5.507   6.470  0.3362 -0.1322  0.2673
  180MOL    H8032658   3.720   5.625   6.679  0.7978  2.5270  1.6691
  180MOL    H8132659   3.880   5.687   6.664  0.9521  1.3617 -1.3213
  180MOL    H8232660   3.766   5.742   6.548  2.1625 -0.0238 -0.8261
  180MOL    C8332661   3.906   5.310   6.792 -0.5503  0.4494 -0.3458
  180MOL    C8432662   3.828   5.331   6.925 -0.2874 -0.3775 -0.0250
  180MOL    C8532663   4.056   5.281   6.804 -0.0327  0.0527 -1.2580
  180MOL    O8632664   4.148   5.348   6.750  0.4424  0.0442  0.0787
  180MOL    O8732665   4.085   5.186   6.897 -0.5007  0.4766 -0.8530
  180MOL    H8832666   3.867   5.221   6.741 -0.6393  0.1161  0.3032
  180MOL    H8932667   3.725   5.362   6.908 -0.2685 -0.3795 -0.1437
  180MOL    H9032668   3.822   5.236   6.977  1.2799  0.0497  0.9969
  180MOL    H9132669   3.868   5.401   6.999  0.9078 -1.2025  0.1214
  180MOL    C9232670   4.217   5.161   6.943 -0.5895 -0.5672  0.5331
  180MOL    C9332671   4.224   5.039   7.035  0.4260  0.5580  0.5863
  180MOL    C9432672   4.257   5.290   7.028 -0.2016 -0.0879 -0.5516
  180MOL    O9532673   4.352   5.357   6.992 -0.8621  0.1670  0.5756
  180MOL    O9632674   4.168   5.308   7.130  0.8415 -0.2606 -0.4114
  180MOL    H9732675   4.289   5.160   6.861  0.0356  0.6687  1.0605
  180MOL    H9832676   4.199   5.064   7.138 -0.8030 -0.2129  0.4873
  180MOL    H9932677   4.145   4.970   7.004 -1.3296  1.9460  1.9072
  180MOL   H10032678   4.317   4.983   7.029 -0.5762 -1.0046 -1.1108
  180MOL   C10132679   4.181   5.407   7.234 -0.2011 -0.0134 -0.0699
  180MOL   C10232680   4.086   5.525   7.202 -0.2879 -0.1304  0.1748
  180MOL   C10332681   4.320   5.457   7.269  0.0647 -0.6678 -0.2785
  180MOL   O10432682   4.352   5.574   7.273 -0.2830 -0.2556  0.3388
  180MOL   O10532683   4.401   5.353   7.294 -0.1039  0.0583 -0.6489
  180MOL   H10632684   4.132   5.351   7.313  0.3639  0.2240  0.4509
  180MOL   H10732685   4.114   5.584   7.114 -0.0051 -2.5209 -1.3894
  180MOL   H10832686   3.986   5.484   7.181  0.3521 -2.0805  0.8212
  180MOL   H10932687   4.073   5.588   7.289  0.4691  0.8089 -0.3918
  180MOL   C11032688   4.537   5.374   7.332 -0.0831  0.1882 -0.3874
  180MOL   C11132689   4.617   5.262   7.272  0.2597  0.9773 -0.8211
  180MOL   C11232690   4.554   5.378   7.484  0.8403  0.5208 -0.8563
  180MOL   O11332691   4.456   5.375   7.557  0.0328  0.2447 -0.6293
  180MOL   O11432692   4.681   5.359   7.527  0.4826  0.6859 -0.1858
  180MOL   H11532693   4.572   5.463   7.278 -0.0828  1.3922  1.5340
  180MOL   H11632694   4.617   5.169   7.330 -2.6891 -0.3777 -2.8518
  180MOL   H11732695   4.567   5.220   7.185  0.2944 -2.4498  0.7253
  180MOL   H11832696   4.721   5.291   7.254  0.7674 -0.6621 -0.6489
  180MOL   C11932697   4.718   5.379   7.666 -0.5931  0.6824  0.4198
  180MOL   C12032698   4.870   5.349   7.680 -0.4825  0.3060  0.2939
  180MOL   C12132699   4.644   5.279   7.756 -0.0123  0.0610  0.1829
  180MOL   O12232700   4.569   5.309   7.846  0.1774  0.1697 -0.3087
  180MOL   O12332701   4.671   5.146   7.724 -0.1921  0.2609  0.2975
  180MOL   H12432702   4.704   5.484   7.693 -0.2641  0.3980  1.6982
  180MOL   H12532703   4.928   5.389   7.597 -0.3492 -0.6136 -0.0640
  180MOL   H12632704   4.920   5.398   7.764  0.1213  2.6244 -1.3679
  180MOL   H12732705   4.891   5.243   7.691 -2.3202 -0.3986 -2.4393
  180MOL   C12832706   4.567   5.041   7.737 -0.6811  0.4425 -0.0911
  180MOL   C12932707   4.637   4.908   7.738 -0.5741 -0.2793  0.1151
  180MOL   C13032708   4.458   5.043   7.628  0.3698  0.1358  0.6116
  180MOL   O13132709   4.474   5.002   7.508  0.7705  0.0151 -0.1671
  180MOL   O13232710   4.341   5.115   7.666 -0.3346  0.0953 -0.1389
  180MOL   H13332711   4.505   5.056   7.825  1.6063 -1.2563  1.8659
  180MOL   H13432712   4.734   4.904   7.789 -0.6510  0.0748  0.2910
  180MOL   H13532713   4.565   4.839   7.781 -1.6108  0.8523  0.2118
  180MOL   H13632714   4.664   4.867   7.640  1.5773 -3.0488  1.7885
  180MOL   C13732715   4.234   5.152   7.589 -0.0089  0.5658  0.1276
  180MOL   C13832716   4.147   5.259   7.660  0.5758  0.2449 -0.4171
  180MOL   C13932717   4.156   5.040   7.519 -0.1969 -0.5140 -0.4563
  180MOL   O14032718   4.091   5.054   7.414 -0.1968 -0.0354  0.0978
  180MOL   O14132719   4.136   4.944   7.608  0.2590  0.8669  0.1591
  180MOL   H14232720   4.284   5.204   7.507  0.2981 -0.0569 -0.0796
  180MOL   H14332721   4.200   5.338   7.713  2.1300 -0.0440 -1.5104
  180MOL   H14432722   4.089   5.316   7.587  0.5873  0.1799 -0.4780
  180MOL   H14532723   4.064   5.214   7.715  0.4546  1.2106  0.2025
  180MOL   C14632724   4.070   4.818   7.570 -0.3318 -0.0346  0.0146
  180MOL   C14732725   4.063   4.735   7.697  0.2632  0.3315 -0.2980
  180MOL   C14832726   4.149   4.737   7.462 -0.2078  0.1758  0.1971
  180MOL   O14932727   4.271   4.752   7.452 -0.0501  0.4724 -0.1689
  180MOL   O15032728   4.081   4.635   7.406 -0.8166  0.1404 -0.0294
  180MOL   H15132729   3.972   4.852   7.535 -0.3113  0.1178  0.1070
  180MOL   H15232730   4.014   4.806   7.764 -1.0671 -0.2529 -0.6236
  180MOL   H15332731   3.993   4.651   7.695 -0.8772  1.2377  0.9649
  180MOL   H15432732   4.157   4.699   7.740 -0.3718 -2.2596 -0.9623
  180MOL   C15532733   4.132   4.546   7.309 -0.2373 -0.8962  0.1426
  180MOL   C15632734   4.229   4.448   7.384  1.0030  0.3666  0.6981
  180MOL   C15732735   4.198   4.605   7.178 -0.0489 -0.0188  0.1207
  180MOL   O15832736   4.186   4.716   7.131 -0.0276 -0.7183  0.7608
  180MOL   O15932737   4.289   4.521   7.128  0.0881 -0.2913 -0.0286
  180MOL   H16032738   4.041   4.494   7.278 -0.6439 -0.3542  0.4167
  180MOL   H16132739   4.255   4.359   7.328 -2.0211  0.4577 -0.9612
  180MOL   H16232740   4.311   4.511   7.421  0.8556 -0.1951  1.9842
  180MOL   H16332741   4.185   4.408   7.475  0.4870 -0.5749  0.0457
  180MOL   C16432742   4.346   4.553   6.997  0.5568 -0.3299  0.1209
  180MOL   C16532743   4.389   4.418   6.932  0.5925 -0.6062 -0.5600
  180MOL   C16632744   4.467   4.658   7.008 -0.2284 -0.2896 -0.5489
  180MOL   O16732745   4.485   4.749   6.929 -0.7738  0.6649  0.3291
  180MOL   O16832746   4.559   4.630   7.108 -0.8910 -0.5135  0.1931
  180MOL   H16932747   4.266   4.601   6.941  2.0492 -0.1660 -1.9439
  180MOL   H17032748   4.462   4.366   6.994 -2.0406 -1.6785  1.7300
  180MOL   H17132749   4.294   4.372   6.903 -0.7725  1.6559  0.2116
  180MOL   H17232750   4.442   4.429   6.837  3.5870  0.0683  1.1184
  180MOL   C17332751   4.653   4.728   7.151 -0.6344 -0.2140 -0.5402
  180MOL   C17432752   4.792   4.667   7.164 -0.7001  0.0380  0.7021
  180MOL   C17532753   4.616   4.790   7.292 -0.6304  0.1012  0.5199
  180MOL   O17632754   4.668   4.759   7.398 -0.4193  0.0764  0.1415
  180MOL   O17732755   4.518   4.888   7.274 -0.2101 -0.0222  0.2111
  180MOL   H17832756   4.650   4.813   7.083  3.9344  1.4815  1.2005
  180MOL   H17932757   4.792   4.588   7.239 -1.8667  2.0883  2.9305
  180MOL   H18032758   4.832   4.640   7.066 -1.2741  0.2729  0.3979
  180MOL   H18132759   4.856   4.740   7.214 -0.5111  1.1902 -1.1641
  180MOL   H18232760   4.504   4.931   7.357 -0.4103  1.3354 -0.5090
  181MOL     C132761   2.820   2.785   5.909 -0.6104 -0.4603 -0.1581
  181MOL     C232762   2.817   2.699   6.047 -0.8158  0.7961 -0.9316
  181MOL     C332763   2.699   2.767   5.819  0.5524  0.2954 -0.1818
  181MOL     O432764   2.676   2.848   5.730 -0.1161 -0.4421  0.1415
  181MOL     O532765   2.629   2.652   5.845  0.2650  0.0363  0.4178
  181MOL     H632766   2.830   2.892   5.931 -0.7148 -0.8297  1.8315
  181MOL     H732767   2.920   2.672   6.070 -1.0903  0.0344 -0.5572
  181MOL     H832768   2.785   2.758   6.133  0.6778  2.0392 -1.2170
  181MOL     H932769   2.747   2.615   6.045 -0.9144  0.8385  0.0881
  181MOL    H1032770   2.912   2.757   5.858 -1.1707 -0.3596 -1.2386
  181MOL    C1132771   2.514   2.626   5.758 -0.0230 -0.1163  0.3072
  181MOL    C1232772   2.425   2.511   5.825 -0.1109 -0.2299  0.3092
  181MOL    C1332773   2.560   2.575   5.623  0.5061  0.3503 -0.0813
  181MOL    O1432774   2.669   2.531   5.613  0.1134  0.1845  0.1068
  181MOL    O1532775   2.465   2.576   5.524 -0.3001  0.1423  0.2222
  181MOL    H1632776   2.452   2.714   5.743  0.3417  0.3833  1.6353
  181MOL    H1732777   2.479   2.417   5.834 -2.0416 -1.3438  0.3444
  181MOL    H1832778   2.377   2.538   5.919  0.2609  0.5574  0.2786
  181MOL    H1932779   2.346   2.507   5.750  1.2060  0.2265 -1.1458
  181MOL    C2032780   2.493   2.497   5.410 -1.0258  0.3426 -0.5994
  181MOL    C2132781   2.416   2.549   5.294  0.2582  0.4701 -0.1270
  181MOL    C2232782   2.459   2.346   5.439 -0.1933 -0.3871  0.3187
  181MOL    O2332783   2.519   2.259   5.372 -0.6458 -0.4092 -0.1580
  181MOL    O2432784   2.352   2.322   5.526  0.5646  0.1583  0.0765
  181MOL    H2532785   2.597   2.512   5.382  0.1684  1.9885  4.1606
  181MOL    H2632786   2.478   2.536   5.205 -0.9238  0.4592 -0.9603
  181MOL    H2732787   2.328   2.491   5.267  1.5958 -1.4092 -0.5835
  181MOL    H2832788   2.391   2.654   5.312  0.3470  0.7177 -1.3818
  181MOL    C2932789   2.310   2.188   5.557  0.6886 -0.3289 -0.4131
  181MOL    C3032790   2.199   2.180   5.664  0.0092 -0.8649 -0.2891
  181MOL    C3132791   2.424   2.091   5.602 -0.2385 -0.3041 -0.1388
  181MOL    O3232792   2.529   2.141   5.647  0.2402  0.1423  0.2624
  181MOL    O3332793   2.401   1.963   5.580  0.5568  1.0531  0.5725
  181MOL    H3432794   2.253   2.151   5.472 -1.1236 -0.6184  0.8875
  181MOL    H3532795   2.231   2.239   5.750  1.3159  1.8614 -2.5761
  181MOL    H3632796   2.113   2.218   5.611  0.0048  0.6340  0.7693
  181MOL    H3732797   2.175   2.076   5.688  3.2862 -1.3503  1.1931
  181MOL    C3832798   2.493   1.865   5.615 -0.0831  0.3724  0.6128
  181MOL    C3932799   2.453   1.743   5.540  0.8045 -0.1204 -0.4603
  181MOL    C4032800   2.494   1.839   5.768  0.7895  0.0456  0.7745
  181MOL    O4132801   2.592   1.819   5.831 -0.1915  0.3029 -0.1710
  181MOL    O4232802   2.366   1.846   5.814  0.5220 -0.3345  0.2171
  181MOL    H4332803   2.596   1.886   5.585 -0.8965 -0.3901 -2.9790
  181MOL    H4432804   2.346   1.725   5.547  0.9487 -0.7851  0.1753
  181MOL    H4532805   2.483   1.747   5.435  0.5814  1.1414 -0.4785
  181MOL    H4632806   2.509   1.661   5.586 -1.3964 -0.9188  0.8748
  181MOL    C4732807   2.336   1.844   5.958  0.3250  0.7447  0.2613
  181MOL    C4832808   2.182   1.805   5.993  0.4111 -0.0779  0.0627
  181MOL    C4932809   2.381   1.973   6.030  0.6584  0.0785  1.0468
  181MOL    O5032810   2.409   2.083   5.971 -0.1303 -0.0037 -0.2533
  181MOL    O5132811   2.403   1.947   6.169  0.2521  0.5010  0.3446
  181MOL    H5232812   2.403   1.763   5.988  0.7508  0.8607 -0.3631
  181MOL    H5332813   2.166   1.702   5.961  1.2735 -0.4386  0.7527
  181MOL    H5432814   2.169   1.805   6.101 -1.5851 -0.8758 -0.1524
  181MOL    H5532815   2.100   1.865   5.954 -0.0971 -0.8520 -0.0640
  181MOL    C5632816   2.452   2.050   6.255  0.3498 -0.3067  0.3925
  181MOL    C5732817   2.516   2.000   6.388 -0.1282 -0.1827 -0.1561
  181MOL    C5832818   2.350   2.158   6.290  0.6900 -0.2323 -0.5274
  181MOL    O5932819   2.231   2.144   6.275  0.1230 -0.3789  0.0729
  181MOL    O6032820   2.413   2.266   6.341 -0.1863 -0.7077 -0.3637
  181MOL    H6132821   2.529   2.107   6.204  0.6884  0.4437  1.7095
  181MOL    H6232822   2.476   1.904   6.420 -1.3377  0.8274  1.4011
  181MOL    H6332823   2.624   1.991   6.378 -0.2237  0.0823 -1.5445
  181MOL    H6432824   2.502   2.073   6.468 -2.1711 -0.0958 -0.5810
  181MOL    C6532825   2.344   2.391   6.368 -0.2816  0.6739  0.1215
  181MOL    C6632826   2.401   2.489   6.274  0.4820  0.4251  0.1784
  181MOL    C6732827   2.357   2.429   6.516  0.2747  0.9118 -1.0564
  181MOL    O6832828   2.375   2.350   6.608  0.3045  0.0751 -0.1247
  181MOL    O6932829   2.345   2.558   6.535  0.0355  0.5402 -0.4398
  181MOL    H7032830   2.236   2.386   6.352 -0.5746  2.1562  1.5531
  181MOL    H7132831   2.326   2.567   6.267 -1.5102 -1.3219  1.2877
  181MOL    H7232832   2.498   2.529   6.304  0.4707  0.1537  0.5942
  181MOL    H7332833   2.413   2.444   6.176  2.1874  1.6191 -0.1686
  181MOL    C7432834   2.368   2.619   6.666 -0.0700  0.1745  0.1369
  181MOL    C7532835   2.233   2.674   6.720 -1.0874 -0.5588  0.3475
  181MOL    C7632836   2.467   2.728   6.648 -0.2641 -0.6867 -0.4290
  181MOL    O7732837   2.456   2.839   6.702  0.3442  0.3183  0.2114
  181MOL    O7832838   2.570   2.685   6.579 -0.0148  0.0339 -0.5272
  181MOL    H7932839   2.413   2.551   6.738 -0.5292 -1.9336 -1.5219
  181MOL    H8032840   2.187   2.735   6.642  3.3101  0.5871 -1.5058
  181MOL    H8132841   2.175   2.584   6.740  2.0226 -2.8683 -0.6293
  181MOL    H8232842   2.232   2.743   6.804  0.1839 -0.5071  0.3267
  181MOL    C8332843   2.678   2.767   6.559  0.2006  0.0365 -0.6883
  181MOL    C8432844   2.752   2.713   6.441  0.6613 -0.5373 -0.0982
  181MOL    C8532845   2.773   2.795   6.672 -0.7384  0.0364  0.0774
  181MOL    O8632846   2.806   2.709   6.752 -0.7324 -0.4528 -0.4031
  181MOL    O8732847   2.834   2.918   6.670 -0.3346 -0.0298 -0.1724
  181MOL    H8832848   2.626   2.854   6.517 -0.9137  0.1995  0.9939
  181MOL    H8932849   2.694   2.711   6.348  1.1873 -0.3807 -0.4335
  181MOL    H9032850   2.843   2.771   6.424 -0.0754 -0.1489 -3.0543
  181MOL    H9132851   2.799   2.617   6.460  1.9029  0.3028  1.1676
  181MOL    C9232852   2.929   2.946   6.772 -0.3057  0.1286  0.1253
  181MOL    C9332853   2.940   3.097   6.771  0.2423 -0.4399  0.1923
  181MOL    C9432854   3.059   2.866   6.761 -0.1288 -0.0221  0.1295
  181MOL    O9532855   3.090   2.794   6.668 -0.4443  0.0361 -0.5626
  181MOL    O9632856   3.135   2.879   6.875 -0.2571  0.3139  0.4543
  181MOL    H9732857   2.907   2.914   6.874  1.5056  0.5728  0.6657
  181MOL    H9832858   2.849   3.156   6.763  1.8388  1.9776 -0.6789
  181MOL    H9932859   2.982   3.128   6.866  2.5466 -0.3262 -0.8220
  181MOL   H10032860   3.010   3.132   6.695  0.4559 -1.0181  0.1163
  181MOL   C10132861   3.271   2.832   6.881 -0.6150 -0.5938  1.1335
  181MOL   C10232862   3.326   2.814   7.016  0.2830  0.0920 -0.7136
  181MOL   C10332863   3.353   2.941   6.802  0.2383 -0.0378  0.1068
  181MOL   O10432864   3.385   3.052   6.843  0.0573  0.1832 -0.2840
  181MOL   O10532865   3.391   2.890   6.681 -0.0438 -0.1138 -0.0470
  181MOL   H10632866   3.288   2.733   6.837 -0.3690 -0.2578  0.4734
  181MOL   H10732867   3.269   2.736   7.066 -0.6471  2.0366  1.3615
  181MOL   H10832868   3.428   2.776   7.021  0.3139  0.3461  0.6627
  181MOL   H10932869   3.323   2.908   7.071  0.4410  0.3945 -1.2164
  181MOL   C11032870   3.429   2.979   6.580 -0.1711 -0.2353 -0.7760
  181MOL   C11132871   3.379   2.943   6.435 -0.1070  0.2738 -0.0493
  181MOL   C11232872   3.580   3.002   6.598  0.6717 -0.2327  0.5187
  181MOL   O11332873   3.635   3.103   6.553  0.3384 -0.0557  0.0474
  181MOL   O11432874   3.636   2.890   6.665 -0.5439  0.3104  0.0090
  181MOL   H11532875   3.390   3.079   6.601 -1.0208 -1.1918  2.5588
  181MOL   H11632876   3.279   2.902   6.445 -0.1496  0.4011  0.0470
  181MOL   H11732877   3.392   3.028   6.368  1.0150 -0.7568 -1.1675
  181MOL   H11832878   3.441   2.864   6.394  1.1993 -0.4140  3.1264
  181MOL   C11932879   3.779   2.891   6.693  0.2555 -0.4872 -1.0655
  181MOL   C12032880   3.851   2.752   6.681 -0.3014  0.3585  0.3403
  181MOL   C12132881   3.816   2.956   6.821  0.0005 -0.3087  0.0682
  181MOL   O12232882   3.891   3.054   6.825 -0.3031 -0.2515  0.1530
  181MOL   O12332883   3.762   2.889   6.927  0.2133  0.0657 -0.1424
  181MOL   H12432884   3.837   2.953   6.625  0.8382  0.1246 -0.0174
  181MOL   H12532885   3.954   2.768   6.650 -1.3571  1.0208 -3.0146
  181MOL   H12632886   3.848   2.682   6.765  0.1281 -1.9059 -1.4981
  181MOL   H12732887   3.808   2.689   6.603 -1.2991  0.4584  0.8051
  181MOL   C12832888   3.766   2.941   7.064  0.4885  0.6984  0.5971
  181MOL   C12932889   3.758   2.828   7.167  0.1701 -0.0436  0.7699
  181MOL   C13032890   3.657   3.053   7.081 -0.4162  0.3234  0.2227
  181MOL   O13132891   3.587   3.055   7.179 -1.2757  0.0096  0.1873
  181MOL   O13232892   3.649   3.144   6.983  0.0854  0.2983 -0.3428
  181MOL   H13332893   3.855   3.002   7.080  0.5085  0.7427  0.3275
  181MOL   H13432894   3.852   2.775   7.179  0.3778  0.0744 -0.2329
  181MOL   H13532895   3.751   2.867   7.268  0.8086 -0.8732  1.1426
  181MOL   H13632896   3.673   2.761   7.155  0.8855 -1.2438  2.2867
  181MOL   C13732897   3.603   3.274   7.010  0.2087 -0.0220 -0.0627
  181MOL   C13832898   3.557   3.335   6.881 -0.3086  1.0913 -0.5663
  181MOL   C13932899   3.713   3.349   7.081 -0.8004  0.2893  0.7579
  181MOL   O14032900   3.710   3.391   7.196  0.5450 -0.0445  0.0828
  181MOL   O14132901   3.822   3.352   7.000 -0.7306 -0.2014 -0.6966
  181MOL   H14232902   3.517   3.266   7.076 -0.3183 -0.6480 -0.8219
  181MOL   H14332903   3.455   3.302   6.864  0.3260 -0.4133 -1.5505
  181MOL   H14432904   3.563   3.443   6.896  1.8110  0.8011  0.8184
  181MOL   H14532905   3.619   3.309   6.796 -0.3750  1.1099 -0.6206
  181MOL   C14632906   3.935   3.421   7.044  0.3218 -0.6003  0.0565
  181MOL   C14732907   4.025   3.438   6.923 -0.0690 -0.2623 -0.0635
  181MOL   C14832908   4.006   3.325   7.144  0.3937  0.1306  0.5560
  181MOL   O14932909   3.982   3.207   7.154 -0.2361  0.0622 -0.7682
  181MOL   O15032910   4.100   3.390   7.216 -0.4163 -0.0580 -0.5117
  181MOL   H15132911   3.919   3.520   7.089  1.1898 -0.9084  1.0604
  181MOL   H15232912   4.100   3.514   6.939 -1.3701  0.3919  3.4117
  181MOL   H15332913   4.060   3.338   6.897 -3.1468 -1.2359 -0.6989
  181MOL   H15432914   3.971   3.469   6.834 -0.6541  2.1194  1.0814
  181MOL   C15532915   4.161   3.337   7.339 -0.4260 -0.1377  0.0080
  181MOL   C15632916   4.233   3.452   7.423 -0.1416  0.0932  0.3086
  181MOL   C15732917   4.252   3.221   7.305  0.1867  0.1215  0.5558
  181MOL   O15832918   4.232   3.109   7.350  0.1191  0.1952  0.2723
  181MOL   O15932919   4.353   3.256   7.224 -0.8301 -0.0666 -0.3782
  181MOL   H16032920   4.071   3.300   7.388 -2.5630  2.0214 -2.1607
  181MOL   H16132921   4.322   3.411   7.472  0.7539 -0.1483 -1.4586
  181MOL   H16232922   4.261   3.536   7.359  0.4397  0.4536  1.0181
  181MOL   H16332923   4.162   3.494   7.494  0.8045  1.7918  0.2965
  181MOL   C16432924   4.444   3.171   7.161 -0.0799 -0.2409 -0.1643
  181MOL   C16532925   4.557   3.267   7.108 -0.1902 -0.0142 -0.6394
  181MOL   C16632926   4.368   3.084   7.062  0.7283  0.2271  0.2197
  181MOL   O16732927   4.334   3.123   6.946 -0.4778  0.3377  0.0190
  181MOL   O16832928   4.345   2.951   7.102 -0.7074  0.4754 -0.0293
  181MOL   H16932929   4.490   3.104   7.233  2.8504  0.5324 -1.2717
  181MOL   H17032930   4.660   3.233   7.102 -0.3712 -0.5777 -0.5844
  181MOL   H17132931   4.544   3.298   7.005 -0.4952 -0.4074 -0.7218
  181MOL   H17232932   4.561   3.354   7.174  1.8139 -1.1826  0.8303
  181MOL   C17332933   4.294   2.858   7.008 -0.2892 -0.3542  0.4870
  181MOL   C17432934   4.136   2.862   6.997  0.4253  0.9299 -0.1126
  181MOL   C17532935   4.360   2.730   7.051  0.4244  0.8990 -0.3536
  181MOL   O17632936   4.450   2.674   6.992 -0.2975 -0.3416 -0.0717
  181MOL   O17732937   4.298   2.696   7.164  0.0002 -1.1029 -0.0021
  181MOL   H17832938   4.329   2.878   6.907  0.1997 -1.2736  0.4732
  181MOL   H17932939   4.082   2.818   7.081  0.2310 -1.6487 -1.5380
  181MOL   H18032940   4.094   2.960   6.973  0.7412  1.2523  0.6432
  181MOL   H18132941   4.098   2.797   6.918  3.0702 -1.6820  0.6702
  181MOL   H18232942   4.257   2.777   7.191  1.9525 -0.3202  0.6919
  182MOL     C132943   3.513   5.465   5.806 -0.5399 -0.3618  0.0580
  182MOL     C232944   3.644   5.416   5.872 -0.0759 -1.1073  0.2333
  182MOL     C332945   3.517   5.618   5.808  0.2969 -0.0281  0.7866
  182MOL     O432946   3.618   5.678   5.824 -0.2601 -0.3638  0.1485
  182MOL     O532947   3.395   5.675   5.797 -0.1347  0.2861  0.7039
  182MOL     H632948   3.514   5.437   5.701 -0.4855  0.0213 -0.0475
  182MOL     H732949   3.728   5.428   5.802 -1.7255  0.6771 -1.5025
  182MOL     H832950   3.678   5.475   5.958 -0.1451  0.2575 -0.6529
  182MOL     H932951   3.634   5.310   5.894  0.8349 -0.6900  2.9195
  182MOL    H1032952   3.425   5.428   5.859 -0.5802  1.2585  1.1634
  182MOL    C1132953   3.382   5.816   5.772  1.1538 -0.1978  0.6768
  182MOL    C1232954   3.233   5.855   5.796  0.4398  0.2964  0.1674
  182MOL    C1332955   3.419   5.853   5.625 -0.4669  0.1820  0.6339
  182MOL    O1432956   3.470   5.961   5.595 -0.6761 -0.0766  0.3022
  182MOL    O1532957   3.399   5.751   5.534 -0.1843  0.2544 -0.0789
  182MOL    H1632958   3.450   5.863   5.842 -0.1551  2.9417 -0.0332
  182MOL    H1732959   3.160   5.787   5.751 -0.1947  0.6065  0.7153
  182MOL    H1832960   3.205   5.863   5.901 -1.0837  0.6944 -0.2511
  182MOL    H1932961   3.216   5.956   5.759 -2.2034  0.6399  2.2020
  182MOL    C2032962   3.411   5.762   5.396  0.8400 -0.4198  0.8203
  182MOL    C2132963   3.330   5.652   5.335 -0.1292  0.3836  0.1936
  182MOL    C2232964   3.559   5.758   5.346  0.0536 -0.4826  0.2590
  182MOL    O2332965   3.587   5.795   5.230  0.4429 -0.0987 -0.0097
  182MOL    O2432966   3.647   5.713   5.442 -0.4702 -0.2653  0.3062
  182MOL    H2532967   3.364   5.848   5.348  1.0499 -1.1320 -0.6819
  182MOL    H2632968   3.341   5.641   5.227 -0.1235  3.2559 -0.1316
  182MOL    H2732969   3.347   5.557   5.386  0.7216  0.0635 -0.6789
  182MOL    H2832970   3.226   5.666   5.364  0.7083  1.2212  2.9084
  182MOL    C2932971   3.787   5.723   5.415  0.6481  0.1280  0.3416
  182MOL    C3032972   3.863   5.616   5.490 -0.0935  0.6000 -0.0131
  182MOL    C3132973   3.848   5.855   5.462  0.5822  0.5024 -0.4426
  182MOL    O3232974   3.939   5.907   5.406  0.4271 -0.5468 -0.5895
  182MOL    O3332975   3.790   5.903   5.578 -0.2064  0.1939  0.0955
  182MOL    H3432976   3.799   5.696   5.310  1.1850  0.1673  0.3935
  182MOL    H3532977   3.848   5.515   5.450 -0.4024  1.2070 -1.4700
  182MOL    H3632978   3.969   5.640   5.480 -0.0431  0.7021  0.7614
  182MOL    H3732979   3.849   5.624   5.597  1.8945 -0.1611  0.3153
  182MOL    C3832980   3.862   5.998   5.655 -0.0593 -0.0824 -0.3270
  182MOL    C3932981   3.930   5.911   5.756  0.7893  0.5239  0.0529
  182MOL    C4032982   3.753   6.087   5.714 -0.0146  0.4879 -0.8098
  182MOL    O4132983   3.702   6.072   5.825  0.1686  0.2831  0.0467
  182MOL    O4232984   3.717   6.183   5.627  0.5469  0.2999 -0.3627
  182MOL    H4332985   3.927   6.066   5.599  0.6764  1.5123  2.3931
  182MOL    H4432986   3.864   5.832   5.791  0.6379  0.8717  0.5614
  182MOL    H4532987   4.017   5.865   5.709 -0.5941 -2.8926  0.6914
  182MOL    H4632988   3.956   5.968   5.846  0.7552 -2.3587  1.9543
  182MOL    C4732989   3.597   6.258   5.644  0.2082 -0.6024  0.4087
  182MOL    C4832990   3.541   6.280   5.505  0.0346 -0.1354 -0.0040
  182MOL    C4932991   3.630   6.390   5.722  1.0163  0.7634 -0.3426
  182MOL    O5032992   3.746   6.435   5.733 -0.5094 -1.0034 -0.6701
  182MOL    O5132993   3.519   6.443   5.765  0.2735  0.3832  0.0116
  182MOL    H5232994   3.521   6.202   5.699 -0.3609 -1.0708 -0.8273
  182MOL    H5332995   3.597   6.354   5.448 -1.3320 -1.8200 -3.6749
  182MOL    H5432996   3.555   6.200   5.433 -0.1964 -1.0625  0.9525
  182MOL    H5532997   3.442   6.324   5.521  0.1668  0.7475 -1.6010
  182MOL    C5632998   3.528   6.581   5.803 -0.2902 -0.8912 -0.0818
  182MOL    C5732999   3.413   6.613   5.909  0.9915 -0.4904  0.2377
  182MOL    C5833000   3.515   6.666   5.677 -0.7872  1.1660 -0.3068
  182MOL    O5933001   3.541   6.792   5.676  0.6216 -0.0348 -0.2063
  182MOL    O6033002   3.435   6.602   5.575 -0.3637  0.0911  0.5556
  182MOL    H6133003   3.624   6.614   5.843 -0.5636 -1.3915  1.0314
  182MOL    H6233004   3.437   6.580   6.010 -0.1632 -1.0565  0.3385
  182MOL    H6333005   3.394   6.720   5.907  0.5856 -0.5719 -2.6281
  182MOL    H6433006   3.322   6.562   5.877  0.6254  0.2028  0.1692
  182MOL    C6533007   3.392   6.677   5.457 -0.0570  0.0778 -0.0697
  182MOL    C6633008   3.276   6.591   5.403 -0.8197 -0.2554  0.0789
  182MOL    C6733009   3.506   6.700   5.352 -0.3975  0.1291 -0.2887
  182MOL    O6833010   3.496   6.774   5.256 -0.4058  0.0664  0.3475
  182MOL    O6933011   3.600   6.602   5.356  0.4402 -0.7699 -0.3948
  182MOL    H7033012   3.356   6.775   5.489 -0.4472  0.2531 -1.0272
  182MOL    H7133013   3.189   6.588   5.467 -1.3120 -2.5138 -0.6316
  182MOL    H7233014   3.249   6.632   5.305  2.6131  0.2286 -0.7304
  182MOL    H7333015   3.309   6.495   5.362 -1.1921 -0.9097  1.2965
  182MOL    C7433016   3.701   6.578   5.252 -0.1803 -0.4789  0.5882
  182MOL    C7533017   3.804   6.693   5.247  0.3970 -0.0916  0.8418
  182MOL    C7633018   3.641   6.542   5.115  0.0132 -0.4283 -0.7098
  182MOL    O7733019   3.662   6.593   5.006  0.1247  0.1758  0.3493
  182MOL    O7833020   3.558   6.437   5.135 -0.1798  0.0356  0.2131
  182MOL    H7933021   3.756   6.495   5.295  1.7761  1.5969  2.2361
  182MOL    H8033022   3.772   6.770   5.176  0.0910 -0.4881  0.5442
  182MOL    H8133023   3.807   6.728   5.350 -0.7130  3.0249 -0.1322
  182MOL    H8233024   3.902   6.658   5.214  0.7681 -0.4031  2.2599
  182MOL    C8333025   3.472   6.384   5.029  0.6200  0.1358 -0.1753
  182MOL    C8433026   3.386   6.271   5.085  0.1105 -0.1221 -0.1970
  182MOL    C8533027   3.545   6.335   4.906 -0.3201  0.2856 -0.7299
  182MOL    O8633028   3.665   6.309   4.901  0.6718 -0.2928 -0.6182
  182MOL    O8733029   3.454   6.312   4.805  0.2583 -0.3010  0.0273
  182MOL    H8833030   3.405   6.464   4.999  0.1537 -0.5338 -0.9481
  182MOL    H8933031   3.442   6.177   5.089 -1.0691 -0.8573 -0.4898
  182MOL    H9033032   3.353   6.286   5.188 -0.2880 -1.8627 -0.0446
  182MOL    H9133033   3.294   6.245   5.031  0.3404 -3.3075  0.8226
  182MOL    C9233034   3.505   6.245   4.695 -0.0236  0.1635  0.4305
  182MOL    C9333035   3.408   6.287   4.584  0.3436  0.8953 -0.7580
  182MOL    C9433036   3.519   6.090   4.707  0.1542  0.1430 -0.2855
  182MOL    O9533037   3.554   6.021   4.611 -0.7156 -0.3163  0.7746
  182MOL    O9633038   3.485   6.040   4.826 -0.5066  0.5449 -0.5512
  182MOL    H9733039   3.605   6.277   4.665  0.2085  0.3945  1.4213
  182MOL    H9833040   3.310   6.244   4.608  0.6958  0.1388 -0.6617
  182MOL    H9933041   3.398   6.396   4.586 -2.3478  0.6876  0.6613
  182MOL   H10033042   3.444   6.254   4.487 -0.3307 -0.8678 -0.4273
  182MOL   C10133043   3.528   5.908   4.868 -0.4664  0.2483 -0.1598
  182MOL   C10233044   3.421   5.859   4.959  0.1047  0.4493  0.4029
  182MOL   C10333045   3.663   5.908   4.933 -0.0041  0.1326  0.5369
  182MOL   O10433046   3.741   5.823   4.904 -0.2148  0.0810 -0.1677
  182MOL   O10533047   3.684   6.012   5.013  0.5491  0.4442 -0.7334
  182MOL   H10633048   3.524   5.848   4.777 -1.6304 -0.1493  0.1345
  182MOL   H10733049   3.325   5.875   4.909  0.2969  1.5245  0.3552
  182MOL   H10833050   3.442   5.753   4.968  2.0700  0.8721  1.1472
  182MOL   H10933051   3.424   5.919   5.050 -1.6477  1.7944 -0.4080
  182MOL   C11033052   3.807   6.035   5.087  0.0780  0.1799  0.3585
  182MOL   C11133053   3.768   6.109   5.220  0.2939  0.4572 -0.0414
  182MOL   C11233054   3.899   6.130   5.001 -0.0960  0.6536  0.1657
  182MOL   O11333055   3.956   6.226   5.049  0.4678  0.3406  0.2798
  182MOL   O11433056   3.906   6.093   4.873  0.1503  0.2405 -0.1728
  182MOL   H11533057   3.854   5.940   5.111  1.7052  0.5091 -1.4332
  182MOL   H11633058   3.860   6.130   5.275  0.1278 -1.9288  1.2040
  182MOL   H11733059   3.714   6.202   5.204 -1.8337 -0.3213  2.2298
  182MOL   H11833060   3.713   6.037   5.281 -0.3345  0.5335 -0.5091
  182MOL   C11933061   3.958   6.166   4.766 -0.6395 -0.4395 -0.2027
  182MOL   C12033062   3.902   6.097   4.645  0.5531  0.0225 -0.1724
  182MOL   C12133063   4.117   6.188   4.759 -0.2968  0.1201  0.4153
  182MOL   O12233064   4.187   6.110   4.822  0.1106  0.5114  0.7810
  182MOL   O12333065   4.159   6.292   4.684 -0.6654 -0.3375 -0.4350
  182MOL   H12433066   3.917   6.266   4.776  1.2186  0.3351 -0.2033
  182MOL   H12533067   3.928   5.991   4.655  1.9555  0.4159  0.4586
  182MOL   H12633068   3.795   6.112   4.639  0.7217  2.3977  1.7650
  182MOL   H12733069   3.936   6.143   4.552  0.8552  2.4137  1.0843
  182MOL   C12833070   4.292   6.315   4.635 -0.4379  0.6211 -0.2846
  182MOL   C12933071   4.280   6.451   4.574 -0.5420  0.1168 -0.1401
  182MOL   C13033072   4.326   6.210   4.532  0.7072 -0.8056  0.3407
  182MOL   O13133073   4.428   6.152   4.539  0.0462 -0.3329  0.3413
  182MOL   O13233074   4.239   6.199   4.431  0.2460  0.3486 -0.1317
  182MOL   H13333075   4.360   6.305   4.719 -0.0923  0.7795 -0.5446
  182MOL   H13433076   4.265   6.526   4.652 -0.6204  1.9718 -1.8969
  182MOL   H13533077   4.375   6.482   4.530  0.8728 -2.0543  1.2512
  182MOL   H13633078   4.196   6.463   4.506  0.3116 -1.9783 -1.6150
  182MOL   C13733079   4.248   6.090   4.339  0.4262  0.9189  0.6054
  182MOL   C13833080   4.153   6.114   4.224  0.0936  0.2821 -0.4444
  182MOL   C13933081   4.218   5.958   4.407 -0.0291  0.4111  0.1463
  182MOL   O14033082   4.165   5.945   4.514  0.1621  0.5733 -0.4060
  182MOL   O14133083   4.263   5.850   4.335  0.3492  0.5320  0.0258
  182MOL   H14233084   4.348   6.094   4.297  0.3129 -1.1840  0.0823
  182MOL   H14333085   4.050   6.091   4.247 -0.2987  0.6369 -1.7844
  182MOL   H14433086   4.162   6.215   4.182 -1.0025 -0.0157 -1.4092
  182MOL   H14533087   4.172   6.050   4.137  1.9229 -1.8128  1.4285
  182MOL   C14633088   4.284   5.723   4.393 -0.7335  0.0504 -0.3408
  182MOL   C14733089   4.157   5.649   4.433  0.5759  0.5696 -0.4454
  182MOL   C14833090   4.386   5.727   4.511  0.1271  0.0232  0.1895
  182MOL   O14933091   4.363   5.686   4.625  0.3459 -0.3794 -0.2304
  182MOL   O15033092   4.512   5.779   4.475  0.2797 -0.2550 -0.3301
  182MOL   H15133093   4.335   5.674   4.310 -1.8990 -0.5624 -0.6969
  182MOL   H15233094   4.092   5.656   4.345  1.1946 -1.8055 -1.1210
  182MOL   H15333095   4.174   5.542   4.440 -1.7682  0.2985  1.6767
  182MOL   H15433096   4.107   5.677   4.525  1.3378 -0.7040  0.3586
  182MOL   C15533097   4.621   5.782   4.567 -0.1297 -0.3447  0.1871
  182MOL   C15633098   4.737   5.869   4.511 -0.3452 -0.1279  0.6543
  182MOL   C15733099   4.660   5.635   4.594  0.3332 -0.5606 -0.3546
  182MOL   O15833100   4.620   5.539   4.533 -0.1607 -0.2783 -0.2952
  182MOL   O15933101   4.747   5.633   4.693 -0.0116 -0.6946  0.4252
  182MOL   H16033102   4.580   5.829   4.655 -0.5528 -0.0706 -0.1577
  182MOL   H16133103   4.736   5.840   4.406 -2.1920 -2.0012  1.1628
  182MOL   H16233104   4.711   5.975   4.514  1.3652  0.4340 -1.9803
  182MOL   H16333105   4.838   5.866   4.552  0.7821  0.0206 -1.9493
  182MOL   C16433106   4.809   5.514   4.735  0.4904 -0.2011 -1.0070
  182MOL   C16533107   4.871   5.536   4.875  0.2925 -0.0469 -0.4724
  182MOL   C16633108   4.911   5.464   4.637 -0.2993  1.1483  0.4963
  182MOL   O16733109   4.982   5.544   4.581 -0.4648 -0.5921 -0.5192
  182MOL   O16833110   4.915   5.336   4.629 -0.5907 -0.7896 -0.1413
  182MOL   H16933111   4.730   5.441   4.754  0.6774  0.4511  2.4489
  182MOL   H17033112   4.894   5.434   4.906  0.4082  0.2744  0.5216
  182MOL   H17133113   4.963   5.593   4.881 -0.3860  1.0536 -0.4643
  182MOL   H17233114   4.795   5.576   4.942 -0.9530 -2.0137 -0.6374
  182MOL   C17333115   5.009   5.262   4.560 -0.1983 -0.3142  0.6011
  182MOL   C17433116   4.954   5.124   4.536  0.3945 -0.2345 -0.0352
  182MOL   C17533117   5.148   5.268   4.627  1.2169 -0.0158 -0.6885
  182MOL   O17633118   5.251   5.292   4.562 -0.2441  0.4849  0.1892
  182MOL   O17733119   5.145   5.226   4.755  0.7577  0.4275  0.0204
  182MOL   H17833120   5.021   5.306   4.461  2.8396  0.0856  1.0897
  182MOL   H17933121   4.977   5.056   4.618 -0.6333  0.1183  0.5471
  182MOL   H18033122   4.846   5.118   4.526  0.5119 -1.6771 -0.5830
  182MOL   H18133123   4.993   5.070   4.450  2.7222  0.8952  0.2538
  182MOL   H18233124   5.228   5.242   4.797 -0.4634 -0.3310  2.8949
  183MOL     C133125   1.092   2.494   2.383  0.5672  0.5865  0.2065
  183MOL     C233126   1.090   2.645   2.356  0.4554  0.1794 -0.3023
  183MOL     C333127   0.978   2.408   2.316 -0.3565 -0.0997 -0.6133
  183MOL     O433128   1.000   2.340   2.218  0.4330  0.4156  0.1314
  183MOL     O533129   0.857   2.440   2.372 -0.8548 -0.5272 -0.0642
  183MOL     H633130   1.186   2.457   2.340  0.5060  3.2640 -2.3966
  183MOL     H733131   1.125   2.701   2.443  3.1562  2.8240 -2.9680
  183MOL     H833132   1.163   2.674   2.281  0.4153 -0.0216 -0.4193
  183MOL     H933133   0.990   2.674   2.325  0.4098 -0.0427 -0.3576
  183MOL    H1033134   1.096   2.466   2.488  1.5203  1.4048  0.3978
  183MOL    C1133135   0.742   2.372   2.336 -0.1330 -0.6254 -0.7373
  183MOL    C1233136   0.642   2.468   2.404  0.5226 -0.1328  0.2615
  183MOL    C1333137   0.740   2.225   2.389 -0.2071  1.1393  0.3449
  183MOL    O1433138   0.811   2.185   2.484  0.1746 -0.2379  0.4853
  183MOL    O1533139   0.650   2.152   2.325 -0.3428  0.1404 -0.1460
  183MOL    H1633140   0.736   2.365   2.228  2.8647 -0.6758 -0.9448
  183MOL    H1733141   0.650   2.481   2.512  1.9770 -0.1287  0.1603
  183MOL    H1833142   0.637   2.570   2.366 -3.7891 -0.2455  0.2786
  183MOL    H1933143   0.540   2.431   2.394  0.9738 -1.8082  1.5795
  183MOL    C2033144   0.633   2.015   2.351 -0.3750  0.3193  0.3582
  183MOL    C2133145   0.602   1.941   2.214  0.1894 -0.4892  0.1840
  183MOL    C2233146   0.515   1.999   2.453  0.3381 -0.1894 -0.1517
  183MOL    O2333147   0.473   2.100   2.517  0.2962  0.3948 -0.4373
  183MOL    O2433148   0.480   1.870   2.474  0.1753  0.6191 -0.4083
  183MOL    H2533149   0.723   1.970   2.392 -1.2324 -1.7695  0.0139
  183MOL    H2633150   0.544   1.849   2.225  2.3452 -1.9269 -0.0958
  183MOL    H2733151   0.552   2.009   2.146  0.6844 -0.9415 -0.6365
  183MOL    H2833152   0.694   1.908   2.166  0.3448 -1.8051  1.3457
  183MOL    C2933153   0.381   1.821   2.561  0.8377  0.0498  0.4347
  183MOL    C3033154   0.436   1.683   2.601  0.0685 -0.3418  0.2261
  183MOL    C3133155   0.246   1.814   2.478 -0.5508  0.3718  0.5045
  183MOL    O3233156   0.215   1.711   2.423 -0.0103 -0.0439 -0.2195
  183MOL    O3333157   0.181   1.931   2.476 -0.2435  0.1084 -0.0653
  183MOL    H3433158   0.367   1.884   2.649 -0.3918 -0.1813  0.4122
  183MOL    H3533159   0.373   1.653   2.684 -0.6081  1.3835  0.3726
  183MOL    H3633160   0.422   1.613   2.519 -4.6548  1.5655 -0.7836
  183MOL    H3733161   0.537   1.687   2.641  0.2569 -1.8659 -0.1051
  183MOL    C3833162   0.104   1.974   2.364  0.7564 -0.2231  0.3602
  183MOL    C3933163   8.126   1.894   2.343 -0.7528 -0.5897 -0.7148
  183MOL    C4033164   0.182   1.983   2.234 -0.2368 -0.2247 -0.1309
  183MOL    O4133165   0.286   2.050   2.231  0.7505 -0.4787 -0.0625
  183MOL    O4233166   0.129   1.909   2.131 -0.0198  0.0116  0.0796
  183MOL    H4333167   0.073   2.075   2.391  1.4469 -0.0238  0.4039
  183MOL    H4433168   8.063   1.924   2.259 -0.4230 -2.2053 -1.5648
  183MOL    H4533169   8.130   1.786   2.330 -0.5550 -0.7813  0.9274
  183MOL    H4633170   8.063   1.902   2.432  0.5669  0.6444  0.1237
  183MOL    C4733171   0.185   1.913   1.999 -0.2880  0.2287 -0.5130
  183MOL    C4833172   0.093   1.871   1.899  0.0846  0.4759 -0.1999
  183MOL    C4933173   0.317   1.836   2.000 -0.3883 -0.6769 -0.6550
  183MOL    O5033174   0.419   1.887   1.949  0.2066  0.0190  0.0554
  183MOL    O5133175   0.308   1.718   2.059 -0.3734  0.0545 -0.1872
  183MOL    H5233176   0.213   2.016   1.976 -1.3875  0.2861 -1.6533
  183MOL    H5333177   0.038   1.781   1.925 -2.2226  1.9583  0.1823
  183MOL    H5433178   0.029   1.959   1.886  1.2533  1.1482 -1.6288
  183MOL    H5533179   0.153   1.850   1.810 -0.4271 -1.8116 -0.0147
  183MOL    C5633180   0.421   1.631   2.060  0.2383  0.2291 -0.4756
  183MOL    C5733181   0.412   1.533   1.941  0.1253 -0.0399  1.0890
  183MOL    C5833182   0.412   1.555   2.193 -0.0239 -0.7221 -0.4746
  183MOL    O5933183   0.481   1.588   2.288 -0.3481 -0.0343 -0.2671
  183MOL    O6033184   0.318   1.472   2.196  0.6767 -0.0303 -0.6353
  183MOL    H6133185   0.513   1.689   2.067  0.7986 -0.9329  2.6100
  183MOL    H6233186   0.486   1.454   1.937 -1.2616 -1.3254  0.3560
  183MOL    H6333187   0.311   1.495   1.925 -0.3542  0.2921  3.1887
  183MOL    H6433188   0.426   1.581   1.844  0.6082 -0.4437  0.9588
  183MOL    C6533189   0.284   1.390   2.313  0.5657 -0.0903  0.0614
  183MOL    C6633190   0.294   1.238   2.272  0.2555 -0.0543 -0.2862
  183MOL    C6733191   0.145   1.408   2.369 -0.1697 -0.5622 -0.3732
  183MOL    O6833192   0.058   1.456   2.304  0.0330 -0.3830  0.1028
  183MOL    O6933193   0.128   1.354   2.488  0.2341  1.0992  0.7390
  183MOL    H7033194   0.346   1.416   2.399 -0.5859  1.2579  0.5038
  183MOL    H7133195   0.232   1.204   2.189 -1.2812 -0.9996  1.2156
  183MOL    H7233196   0.392   1.206   2.238  0.0851 -3.0636  1.8404
  183MOL    H7333197   0.274   1.173   2.356 -1.6555 -0.0647 -0.7289
  183MOL    C7433198   8.139   1.319   2.532  0.3450 -0.1456 -0.3552
  183MOL    C7533199   0.010   1.267   2.677 -0.1386 -1.1421  0.5727
  183MOL    C7633200   8.084   1.215   2.433 -0.2483  0.3644 -0.0423
  183MOL    O7733201   8.139   1.102   2.429  0.0324 -0.6969  0.2439
  183MOL    O7833202   7.993   1.261   2.347  0.2971 -0.2162  0.2407
  183MOL    H7933203   8.066   1.399   2.543 -0.7264 -1.0209 -0.9903
  183MOL    H8033204   0.065   1.340   2.736  0.0582 -0.3305 -0.5945
  183MOL    H8133205   8.064   1.238   2.724  1.3883  0.3497  4.7319
  183MOL    H8233206   0.068   1.174   2.678 -0.0441 -1.1723 -2.6422
  183MOL    C8333207   7.936   1.192   2.235 -0.2525 -0.6575 -0.4604
  183MOL    C8433208   7.830   1.286   2.182  0.0393  0.6426  0.1080
  183MOL    C8533209   7.865   1.066   2.273 -0.3299 -0.0108  0.1296
  183MOL    O8633210   7.790   1.059   2.374  0.0107 -0.2337 -0.3599
  183MOL    O8733211   7.889   0.964   2.192  0.1303  0.3667 -0.4385
  183MOL    H8833212   8.006   1.159   2.159 -1.3944 -0.9889 -1.3778
  183MOL    H8933213   7.732   1.283   2.230 -0.0287 -4.9284 -0.0720
  183MOL    H9033214   7.857   1.391   2.198  0.9779  0.4396 -0.1491
  183MOL    H9133215   7.818   1.260   2.077 -3.0962  2.9331 -0.2133
  183MOL    C9233216   7.818   0.841   2.212  0.2103 -0.0072  0.2136
  183MOL    C9333217   7.917   0.726   2.169 -0.1305 -0.4016  0.7222
  183MOL    C9433218   7.693   0.838   2.126  0.1447  0.3492 -0.1765
  183MOL    O9533219   7.664   0.938   2.055  0.3734 -0.6182  0.2455
  183MOL    O9633220   7.623   0.723   2.129 -0.4272  0.5820 -0.3223
  183MOL    H9733221   7.784   0.831   2.314 -1.3977  0.8645 -0.2237
  183MOL    H9833222   7.997   0.729   2.243  0.1708 -0.5605  0.4036
  183MOL    H9933223   7.877   0.625   2.180  0.2297 -0.6646 -0.3096
  183MOL   H10033224   7.950   0.738   2.066 -0.4709 -1.0660  0.5320
  183MOL   C10133225   7.500   0.706   2.064 -0.6673  0.0085 -0.0146
  183MOL   C10233226   7.421   0.603   2.156 -0.6461  0.4145 -0.0872
  183MOL   C10333227   7.532   0.654   1.927 -0.9369  0.5313  0.7453
  183MOL   O10433228   7.646   0.622   1.889  0.4306  0.5592  0.5329
  183MOL   O10533229   7.425   0.644   1.852  0.4498  1.1341 -0.2221
  183MOL   H10633230   7.442   0.797   2.055 -0.0162  0.5741  1.2241
  183MOL   H10733231   7.334   0.568   2.101 -0.8258  1.0656 -0.2188
  183MOL   H10833232   7.491   0.523   2.180 -1.3021  0.6107  2.6151
  183MOL   H10933233   7.363   0.634   2.243  1.2256  1.0503  0.9731
  183MOL   C11033234   7.423   0.610   1.714  0.1352  0.8226  0.9470
  183MOL   C11133235   7.286   0.661   1.682  0.8034 -0.3068  0.2986
  183MOL   C11233236   7.437   0.460   1.687 -0.1713  0.6009 -0.4225
  183MOL   O11333237   7.511   0.421   1.599  0.1052  0.6980 -0.3906
  183MOL   O11433238   7.352   0.387   1.769 -0.0909  0.4678  0.1010
  183MOL   H11533239   7.489   0.673   1.654  2.1549 -1.7971  0.3151
  183MOL   H11633240   7.268   0.629   1.580 -0.9631 -0.2679  0.5710
  183MOL   H11733241   7.221   0.601   1.746  1.9723 -3.0174 -1.0123
  183MOL   H11833242   7.271   0.768   1.697  3.2107  0.3766 -1.8501
  183MOL   C11933243   7.347   0.244   1.764  0.1527  0.2347  0.8507
  183MOL   C12033244   7.197   0.209   1.804  0.4159 -0.3986 -0.5084
  183MOL   C12133245   7.449   0.176   1.858  0.0162 -0.5159 -0.2309
  183MOL   O12233246   7.501   0.231   1.954  0.3360 -0.7916  0.0480
  183MOL   O12333247   7.446   0.040   1.854 -0.1732  0.5217  0.1138
  183MOL   H12433248   7.375   0.207   1.666 -0.0205  1.1302  0.4650
  183MOL   H12533249   7.148   0.287   1.862 -0.3313 -1.8431  0.8508
  183MOL   H12633250   7.134   0.190   1.717  1.7756  0.7755 -1.7634
  183MOL   H12733251   7.188   0.117   1.863 -1.2857  0.1483  0.1159
  183MOL   C12833252   7.514   8.100   1.941  0.4061 -0.1088  0.8934
  183MOL   C12933253   7.648   8.052   1.892 -0.3828 -0.5212  0.7707
  183MOL   C13033254   7.419   7.984   1.986  0.3298  0.2670  0.2479
  183MOL   O13133255   7.439   7.872   1.945 -0.0001 -0.4961  0.1069
  183MOL   O13233256   7.328   8.023   2.075 -0.2475 -0.2724  0.1711
  183MOL   H13333257   7.527   0.009   2.033  0.0634  2.5286 -0.5965
  183MOL   H13433258   7.642   8.003   1.795  0.5924  1.1212 -0.1543
  183MOL   H13533259   7.711   8.140   1.882 -0.0113 -0.8726 -0.0354
  183MOL   H13633260   7.688   7.982   1.965  0.2719  0.4244  1.3334
  183MOL   C13733261   7.228   7.935   2.127 -0.2081  0.4960  0.2663
  183MOL   C13833262   7.118   8.012   2.197  0.9137  0.2189 -0.0783
  183MOL   C13933263   7.289   7.823   2.208 -0.1042 -0.6314 -0.0425
  183MOL   O14033264   7.235   7.713   2.214  0.0075  1.1771  0.2790
  183MOL   O14133265   7.388   7.870   2.296 -0.6620 -0.7276  0.0745
  183MOL   H14233266   7.192   7.879   2.041  0.3980  0.9447 -0.2787
  183MOL   H14333267   7.037   7.941   2.211 -0.0558  1.0700 -1.2835
  183MOL   H14433268   7.147   8.041   2.298 -0.3404 -1.8774  0.9184
  183MOL   H14533269   7.076   8.083   2.126 -0.6961  1.6222  2.2126
  183MOL   C14633270   7.438   7.794   2.413  0.0458  0.1663 -0.0589
  183MOL   C14733271   7.415   7.875   2.547 -0.4734 -0.4373  0.6598
  183MOL   C14833272   7.581   7.750   2.399 -0.3861 -0.0072  0.3196
  183MOL   O14933273   7.648   7.798   2.307  0.0944  0.2562  0.0665
  183MOL   O15033274   7.624   7.652   2.485 -0.1995 -0.1391  0.6010
  183MOL   H15133275   7.378   7.704   2.429 -1.2466  1.1922  0.9969
  183MOL   H15233276   7.445   7.980   2.535  1.1769 -0.8390  1.0714
  183MOL   H15333277   7.308   7.873   2.565 -0.2970  1.1889  2.0259
  183MOL   H15433278   7.459   7.826   2.634  0.4804 -0.4055  0.2076
  183MOL   C15533279   7.753   7.597   2.484 -0.7234  0.0471  0.1153
  183MOL   C15633280   7.742   7.489   2.590 -0.4263  0.2373  0.3511
  183MOL   C15733281   7.861   7.706   2.521 -0.4466 -0.3870  0.7388
  183MOL   O15833282   7.971   7.714   2.474 -0.0451  0.1182  0.0088
  183MOL   O15933283   7.817   7.783   2.625  0.4825 -0.0724 -0.4507
  183MOL   H16033284   7.765   7.557   2.383 -2.0720 -0.4086  0.1139
  183MOL   H16133285   7.773   7.526   2.688  2.7851  0.3159 -0.6446
  183MOL   H16233286   7.642   7.445   2.594 -0.6787  0.3848 -3.0270
  183MOL   H16333287   7.808   7.408   2.560 -0.0059  0.7762 -0.1924
  183MOL   C16433288   7.898   7.888   2.680  0.5879  0.2083 -0.5308
  183MOL   C16533289   7.831   7.948   2.806  0.5639 -0.1950  0.1671
  183MOL   C16633290   7.910   8.003   2.573 -0.1723 -0.6271 -1.1131
  183MOL   O16733291   8.018   8.063   2.555  0.1117  0.7485 -0.2437
  183MOL   O16833292   7.804   8.032   2.496  0.5935  0.2669 -0.2473
  183MOL   H16933293   7.994   7.841   2.703  0.4288  0.0246 -0.2505
  183MOL   H17033294   7.779   7.867   2.856 -0.1251  0.2996  0.2610
  183MOL   H17133295   7.902   7.976   2.883 -0.5122  1.9331  0.4088
  183MOL   H17233296   7.763   8.033   2.795  1.2007  0.0523 -2.1496
  183MOL   C17333297   7.796   8.139   2.396 -0.5951  0.3253 -0.0158
  183MOL   C17433298   7.637   0.008   2.375 -0.2447  0.7602 -0.2261
  183MOL   C17533299   7.866   8.098   2.267 -0.4472 -0.1873 -0.0389
  183MOL   O17633300   7.817   8.094   2.154 -0.0605  0.2994 -0.4214
  183MOL   O17733301   8.003   8.083   2.281  0.0575  0.5144  0.4350
  183MOL   H17833302   7.833   0.085   2.439 -1.1776  0.1070  0.9833
  183MOL   H17933303   7.615   0.083   2.299  1.3530  2.1177  0.6194
  183MOL   H18033304   7.583   8.070   2.335 -2.6509  2.9588 -1.8276
  183MOL   H18133305   7.575   0.038   2.459 -1.5460 -2.8619  0.1933
  183MOL   H18233306   8.017   8.098   2.373  0.6669  1.2660  0.2215
  184MOL     C133307   2.161   5.984   6.150  0.6234 -0.2212  0.3320
  184MOL     C233308   2.275   5.973   6.250  0.2531  0.2743  0.1479
  184MOL     C333309   2.067   5.859   6.145 -0.5128 -0.0153  0.2303
  184MOL     O433310   1.958   5.862   6.200  0.4604 -0.5408 -0.2688
  184MOL     O533311   2.120   5.751   6.080 -0.8400  0.1980 -0.3658
  184MOL     H633312   2.094   6.067   6.173 -0.5006 -0.9124 -0.3835
  184MOL     H733313   2.253   5.936   6.350  1.5212  2.0233  1.1130
  184MOL     H833314   2.361   5.912   6.224 -0.0663 -0.6961  1.3114
  184MOL     H933315   2.310   6.074   6.273 -0.5300  1.0374 -1.9148
  184MOL    H1033316   2.202   5.995   6.049  2.0937 -1.3949  0.7921
  184MOL    C1133317   2.042   5.638   6.061 -0.4958  0.4911 -0.3326
  184MOL    C1233318   2.133   5.532   6.015 -0.4958  1.0063 -0.2828
  184MOL    C1333319   1.924   5.661   5.965  0.5186  0.1257  0.4120
  184MOL    O1433320   1.938   5.667   5.845  0.4015 -0.1892 -0.2230
  184MOL    O1533321   1.815   5.657   6.038  0.3907  0.0293  0.0073
  184MOL    H1633322   2.008   5.613   6.161 -1.0622  0.4941 -0.5239
  184MOL    H1733323   2.203   5.514   6.096 -2.8480 -0.4243  1.4887
  184MOL    H1833324   2.083   5.436   6.007 -1.5087  1.2517  2.5372
  184MOL    H1933325   2.176   5.562   5.919  2.8292 -0.8931  0.5339
  184MOL    C2033326   1.686   5.684   5.985  0.5154  0.7438 -0.1754
  184MOL    C2133327   1.589   5.643   6.101 -0.6696  0.0521 -0.3956
  184MOL    C2233328   1.641   5.597   5.872  0.5713 -0.2686 -1.1120
  184MOL    O2333329   1.694   5.486   5.856 -0.3925 -0.0318  0.0141
  184MOL    O2433330   1.535   5.654   5.808  0.0124 -0.0078 -0.1315
  184MOL    H2533331   1.676   5.789   5.959 -0.8316  0.5244 -0.5892
  184MOL    H2633332   1.593   5.708   6.189 -3.6992 -1.2719  0.7919
  184MOL    H2733333   1.482   5.651   6.079 -0.7813 -1.1105 -0.2960
  184MOL    H2833334   1.609   5.542   6.136  2.5941  0.5439 -0.6726
  184MOL    C2933335   1.443   5.564   5.741 -0.7302 -0.0744  0.5509
  184MOL    C3033336   1.419   5.635   5.603  0.1242  0.0582 -0.1046
  184MOL    C3133337   1.317   5.533   5.829 -0.0432  0.2388  0.3417
  184MOL    O3233338   1.333   5.468   5.934 -0.5206 -0.8757  0.2140
  184MOL    O3333339   1.204   5.594   5.784 -0.3564  0.0787  0.4929
  184MOL    H3433340   1.482   5.466   5.714 -1.5959 -0.6738  1.4330
  184MOL    H3533341   1.509   5.623   5.543 -1.0765 -0.9229 -1.7481
  184MOL    H3633342   1.330   5.597   5.552 -0.0496  3.2362 -2.2734
  184MOL    H3733343   1.400   5.740   5.626 -0.9092 -0.3350  0.9283
  184MOL    C3833344   1.086   5.580   5.870 -0.1560 -0.1194  0.2892
  184MOL    C3933345   0.957   5.594   5.782  0.1624 -0.6380 -0.0041
  184MOL    C4033346   1.082   5.688   5.980  0.7181 -0.5800  0.0585
  184MOL    O4133347   1.077   5.809   5.952 -0.5562  0.2684 -0.0472
  184MOL    O4233348   1.063   5.628   6.101  0.3012 -0.6077  0.3314
  184MOL    H4333349   1.084   5.479   5.912 -2.6801 -0.7620 -1.2870
  184MOL    H4433350   0.954   5.493   5.739  0.0119 -0.0080 -1.5074
  184MOL    H4533351   0.857   5.612   5.821  0.8405  1.7885  0.6761
  184MOL    H4633352   0.981   5.652   5.693  0.5302  1.0929  1.2112
  184MOL    C4733353   1.063   5.696   6.225 -0.1378  0.3671  0.0077
  184MOL    C4833354   0.948   5.793   6.236  0.0572 -0.2200  0.4982
  184MOL    C4933355   1.205   5.762   6.253  0.2536  0.0720 -0.3515
  184MOL    O5033356   1.286   5.704   6.325  0.4846  0.1440  0.3061
  184MOL    O5133357   1.216   5.881   6.202  0.2995 -0.0610 -0.5677
  184MOL    H5233358   1.043   5.620   6.301  0.7922 -0.4327 -0.5429
  184MOL    H5333359   0.851   5.754   6.265 -1.5182 -0.7990 -4.9330
  184MOL    H5433360   0.982   5.846   6.325  0.6519 -3.9984  2.6137
  184MOL    H5533361   0.943   5.863   6.152  2.1870 -2.0566 -1.2387
  184MOL    C5633362   1.305   5.992   6.244  0.2585 -0.5753 -0.3989
  184MOL    C5733363   1.446   5.995   6.176  0.0588 -0.1662 -0.1580
  184MOL    C5833364   1.318   6.013   6.399 -0.5382 -0.7476  0.1489
  184MOL    O5933365   1.421   6.045   6.449  0.9371  0.0150 -0.3553
  184MOL    O6033366   1.201   5.996   6.460 -0.0781 -0.3704  0.2808
  184MOL    H6133367   1.244   6.072   6.203 -0.8930 -0.9195  0.6318
  184MOL    H6233368   1.440   5.981   6.068 -0.9988  0.4096 -0.1768
  184MOL    H6333369   1.491   6.090   6.207 -1.0255  0.6723 -1.1183
  184MOL    H6433370   1.511   5.914   6.209  0.9674  0.8096  0.4933
  184MOL    C6533371   1.175   6.023   6.593 -0.1875 -0.5871 -0.3980
  184MOL    C6633372   1.176   5.890   6.661  0.0931  0.4805 -0.1472
  184MOL    C6733373   1.042   6.093   6.605  0.2624 -0.6252  0.3254
  184MOL    O6833374   1.035   6.201   6.666  0.3607  0.4398  0.3617
  184MOL    O6933375   0.951   6.033   6.536  0.0552  0.0542 -0.1746
  184MOL    H7033376   1.249   6.085   6.643 -3.1802  0.2385  3.2089
  184MOL    H7133377   1.164   5.906   6.768 -2.9386  0.9889 -0.5112
  184MOL    H7233378   1.100   5.816   6.635 -0.3453  0.5965  0.7819
  184MOL    H7333379   1.275   5.845   6.653 -0.5649 -0.7837 -1.4479
  184MOL    C7433380   0.823   6.105   6.512 -0.8626 -0.2704 -0.1598
  184MOL    C7533381   0.736   6.014   6.426  0.2486  0.3773  0.3629
  184MOL    C7633382   0.844   6.245   6.448  0.7201 -0.2217  0.0356
  184MOL    O7733383   0.818   6.350   6.504 -0.3367  0.5296  0.4351
  184MOL    O7833384   0.892   6.236   6.325  0.7290  0.6763 -0.1263
  184MOL    H7933385   0.782   6.121   6.612  1.2695 -0.8649  0.8281
  184MOL    H8033386   0.768   6.024   6.322 -0.8934  1.2246  0.0863
  184MOL    H8133387   0.755   5.912   6.459 -1.3652 -0.2811 -0.6911
  184MOL    H8233388   0.632   6.038   6.446  0.5025 -0.4291  2.8172
  184MOL    C8333389   0.939   6.344   6.254 -0.5542 -0.4763 -0.6765
  184MOL    C8433390   0.941   6.300   6.113  0.2165  0.0343 -0.4529
  184MOL    C8533391   1.078   6.380   6.301 -0.0446  0.1172 -0.2794
  184MOL    O8633392   1.163   6.294   6.325 -0.1989  0.1635 -0.2309
  184MOL    O8733393   1.097   6.511   6.326  0.8481 -0.2286  0.3078
  184MOL    H8833394   0.866   6.424   6.264 -1.0051 -0.6778 -2.2545
  184MOL    H8933395   0.969   6.371   6.036  5.0811 -1.4992 -0.2416
  184MOL    H9033396   1.024   6.229   6.106  1.5448  1.1338  3.1958
  184MOL    H9133397   0.849   6.248   6.084  0.8014 -1.7317  0.8089
  184MOL    C9233398   1.215   6.561   6.388  0.6453  0.5280  0.5133
  184MOL    C9333399   1.340   6.531   6.308  0.2799  0.0778  0.4466
  184MOL    C9433400   1.232   6.528   6.535  0.3880  0.3765 -0.3919
  184MOL    O9533401   1.323   6.456   6.586 -0.2016 -0.2217  0.2442
  184MOL    O9633402   1.136   6.588   6.605  0.1531  0.3298  0.6919
  184MOL    H9733403   1.208   6.670   6.388  1.6905  0.6184 -1.8419
  184MOL    H9833404   1.361   6.424   6.315  0.7162  0.0705 -0.8463
  184MOL    H9933405   1.325   6.562   6.205  3.8751 -0.0469 -0.1715
  184MOL   H10033406   1.419   6.589   6.355  0.6374 -0.0688  0.0201
  184MOL   C10133407   1.136   6.592   6.751  0.4892  0.6574 -0.3429
  184MOL   C10233408   1.004   6.658   6.781  0.3431 -0.0098  0.4562
  184MOL   C10333409   1.253   6.670   6.814  0.7409  0.3723 -0.1446
  184MOL   O10433410   1.313   6.628   6.913 -0.7799  0.5296  0.0935
  184MOL   O10533411   1.262   6.791   6.753  0.5188  0.4111  0.1212
  184MOL   H10633412   1.129   6.493   6.797 -0.4923  0.8052 -0.1605
  184MOL   H10733413   0.982   6.646   6.887  0.7127  1.5603  0.7223
  184MOL   H10833414   1.003   6.763   6.750  0.2973 -0.6397 -1.7770
  184MOL   H10933415   0.927   6.605   6.725  1.3680  1.0330 -2.0456
  184MOL   C11033416   1.373   6.883   6.773 -0.1860  0.0713 -0.0428
  184MOL   C11133417   1.332   7.030   6.748  0.1890  0.2053 -0.8074
  184MOL   C11233418   1.495   6.835   6.691 -0.0504 -0.5197  0.2401
  184MOL   O11333419   1.505   6.861   6.569  0.1086  0.0912  0.3317
  184MOL   O11433420   1.580   6.755   6.768  0.0026 -0.6681  0.1451
  184MOL   H11533421   1.399   6.878   6.879  1.0552 -1.2758 -0.3911
  184MOL   H11633422   1.272   7.038   6.657 -1.3534  2.3180  0.3411
  184MOL   H11733423   1.287   7.083   6.831  2.9065  0.7633  0.3781
  184MOL   H11833424   1.425   7.087   6.741  0.9780 -1.0014 -0.2497
  184MOL   C11933425   1.685   6.681   6.698  0.3446  0.1396 -0.4051
  184MOL   C12033426   1.737   6.579   6.802  0.5858  0.2352  0.1067
  184MOL   C12133427   1.803   6.775   6.657  0.2805  0.2427 -0.0377
  184MOL   O12233428   1.819   6.888   6.696 -0.2128  0.4694  0.4112
  184MOL   O12333429   1.881   6.703   6.570  0.1964 -0.1196 -0.0139
  184MOL   H12433430   1.648   6.628   6.610 -0.5145 -1.7773  1.0619
  184MOL   H12533431   1.658   6.508   6.827  0.2317  0.3081 -0.7763
  184MOL   H12633432   1.823   6.521   6.769  0.1668 -0.8165  0.8443
  184MOL   H12733433   1.745   6.624   6.900 -1.0171 -1.2658  0.9543
  184MOL   C12833434   2.001   6.759   6.516 -0.5892 -0.2923 -0.1661
  184MOL   C12933435   2.015   6.712   6.365  0.3291 -0.0292  0.0986
  184MOL   C13033436   2.118   6.714   6.606 -0.1020 -0.0472 -0.3844
  184MOL   O13133437   2.205   6.631   6.578 -0.2570  0.2478  0.1085
  184MOL   O13233438   2.109   6.773   6.726  1.0287 -0.4412  0.4865
  184MOL   H13333439   2.012   6.868   6.513  0.6976 -0.3948  0.6473
  184MOL   H13433440   2.019   6.603   6.364 -0.0001 -0.0404 -0.0666
  184MOL   H13533441   1.936   6.754   6.303 -1.0280  1.9491  3.0532
  184MOL   H13633442   2.108   6.755   6.328  1.5811 -0.3363  2.7303
  184MOL   C13733443   2.180   6.732   6.841  0.2676 -0.7523  0.7495
  184MOL   C13833444   2.112   6.807   6.960  0.3338  0.1351  0.3433
  184MOL   C13933445   2.324   6.768   6.824 -0.0176  0.0023 -0.3778
  184MOL   O14033446   2.419   6.689   6.819  0.1906 -0.2543  0.5538
  184MOL   O14133447   2.343   6.899   6.791  0.3104  0.3150  0.2706
  184MOL   H14233448   2.166   6.625   6.858  0.3611 -0.8223  0.4043
  184MOL   H14333449   2.127   6.914   6.951 -3.4133  0.6865 -0.1121
  184MOL   H14433450   2.004   6.794   6.955  0.4912 -1.2973  0.3926
  184MOL   H14533451   2.155   6.773   7.054  0.6640 -0.2004  0.0724
  184MOL   C14633452   2.471   6.956   6.767  0.3263  0.7014 -0.3583
  184MOL   C14733453   2.485   7.097   6.828  0.0874 -0.1198 -0.4304
  184MOL   C14833454   2.498   6.938   6.617 -0.2085 -0.7408  0.5536
  184MOL   O14933455   2.538   6.829   6.572  0.2420  0.3418  0.5925
  184MOL   O15033456   2.480   7.046   6.542 -0.3196  0.1520  0.0427
  184MOL   H15133457   2.545   6.896   6.820  0.2314  2.3669  1.7158
  184MOL   H15233458   2.477   7.095   6.937  0.6053  0.4633 -0.3856
  184MOL   H15333459   2.583   7.136   6.800  0.9155 -1.3451  0.6537
  184MOL   H15433460   2.409   7.154   6.774  2.8196  0.5821 -3.7434
  184MOL   C15533461   2.510   7.055   6.401  0.3458 -0.1230  0.2832
  184MOL   C15633462   2.532   7.202   6.363  0.1370  0.0018 -0.2190
  184MOL   C15733463   2.408   6.989   6.311  0.7121  1.0112 -0.2392
  184MOL   O15833464   2.298   6.947   6.353 -0.6295  0.6308 -0.3675
  184MOL   O15933465   2.457   6.988   6.179 -0.5009  0.0742  0.0942
  184MOL   H16033466   2.605   7.005   6.385 -0.4532 -0.8348 -2.5542
  184MOL   H16133467   2.452   7.268   6.396  1.4727  1.5765 -0.0399
  184MOL   H16233468   2.624   7.240   6.409 -0.2322  0.4375  0.1616
  184MOL   H16333469   2.548   7.219   6.257  0.0506  2.3964  0.1167
  184MOL   C16433470   2.373   6.965   6.066  0.9784 -1.0869 -0.2898
  184MOL   C16533471   2.468   6.918   5.959 -0.3079  0.2920  0.3347
  184MOL   C16633472   2.302   7.089   6.029 -0.3149  0.6795  0.1286
  184MOL   O16733473   2.199   7.117   6.091 -0.5692  0.1593 -0.2542
  184MOL   O16833474   2.364   7.162   5.932  0.4767  0.0358 -0.0089
  184MOL   H16933475   2.299   6.896   6.107 -0.8249  0.7140 -0.3756
  184MOL   H17033476   2.531   6.999   5.924 -0.9531  0.3264 -0.7709
  184MOL   H17133477   2.534   6.840   5.999 -0.5327  0.4639  1.0544
  184MOL   H17233478   2.409   6.874   5.879  2.1271 -0.1528 -1.2700
  184MOL   C17333479   2.329   7.296   5.914  0.3891 -0.0925 -0.1437
  184MOL   C17433480   2.374   7.346   5.766 -0.3620 -0.9526  0.0859
  184MOL   C17533481   2.378   7.383   6.033 -0.0657 -0.5275 -0.6770
  184MOL   O17633482   2.470   7.461   6.020  0.2967 -0.7629 -0.0189
  184MOL   O17733483   2.320   7.368   6.150  1.0073 -0.9224  0.1723
  184MOL   H17833484   2.221   7.300   5.907  0.3301 -3.2332 -1.7698
  184MOL   H17933485   2.321   7.437   5.738 -0.7407 -1.1720  0.0888
  184MOL   H18033486   2.481   7.366   5.769 -0.7363  0.8614  3.3849
  184MOL   H18133487   2.361   7.269   5.690  1.2897  0.2908 -1.5059
  184MOL   H18233488   2.250   7.305   6.141 -1.2352  1.5161  0.1503
  185MOL     C133489   7.283   1.175   6.471  0.2170 -0.5191 -0.2063
  185MOL     C233490   7.194   1.295   6.445  0.4381 -0.4854  0.7637
  185MOL     C333491   7.382   1.145   6.366  0.9681 -0.1874  0.2712
  185MOL     O433492   7.500   1.180   6.391  0.4032  0.1156 -0.2094
  185MOL     O533493   7.337   1.075   6.261 -0.6494  0.0699  0.2936
  185MOL     H633494   7.348   1.195   6.557  0.2723 -0.8877 -0.1630
  185MOL     H733495   7.127   1.264   6.365  0.5580  0.4823  0.2873
  185MOL     H833496   7.125   1.317   6.527  0.0194 -1.0103  0.5557
  185MOL     H933497   7.248   1.383   6.410 -1.0866  0.4954  0.8100
  185MOL    H1033498   7.229   1.084   6.495  0.9404 -1.5916 -2.4883
  185MOL    C1133499   7.416   1.067   6.148 -0.3239  0.3453 -0.4261
  185MOL    C1233500   7.421   1.200   6.078  0.6033 -0.3347 -0.3928
  185MOL    C1333501   7.361   0.953   6.057 -0.3832 -0.1934 -0.2830
  185MOL    O1433502   7.267   0.878   6.083  0.2187  0.9662  0.0119
  185MOL    O1533503   7.435   0.959   5.941 -0.0728  0.4518  0.5108
  185MOL    H1633504   7.518   1.037   6.172  0.1154 -0.7789 -3.5204
  185MOL    H1733505   7.500   1.191   6.003  0.9889 -1.3749  0.1302
  185MOL    H1833506   7.322   1.227   6.041  0.6143 -0.3342 -0.4209
  185MOL    H1933507   7.453   1.278   6.148  1.9006 -1.5156  0.3571
  185MOL    C2033508   7.401   0.890   5.825 -0.4692 -0.3503 -0.1869
  185MOL    C2133509   7.518   0.894   5.732  0.6080  0.1471 -0.2847
  185MOL    C2233510   7.279   0.957   5.763 -0.7777 -0.1202 -0.2889
  185MOL    O2333511   7.196   0.887   5.706  0.3560  0.1733 -0.9660
  185MOL    O2433512   7.267   1.094   5.773  0.5595  0.8175  0.1453
  185MOL    H2533513   7.367   0.790   5.854 -0.7767 -0.1890  0.0150
  185MOL    H2633514   7.540   0.997   5.702 -1.4538  0.4187 -0.9521
  185MOL    H2733515   7.604   0.845   5.776 -0.9427 -0.7888  1.7889
  185MOL    H2833516   7.490   0.846   5.638  2.0225 -1.0038 -0.1282
  185MOL    C2933517   7.154   1.155   5.721 -0.3764  0.7283  0.7055
  185MOL    C3033518   7.199   1.289   5.664 -0.4478 -0.0862 -0.7569
  185MOL    C3133519   7.045   1.151   5.824 -0.6252  0.7209  0.4289
  185MOL    O3233520   7.063   1.126   5.946 -0.4052  0.0067  0.1194
  185MOL    O3333521   6.918   1.178   5.780  0.0421  0.0680  0.2266
  185MOL    H3433522   7.123   1.096   5.635  0.8781 -0.3742  0.9923
  185MOL    H3533523   7.275   1.273   5.587 -1.5275 -1.3076 -1.5873
  185MOL    H3633524   7.120   1.348   5.618 -0.5187 -1.3605 -2.2832
  185MOL    H3733525   7.240   1.361   5.736 -3.8134  0.0148  1.1394
  185MOL    C3833526   6.807   1.204   5.869 -0.2472  0.8992  0.3630
  185MOL    C3933527   6.671   1.214   5.791 -0.6911  1.0369 -0.5943
  185MOL    C4033528   6.840   1.333   5.947  0.0159 -0.0451 -0.6650
  185MOL    O4133529   6.810   1.335   6.066 -0.1755  0.2584  0.3366
  185MOL    O4233530   6.896   1.429   5.874 -0.5984 -0.0120  0.0841
  185MOL    H4333531   6.806   1.120   5.937  2.1713  0.3054 -0.2563
  185MOL    H4433532   6.677   1.241   5.686  0.8561 -2.1531 -1.3851
  185MOL    H4533533   6.620   1.118   5.799  0.9370  0.2916  1.4487
  185MOL    H4633534   6.604   1.283   5.842 -0.7066  0.3547  0.3441
  185MOL    C4733535   6.956   1.539   5.936 -0.4308 -0.3814 -0.1783
  185MOL    C4833536   6.934   1.659   5.844  0.0013  0.0643  0.0599
  185MOL    C4933537   7.105   1.531   5.984 -0.5022 -0.8593  0.1204
  185MOL    O5033538   7.184   1.447   5.942  0.4628  0.4100 -0.3448
  185MOL    O5133539   7.126   1.629   6.076  0.1516 -0.7186 -0.0435
  185MOL    H5233540   6.903   1.566   6.028 -0.2435 -2.0443  0.4342
  185MOL    H5333541   6.986   1.649   5.749 -0.4790  0.3925 -0.2377
  185MOL    H5433542   6.827   1.661   5.825 -0.3052  0.5407  1.7657
  185MOL    H5533543   6.962   1.756   5.886 -1.0410  0.5016 -0.2361
  185MOL    C5633544   7.237   1.619   6.163 -0.0308  0.5691  0.4544
  185MOL    C5733545   7.180   1.657   6.300  0.5094  0.1573 -0.0141
  185MOL    C5833546   7.347   1.715   6.114 -0.2325 -0.5942 -0.4865
  185MOL    O5933547   7.337   1.784   6.010 -0.0167 -0.3982  0.0739
  185MOL    O6033548   7.453   1.725   6.197 -0.3955  0.1461  0.3339
  185MOL    H6133549   7.286   1.522   6.170 -0.7421  0.2443  0.9832
  185MOL    H6233550   7.118   1.584   6.351 -0.0145 -0.3991 -1.4266
  185MOL    H6333551   7.260   1.678   6.372  0.4920  1.4313 -0.3523
  185MOL    H6433552   7.124   1.750   6.295 -1.1534 -0.7946  0.3953
  185MOL    C6533553   7.562   1.817   6.169 -0.3497 -0.8546 -0.3260
  185MOL    C6633554   7.698   1.780   6.242  0.1618 -0.9149 -0.2675
  185MOL    C6733555   7.518   1.959   6.194 -0.4415 -0.3748  0.6096
  185MOL    O6833556   7.410   1.978   6.249 -0.2607  0.1017 -0.4745
  185MOL    O6933557   7.607   2.056   6.155  0.2578 -0.1792  0.4744
  185MOL    H7033558   7.605   1.815   6.068  1.4806  0.3233  0.4091
  185MOL    H7133559   7.772   1.859   6.233  0.3109 -0.9265  0.7955
  185MOL    H7233560   7.677   1.758   6.346  0.7364 -0.9732 -0.1654
  185MOL    H7333561   7.737   1.692   6.191 -3.7647 -1.5130 -2.5011
  185MOL    C7433562   7.576   2.192   6.178 -0.3253 -0.3145  0.5781
  185MOL    C7533563   7.629   2.279   6.066  0.2246 -0.6535 -0.6878
  185MOL    C7633564   7.636   2.235   6.315 -0.2306  0.0768 -1.1140
  185MOL    O7733565   7.747   2.192   6.361  0.4573 -0.3453  0.3276
  185MOL    O7833566   7.553   2.327   6.370  0.1959 -0.6607  0.1568
  185MOL    H7933567   7.470   2.212   6.190 -0.4702  0.7374 -2.1889
  185MOL    H8033568   7.560   2.269   5.983 -1.2010  1.2074  0.2415
  185MOL    H8133569   7.630   2.386   6.087 -0.9762 -0.9712  1.0845
  185MOL    H8233570   7.731   2.250   6.042  0.6484 -1.5600  2.0126
  185MOL    C8333571   7.607   2.415   6.466 -0.7302 -0.7354 -0.0957
  185MOL    C8433572   7.551   2.378   6.600  0.4418 -0.1160 -0.3042
  185MOL    C8533573   7.563   2.557   6.426  0.1655 -0.4856  0.4135
  185MOL    O8633574   7.641   2.654   6.428  0.3534  0.5669  0.0042
  185MOL    O8733575   7.435   2.568   6.385  0.7702 -0.5379  0.2609
  185MOL    H8833576   7.716   2.417   6.476 -0.8029  0.4446  0.5509
  185MOL    H8933577   7.443   2.367   6.595  0.3639  0.5326 -0.0804
  185MOL    H9033578   7.595   2.284   6.636 -1.3338  0.0836  2.5740
  185MOL    H9133579   7.559   2.451   6.681 -0.9416  0.6929 -0.8957
  185MOL    C9233580   7.375   2.674   6.325 -0.4108 -0.6728 -0.3034
  185MOL    C9333581   7.225   2.668   6.347 -0.0496 -0.2383  0.6118
  185MOL    C9433582   7.408   2.677   6.177 -0.0022  0.2598  0.5444
  185MOL    O9533583   7.493   2.606   6.122 -0.8310 -0.0683  0.0226
  185MOL    O9633584   7.337   2.768   6.110  0.5438 -0.5858  0.1629
  185MOL    H9733585   7.411   2.768   6.368  0.9632 -0.8660 -1.0205
  185MOL    H9833586   7.178   2.584   6.296 -0.7291 -0.1665  1.1180
  185MOL    H9933587   7.197   2.671   6.452  0.7383  3.0910  0.7705
  185MOL   H10033588   7.185   2.757   6.298 -0.0270 -0.6233 -0.1211
  185MOL   C10133589   7.327   2.777   5.970  0.4491 -0.7717  0.3834
  185MOL   C10233590   7.351   2.923   5.928 -0.8560  0.4302  0.3542
  185MOL   C10333591   7.192   2.715   5.932 -1.2231  0.3259 -0.2337
  185MOL   O10433592   7.182   2.648   5.832 -0.4625  0.5769 -0.4409
  185MOL   O10533593   7.100   2.727   6.029  0.0946 -0.4803  0.2949
  185MOL   H10633594   7.392   2.713   5.910  1.0353 -0.3989  0.6172
  185MOL   H10733595   7.272   2.990   5.963  1.2801  2.3922  1.5941
  185MOL   H10833596   7.449   2.956   5.964 -0.6453 -1.1798  1.3134
  185MOL   H10933597   7.360   2.930   5.820  1.5199 -1.1609  0.3838
  185MOL   C11033598   6.965   2.674   6.008  0.4223 -0.5866 -0.1083
  185MOL   C11133599   6.971   2.517   6.036 -0.3067  0.5552 -0.2260
  185MOL   C11233600   6.897   2.724   5.874 -0.2453 -0.1746  0.0416
  185MOL   O11333601   6.928   2.831   5.824 -0.2049  0.0743 -0.1274
  185MOL   O11433602   6.805   2.630   5.826  0.0902  0.1225  0.1957
  185MOL   H11533603   6.896   2.715   6.081 -2.3657 -2.4419 -1.5786
  185MOL   H11633604   7.039   2.478   6.112 -3.2766 -2.7183  0.8591
  185MOL   H11733605   6.873   2.483   6.069 -0.5076  0.2827 -1.0771
  185MOL   H11833606   6.998   2.472   5.940  0.1160  0.6798 -0.1645
  185MOL   C11933607   6.724   2.649   5.707  0.5733  0.1771 -0.2926
  185MOL   C12033608   6.655   2.514   5.690 -0.2115 -0.2798 -0.2772
  185MOL   C12133609   6.809   2.670   5.585  0.5408  0.4557  0.2989
  185MOL   O12233610   6.799   2.771   5.518  0.2252  0.1362 -0.6072
  185MOL   O12333611   6.899   2.571   5.564 -0.9677 -0.6720  0.4456
  185MOL   H12433612   6.641   2.718   5.722  0.2196 -0.1746 -0.6168
  185MOL   H12533613   6.617   2.492   5.590  2.7486 -2.6364 -0.9390
  185MOL   H12633614   6.728   2.435   5.706  0.5576  0.2608 -0.9846
  185MOL   H12733615   6.576   2.512   5.764  1.3704  2.3584  1.5573
  185MOL   C12833616   6.950   2.549   5.431  0.0343 -0.2637  0.2052
  185MOL   C12933617   7.066   2.652   5.389  0.8225 -0.6385 -0.6291
  185MOL   C13033618   6.833   2.532   5.325 -0.2145  0.2729 -0.8039
  185MOL   O13133619   6.782   2.624   5.266  0.0258 -0.4983 -0.0610
  185MOL   O13233620   6.779   2.414   5.337 -0.4342 -0.1381 -0.0327
  185MOL   H13333621   6.995   2.450   5.436 -0.5068 -0.5881 -1.1233
  185MOL   H13433622   7.122   2.632   5.298  0.3302 -1.0239 -0.8502
  185MOL   H13533623   7.027   2.747   5.355 -0.3916 -0.6683  0.6151
  185MOL   H13633624   7.136   2.662   5.472  0.4575  0.4731 -0.4541
  185MOL   C13733625   6.681   2.362   5.242  0.0047 -0.1040 -0.6264
  185MOL   C13833626   6.548   2.325   5.322  0.4542 -0.2105  0.0479
  185MOL   C13933627   6.748   2.248   5.175 -0.4182 -0.3374 -0.0553
  185MOL   O14033628   6.701   2.137   5.154  0.5596 -0.0359 -0.1630
  185MOL   O14133629   6.869   2.292   5.124  0.5126  0.0913 -0.2411
  185MOL   H14233630   6.666   2.438   5.165  0.0371  1.8064  1.2236
  185MOL   H14333631   6.570   2.263   5.409  1.5831  2.2592  1.5788
  185MOL   H14433632   6.506   2.417   5.362  0.3035 -0.1766 -0.1870
  185MOL   H14533633   6.474   2.277   5.257 -0.8394  3.2843 -1.1806
  185MOL   C14633634   6.937   2.232   5.016  0.4450 -0.1226 -0.6912
  185MOL   C14733635   7.080   2.272   5.022  0.0802 -0.0256 -0.6422
  185MOL   C14833636   6.863   2.272   4.886 -0.2473 -0.0420 -0.3545
  185MOL   O14933637   6.891   2.216   4.778  0.1120 -0.3157  0.6876
  185MOL   O15033638   6.768   2.376   4.901  0.0855 -0.4604  0.1463
  185MOL   H15133639   6.943   2.124   5.025  1.0587 -0.1508 -1.3334
  185MOL   H15233640   7.090   2.381   5.028  2.5347 -0.1423 -2.1382
  185MOL   H15333641   7.135   2.236   5.108 -1.2975 -0.6729 -0.0101
  185MOL   H15433642   7.130   2.232   4.934  2.9263 -2.6960  2.0593
  185MOL   C15533643   6.704   2.426   4.789  0.1439  0.0403  0.5305
  185MOL   C15633644   6.602   2.335   4.715 -0.3614  0.4245  0.5641
  185MOL   C15733645   6.797   2.494   4.694 -0.3717 -0.6750  0.4695
  185MOL   O15833646   6.845   2.438   4.592 -0.3606  0.6905 -0.3436
  185MOL   O15933647   6.834   2.620   4.733  0.6495 -0.3486  0.2266
  185MOL   H16033648   6.647   2.512   4.826  0.4173  0.4019  0.1169
  185MOL   H16133649   6.556   2.385   4.630  1.6511 -1.5680 -1.7855
  185MOL   H16233650   6.653   2.246   4.677 -0.2599  0.7896 -0.1544
  185MOL   H16333651   6.521   2.309   4.783 -0.5648 -0.1813  0.0926
  185MOL   C16433652   6.925   2.704   4.649  1.2196 -0.1083 -0.3750
  185MOL   C16533653   6.950   2.830   4.747  0.6247  0.8585  0.5603
  185MOL   C16633654   6.854   2.759   4.525  0.4112 -0.0598 -0.0885
  185MOL   O16733655   6.735   2.745   4.508 -0.3846 -0.7097  1.1820
  185MOL   O16833656   6.940   2.828   4.450 -0.2053  0.0153 -0.5645
  185MOL   H16933657   7.015   2.648   4.625  0.1418 -1.8932 -0.3527
  185MOL   H17033658   6.984   2.800   4.846 -0.4640 -0.6977  0.4764
  185MOL   H17133659   7.028   2.897   4.711  1.1091 -0.0645 -0.1208
  185MOL   H17233660   6.860   2.891   4.753 -0.5390 -0.7360 -0.3935
  185MOL   C17333661   6.895   2.893   4.335  0.2835 -0.6482  0.0757
  185MOL   C17433662   7.020   2.893   4.248 -0.7234  0.2512 -0.4152
  185MOL   C17533663   6.839   3.031   4.370 -0.6332 -0.1273  0.0263
  185MOL   O17633664   6.841   3.077   4.488 -0.0645 -0.0641  0.2661
  185MOL   O17733665   6.776   3.091   4.266 -0.0901 -0.1150  0.2992
  185MOL   H17833666   6.809   2.845   4.288 -0.0223  0.3143 -0.3692
  185MOL   H17933667   7.102   2.935   4.307 -1.7338 -0.2697  1.3869
  185MOL   H18033668   7.074   2.798   4.239 -1.0877  0.1085 -1.1057
  185MOL   H18133669   7.017   2.946   4.153  2.3385  0.9856 -0.1660
  185MOL   H18233670   6.758   3.184   4.267 -4.4040 -0.8119 -0.9075
  186MOL     C133671   3.436   5.342   3.376  0.3283  0.7157 -0.5662
  186MOL     C233672   3.367   5.226   3.300  0.5437  0.5066  0.4247
  186MOL     C333673   3.539   5.299   3.474  0.6326 -0.3776  0.2056
  186MOL     O433674   3.627   5.226   3.442  0.5716 -0.0668 -0.0298
  186MOL     O533675   3.530   5.358   3.590 -0.3741  0.1068  0.3279
  186MOL     H633676   3.482   5.408   3.302 -1.4045 -0.4072 -2.7295
  186MOL     H733677   3.431   5.157   3.245  0.0594 -0.1251  0.6435
  186MOL     H833678   3.320   5.159   3.373  0.7143  0.2417  0.2923
  186MOL     H933679   3.288   5.255   3.231  1.6333  2.9065  0.1494
  186MOL    H1033680   3.354   5.400   3.419  1.5879  1.7787  0.4220
  186MOL    C1133681   3.616   5.319   3.696  0.1356  0.2493  0.3370
  186MOL    C1233682   3.544   5.302   3.828 -0.1813  0.3549 -0.4543
  186MOL    C1333683   3.727   5.431   3.715  0.3869 -0.6052  0.1096
  186MOL    O1433684   3.687   5.545   3.709 -0.8442 -0.5861 -0.2242
  186MOL    O1533685   3.856   5.392   3.751  0.0688  0.0778 -0.2233
  186MOL    H1633686   3.665   5.225   3.672 -1.7030  0.4972 -5.0987
  186MOL    H1733687   3.612   5.243   3.889  0.7508 -0.0523 -1.8454
  186MOL    H1833688   3.536   5.391   3.890  0.0209 -1.8691  2.8574
  186MOL    H1933689   3.448   5.251   3.827  1.3304 -2.5970  0.9736
  186MOL    C2033690   3.938   5.487   3.812  0.5988  0.2772  0.1286
  186MOL    C2133691   4.092   5.442   3.806  0.2502  0.5319 -0.2607
  186MOL    C2233692   3.893   5.502   3.958 -0.0748  0.2186  0.5386
  186MOL    O2333693   3.897   5.614   4.009 -0.1143 -0.5383  0.0042
  186MOL    O2433694   3.874   5.389   4.027 -0.2271  0.2494 -0.0820
  186MOL    H2533695   3.935   5.578   3.752 -0.9240  0.3764  0.3413
  186MOL    H2633696   4.122   5.428   3.702  0.3409  0.8232 -0.2742
  186MOL    H2733697   4.139   5.534   3.840 -1.1820  1.8258 -1.6684
  186MOL    H2833698   4.117   5.353   3.864 -1.3714 -0.0231 -0.3883
  186MOL    C2933699   3.856   5.392   4.164  0.0864  0.0819 -0.9761
  186MOL    C3033700   3.843   5.245   4.216  0.1626 -0.3564 -0.2903
  186MOL    C3133701   3.725   5.461   4.208 -0.5313 -0.6797  0.5582
  186MOL    O3233702   3.634   5.474   4.124  0.2655 -0.2002  0.9125
  186MOL    O3333703   3.727   5.511   4.332  0.4436  0.5275  0.6370
  186MOL    H3433704   3.940   5.434   4.218 -0.2170 -0.3934 -0.1294
  186MOL    H3533705   3.928   5.180   4.198 -2.7107 -3.0460 -5.0168
  186MOL    H3633706   3.811   5.231   4.320 -0.1881 -0.1338 -0.3660
  186MOL    H3733707   3.764   5.195   4.160  1.0709 -1.6904 -0.3875
  186MOL    C3833708   3.615   5.564   4.406  0.2638 -0.3409  0.5918
  186MOL    C3933709   3.653   5.670   4.511  0.2327 -0.3728  0.5020
  186MOL    C4033710   3.531   5.449   4.461 -0.6947  0.1882 -0.2412
  186MOL    O4133711   3.405   5.446   4.450 -0.0238 -0.2626 -0.5850
  186MOL    O4233712   3.611   5.348   4.510  0.6513 -0.2511 -0.8440
  186MOL    H4333713   3.550   5.607   4.329  1.2092 -2.7431 -1.6394
  186MOL    H4433714   3.562   5.719   4.544  1.3433 -0.4770  3.8469
  186MOL    H4533715   3.705   5.637   4.601  1.0822 -1.1271 -0.2537
  186MOL    H4633716   3.705   5.751   4.459 -3.0628 -0.7016 -3.6112
  186MOL    C4733717   3.555   5.218   4.542 -0.1650  0.3254 -0.1842
  186MOL    C4833718   3.676   5.125   4.590  0.0107 -0.5929 -0.0483
  186MOL    C4933719   3.482   5.154   4.424 -0.6079  0.3883 -0.0246
  186MOL    O5033720   3.360   5.139   4.428  0.1686 -0.0805  0.0769
  186MOL    O5133721   3.552   5.116   4.312  0.2058 -0.3915  0.3169
  186MOL    H5233722   3.489   5.240   4.625  1.8212 -3.5567  2.5588
  186MOL    H5333723   3.735   5.168   4.670 -1.1426 -2.2511  1.7516
  186MOL    H5433724   3.630   5.034   4.629  2.6070 -1.3145  1.4083
  186MOL    H5533725   3.738   5.098   4.504 -1.5182  2.3789 -2.1700
  186MOL    C5633726   3.493   5.074   4.184  0.0103  0.4155  0.1841
  186MOL    C5733727   3.419   5.198   4.125 -0.5125  0.6725  0.1559
  186MOL    C5833728   3.416   4.945   4.191  0.8704  0.3462  0.0584
  186MOL    O5933729   3.315   4.926   4.125 -0.5130 -0.0446  0.3058
  186MOL    O6033730   3.478   4.853   4.268 -0.3363  0.0854 -0.0126
  186MOL    H6133731   3.572   5.049   4.113 -1.6161 -1.3716 -1.0721
  186MOL    H6233732   3.365   5.168   4.035 -0.4827 -0.5915  0.5513
  186MOL    H6333733   3.344   5.238   4.193  0.9965  3.4210  0.2684
  186MOL    H6433734   3.494   5.275   4.110  0.7569 -0.1290  2.2902
  186MOL    C6533735   3.432   4.719   4.268  0.2649  0.5278 -1.0368
  186MOL    C6633736   3.524   4.643   4.363 -0.1100  0.5136 -0.4158
  186MOL    C6733737   3.433   4.649   4.129 -0.4829  0.0172  0.4636
  186MOL    O6833738   3.329   4.605   4.078  0.0528 -0.9959  0.2484
  186MOL    O6933739   3.560   4.663   4.081  0.0611  0.3911 -0.1728
  186MOL    H7033740   3.327   4.714   4.298  0.9878  2.8239  2.1612
  186MOL    H7133741   3.620   4.686   4.391 -1.2032  1.9172  1.3293
  186MOL    H7233742   3.478   4.645   4.462 -0.8104  0.7312 -0.7409
  186MOL    H7333743   3.538   4.540   4.333 -2.4379 -0.0609  0.3308
  186MOL    C7433744   3.580   4.643   3.939 -0.1529 -0.1144  0.0723
  186MOL    C7533745   3.724   4.593   3.921 -0.4629 -0.5195 -0.0621
  186MOL    C7633746   3.544   4.775   3.860 -0.1640 -0.3218 -0.1238
  186MOL    O7733747   3.551   4.891   3.905 -0.1655  0.2080 -0.7709
  186MOL    O7833748   3.512   4.741   3.734 -0.2817  0.4223  0.2567
  186MOL    H7933749   3.508   4.571   3.899  0.6502 -0.1728 -1.2673
  186MOL    H8033750   3.731   4.497   3.972  0.0714 -1.0653 -1.1562
  186MOL    H8133751   3.745   4.567   3.817 -0.6275 -4.3446  0.8107
  186MOL    H8233752   3.801   4.657   3.964  0.8610 -1.4211 -1.0771
  186MOL    C8333753   3.538   4.830   3.626  0.7567  0.7096  1.1441
  186MOL    C8433754   3.421   4.923   3.598  0.6937  0.4708 -0.4477
  186MOL    C8533755   3.585   4.749   3.504 -0.3718  0.0578  0.4892
  186MOL    O8633756   3.583   4.627   3.504 -1.0120  0.4585  0.0486
  186MOL    O8733757   3.620   4.822   3.401  0.3929 -0.2353 -0.2552
  186MOL    H8833758   3.631   4.884   3.646  1.8468 -0.7917  0.3225
  186MOL    H8933759   3.328   4.869   3.614  1.2645 -1.3145 -2.8189
  186MOL    H9033760   3.432   5.014   3.657 -1.0866  0.6990 -0.4517
  186MOL    H9133761   3.424   4.955   3.494 -1.0229  0.1652 -0.6075
  186MOL    C9233762   3.659   4.767   3.278  0.1661  0.1265  0.0984
  186MOL    C9333763   3.713   4.883   3.191  0.1212 -0.4371  0.4053
  186MOL    C9433764   3.531   4.708   3.204  0.3796  0.1335 -0.4275
  186MOL    O9533765   3.516   4.593   3.170  0.2001 -0.0577  0.2021
  186MOL    O9633766   3.434   4.800   3.197  0.5565 -0.4952  0.4038
  186MOL    H9733767   3.744   4.701   3.293  0.3942 -0.1394 -2.2255
  186MOL    H9833768   3.785   4.950   3.238 -1.5770  0.1569  2.2245
  186MOL    H9933769   3.743   4.854   3.090 -1.5054 -0.5864 -0.0512
  186MOL   H10033770   3.630   4.949   3.165  2.5824  2.2178 -1.0207
  186MOL   C10133771   3.296   4.789   3.150  0.0453 -0.0537  0.1921
  186MOL   C10233772   3.240   4.928   3.145  0.2561  0.2654 -0.6060
  186MOL   C10333773   3.212   4.702   3.240 -0.4282  0.0664  0.6696
  186MOL   O10433774   3.247   4.677   3.355 -0.3248 -0.5535  0.2918
  186MOL   O10533775   3.092   4.665   3.181 -0.3957 -0.0888  0.2150
  186MOL   H10633776   3.293   4.735   3.056 -1.7556  1.6736 -0.7725
  186MOL   H10733777   3.243   4.980   3.241  0.2095 -1.3672  0.3068
  186MOL   H10833778   3.284   4.987   3.065 -1.2690  1.8691 -0.2784
  186MOL   H10933779   3.135   4.923   3.119 -0.5163 -1.7195  2.6198
  186MOL   C11033780   3.006   4.569   3.250  0.3563 -0.4637  0.1377
  186MOL   C11133781   2.886   4.534   3.168 -0.2941 -0.3169 -0.1770
  186MOL   C11233782   2.951   4.632   3.383  0.3421 -0.6833  0.4529
  186MOL   O11333783   2.964   4.565   3.485  0.3140  0.1101  0.6372
  186MOL   O11433784   2.910   4.753   3.378 -0.2791 -0.4352 -0.3612
  186MOL   H11533785   3.062   4.480   3.278  1.0435 -0.4833 -1.2409
  186MOL   H11633786   2.795   4.564   3.221  1.3248  0.0164  2.5330
  186MOL   H11733787   2.883   4.600   3.082 -0.7993  0.4106  0.3949
  186MOL   H11833788   2.888   4.429   3.137  0.3498 -0.3509 -0.0269
  186MOL   C11933789   2.891   4.824   3.500  0.0898 -0.1530 -0.4024
  186MOL   C12033790   2.748   4.898   3.493 -1.4502 -0.4706 -0.5310
  186MOL   C12133791   3.003   4.926   3.516  0.1587  0.3664 -0.7680
  186MOL   O12233792   3.059   4.959   3.414  0.3406 -0.4970 -0.1200
  186MOL   O12333793   3.024   4.977   3.647 -0.3463 -0.1601 -0.6769
  186MOL   H12433794   2.888   4.759   3.588  1.5378  1.6044  0.9742
  186MOL   H12533795   2.744   4.959   3.403  0.6048  1.2033  0.4841
  186MOL   H12633796   2.663   4.829   3.494 -0.5206 -1.6299 -0.9318
  186MOL   H12733797   2.729   4.960   3.580  0.8631 -0.9223  0.3345
  186MOL   C12833798   3.102   5.092   3.664 -0.5114 -0.1216 -0.0405
  186MOL   C12933799   3.136   5.103   3.811 -0.9080 -0.8200 -0.3537
  186MOL   C13033800   3.030   5.219   3.604 -0.4196  0.2417 -0.3593
  186MOL   O13133801   3.086   5.309   3.539 -0.5281  0.0875 -0.0752
  186MOL   O13233802   2.903   5.215   3.645 -0.3186 -0.4413  0.2098
  186MOL   H13333803   3.197   5.083   3.612  0.4669  0.3672  1.6262
  186MOL   H13433804   3.049   5.140   3.864 -1.2259 -0.3520 -1.1905
  186MOL   H13533805   3.153   5.007   3.860 -1.2255 -1.2727 -1.1140
  186MOL   H13633806   3.219   5.173   3.816 -3.6102  2.6619 -2.2510
  186MOL   C13733807   2.799   5.315   3.613  0.6977  0.1690  0.2558
  186MOL   C13833808   2.665   5.264   3.671 -0.1275  0.2951 -0.0349
  186MOL   C13933809   2.791   5.346   3.465 -0.5962 -0.1401 -0.5514
  186MOL   O14033810   2.770   5.460   3.433 -0.3076 -0.2771  0.0356
  186MOL   O14133811   2.815   5.241   3.390  0.1820 -0.1946 -0.5226
  186MOL   H14233812   2.834   5.409   3.658  2.0248  0.5991 -1.6116
  186MOL   H14333813   2.633   5.183   3.605 -1.2049  0.2729  0.5006
  186MOL   H14433814   2.681   5.254   3.778  0.7850 -1.0724 -0.2827
  186MOL   H14533815   2.597   5.347   3.653 -1.1526 -0.7636 -1.1404
  186MOL   C14633816   2.847   5.243   3.247  0.0658 -0.0151  0.5950
  186MOL   C14733817   2.983   5.311   3.229 -0.1218  0.2469 -0.1969
  186MOL   C14833818   2.737   5.312   3.156  0.4590  0.3949 -0.0529
  186MOL   O14933819   2.654   5.241   3.098 -0.6549  0.6584 -0.4101
  186MOL   O15033820   2.738   5.446   3.168 -0.6223 -0.3074 -0.0858
  186MOL   H15133821   2.856   5.142   3.208 -1.1725  0.2319 -0.3626
  186MOL   H15233822   2.974   5.415   3.261  0.1242  0.0182  0.6075
  186MOL   H15333823   3.044   5.267   3.307 -0.8371 -2.1132 -0.9342
  186MOL   H15433824   3.030   5.290   3.133 -0.2365 -1.2704  0.0590
  186MOL   C15533825   2.652   5.524   3.086 -0.5031  0.0697  0.0307
  186MOL   C15633826   2.746   5.588   2.985 -0.7690  0.0395  0.2605
  186MOL   C15733827   2.592   5.635   3.173 -0.1942 -0.4369  0.0445
  186MOL   O15833828   2.586   5.754   3.149 -0.5278 -0.6422  0.0304
  186MOL   O15933829   2.542   5.581   3.292 -0.5708  0.1038 -0.2216
  186MOL   H16033830   2.565   5.473   3.043 -1.3224  0.6144  1.0224
  186MOL   H16133831   2.691   5.660   2.924 -0.0438  0.2734 -0.1233
  186MOL   H16233832   2.829   5.644   3.027  1.8345 -1.5310 -2.5946
  186MOL   H16333833   2.794   5.524   2.911  0.0302  0.5955  0.2921
  186MOL   C16433834   2.457   5.658   3.382  0.2095 -0.2903  0.2268
  186MOL   C16533835   2.491   5.626   3.529  0.2562 -0.0258  0.0035
  186MOL   C16633836   2.306   5.645   3.345  0.0869  1.3173 -0.2520
  186MOL   O16733837   2.275   5.561   3.260  0.4447 -0.2825 -0.6728
  186MOL   O16833838   2.230   5.719   3.414  0.0089  0.0691  0.0492
  186MOL   H16933839   2.485   5.764   3.378 -1.8775  0.3450  1.6079
  186MOL   H17033840   2.598   5.646   3.534 -0.2826  2.9574  0.7537
  186MOL   H17133841   2.437   5.692   3.597  2.0805  0.2225  1.2520
  186MOL   H17233842   2.475   5.526   3.571 -2.9190  1.4039  2.4009
  186MOL   C17333843   2.085   5.714   3.405  0.1503 -0.4864  0.2157
  186MOL   C17433844   2.036   5.825   3.311 -0.0042 -0.7206 -0.1448
  186MOL   C17533845   2.028   5.733   3.546 -0.7451 -0.0706  0.1168
  186MOL   O17633846   1.940   5.664   3.593 -0.1481  0.3571 -0.3954
  186MOL   O17733847   2.084   5.838   3.615 -0.1745  0.2362  0.0750
  186MOL   H17833848   2.058   5.619   3.360  0.7827 -0.0444 -1.1369
  186MOL   H17933849   1.930   5.808   3.291  0.1443 -2.6943  0.5599
  186MOL   H18033850   2.056   5.923   3.353 -0.5552 -0.1589 -1.1787
  186MOL   H18133851   2.087   5.825   3.215 -1.2737  0.4227 -0.8331
  186MOL   H18233852   2.137   5.900   3.567 -1.7021  2.5541  1.2473
  187MOL     C133853   7.443   2.026   6.729 -0.2060 -0.4272  0.0164
  187MOL     C233854   7.452   1.998   6.574  0.3784 -0.1130  0.0357
  187MOL     C333855   7.306   1.980   6.787 -0.2851 -0.1775 -0.4319
  187MOL     O433856   7.224   2.068   6.826  0.4217 -0.1995  0.0658
  187MOL     O533857   7.285   1.848   6.784 -0.4021 -0.9968 -0.6730
  187MOL     H633858   7.511   1.964   6.787 -1.3493 -0.0719  1.7794
  187MOL     H733859   7.556   1.996   6.541  1.3417  1.7599  2.7649
  187MOL     H833860   7.413   1.902   6.539  2.6303 -0.3088 -2.1282
  187MOL     H933861   7.411   2.085   6.524 -0.4911  0.8076  2.2895
  187MOL    H1033862   7.475   2.127   6.757 -1.5726 -0.6223  2.4502
  187MOL    C1133863   7.159   1.795   6.804  0.8665  0.0217  0.6542
  187MOL    C1233864   7.166   1.655   6.861 -0.2566 -0.6121  0.1122
  187MOL    C1333865   7.079   1.814   6.672 -1.0940  0.5607  0.5962
  187MOL    O1433866   7.109   1.762   6.569  0.4737 -0.4738 -0.7343
  187MOL    O1533867   6.982   1.903   6.688  0.3285 -0.2121 -1.0541
  187MOL    H1633868   7.104   1.858   6.873  1.1994  0.4668  0.5157
  187MOL    H1733869   7.085   1.589   6.831  0.2384 -1.2517  0.1760
  187MOL    H1833870   7.259   1.611   6.826  1.3575  1.1239  2.0801
  187MOL    H1933871   7.171   1.661   6.970 -0.9850  3.6890 -0.0057
  187MOL    C2033872   6.906   1.952   6.581 -0.1727 -0.1304  0.3696
  187MOL    C2133873   6.792   1.851   6.529  0.3229  0.4813 -0.6391
  187MOL    C2233874   6.994   2.008   6.470 -0.0106  0.7083 -0.7773
  187MOL    O2333875   7.002   1.945   6.361 -0.2398  0.2990  0.3279
  187MOL    O2433876   7.050   2.133   6.498 -0.4621  0.4376  0.2559
  187MOL    H2533877   6.859   2.047   6.607 -0.9336 -1.0392  2.4011
  187MOL    H2633878   6.717   1.828   6.605 -0.6633 -0.7383 -1.9393
  187MOL    H2733879   6.731   1.888   6.447  0.3073  2.4733  0.2405
  187MOL    H2833880   6.846   1.760   6.501  0.3135  0.0043  0.8221
  187MOL    C2933881   7.137   2.189   6.399 -0.1838  0.3636  0.0894
  187MOL    C3033882   7.206   2.311   6.452 -0.1226  0.0075  0.7186
  187MOL    C3133883   7.065   2.214   6.263 -0.4913  0.7022 -0.7136
  187MOL    O3233884   6.956   2.270   6.254 -0.3334 -0.5166  0.3757
  187MOL    O3333885   7.141   2.167   6.153  0.2193 -0.2779 -0.4412
  187MOL    H3433886   7.221   2.122   6.384 -1.9144 -1.2744 -2.5795
  187MOL    H3533887   7.305   2.321   6.408  0.2372 -1.0492  1.2678
  187MOL    H3633888   7.147   2.401   6.433  0.5918  0.4394  0.5000
  187MOL    H3733889   7.220   2.307   6.560  0.6611 -1.6850  0.5696
  187MOL    C3833890   7.076   2.152   6.028  0.2777  0.7972 -0.3673
  187MOL    C3933891   7.042   2.000   6.009  0.2048  0.2239 -0.3464
  187MOL    C4033892   7.172   2.200   5.924  0.0297 -0.2943 -0.4695
  187MOL    O4133893   7.282   2.248   5.961  0.5787 -0.2541 -0.2894
  187MOL    O4233894   7.134   2.181   5.799  0.3102  0.1352  0.5191
  187MOL    H4333895   6.986   2.212   6.018  0.0230  0.3317 -0.9089
  187MOL    H4433896   7.006   1.972   6.108  1.0566  0.2541 -0.0160
  187MOL    H4533897   6.962   2.008   5.936  0.0243 -0.7990 -0.2647
  187MOL    H4633898   7.131   1.951   5.969 -0.8698 -1.7475 -0.3716
  187MOL    C4733899   7.216   2.220   5.688 -0.1042 -0.4079 -0.4889
  187MOL    C4833900   7.198   2.360   5.651  0.4375 -0.0118  0.5554
  187MOL    C4933901   7.179   2.118   5.578  0.2244  0.0913  0.1606
  187MOL    O5033902   7.102   2.141   5.482  0.3003 -0.5567 -0.1351
  187MOL    O5133903   7.243   2.002   5.604 -0.4593  0.2297 -0.5909
  187MOL    H5233904   7.322   2.199   5.705 -0.1239 -0.5092 -0.4876
  187MOL    H5333905   7.092   2.373   5.633  0.0824 -0.4445  2.2252
  187MOL    H5433906   7.230   2.423   5.734  0.6299  0.7865 -0.1217
  187MOL    H5533907   7.250   2.385   5.559  0.7738 -2.3917  0.0745
  187MOL    C5633908   7.220   1.878   5.540 -0.7859 -0.1391  0.0009
  187MOL    C5733909   7.233   1.778   5.655  0.3421  0.2123 -0.2369
  187MOL    C5833910   7.318   1.848   5.429  0.5537 -0.3472  0.1051
  187MOL    O5933911   7.361   1.730   5.413 -0.5378 -0.2819  0.3962
  187MOL    O6033912   7.318   1.949   5.333  0.6790 -0.3321 -0.2251
  187MOL    H6133913   7.120   1.869   5.499 -0.6687  1.0611 -0.5859
  187MOL    H6233914   7.211   1.676   5.621 -0.2234 -0.2309  1.4477
  187MOL    H6333915   7.335   1.774   5.692  0.6985 -1.0955 -1.3065
  187MOL    H6433916   7.168   1.792   5.741  0.9131  0.9444  0.0722
  187MOL    C6533917   7.391   1.938   5.212 -0.2695 -0.8513 -0.6680
  187MOL    C6633918   7.490   2.052   5.195  0.4247  0.3638  0.3264
  187MOL    C6733919   7.283   1.939   5.104  0.2311 -0.9888 -0.1607
  187MOL    O6833920   7.166   1.966   5.130 -0.4281 -0.0329 -0.1152
  187MOL    O6933921   7.332   1.932   4.976 -0.0503  0.7030 -0.0359
  187MOL    H7033922   7.452   1.847   5.206 -0.7595 -1.1600 -1.0177
  187MOL    H7133923   7.532   2.059   5.094  0.1760 -1.6485  0.0634
  187MOL    H7233924   7.456   2.154   5.210 -0.2879  0.0832  0.6468
  187MOL    H7333925   7.575   2.039   5.262 -0.8081  0.0577  1.8600
  187MOL    C7433926   7.245   1.945   4.856  0.3666 -0.8920  0.9150
  187MOL    C7533927   7.262   1.811   4.775 -0.8804 -0.2429 -0.6823
  187MOL    C7633928   7.291   2.061   4.773 -0.1931 -1.1775  0.1683
  187MOL    O7733929   7.383   2.131   4.808 -0.1887 -0.2738  0.3753
  187MOL    O7833930   7.207   2.079   4.667 -0.6997  0.3340  0.0524
  187MOL    H7933931   7.138   1.955   4.871  0.6892  0.0947  2.6322
  187MOL    H8033932   7.204   1.796   4.684  0.1683 -0.0079 -1.4035
  187MOL    H8133933   7.365   1.793   4.746 -0.7599  0.5852 -0.7883
  187MOL    H8233934   7.229   1.724   4.831 -2.0734 -0.3565 -1.5339
  187MOL    C8333935   7.239   2.171   4.570  0.4076 -0.5812 -0.0261
  187MOL    C8433936   7.144   2.292   4.591 -0.6670  0.0694  0.5012
  187MOL    C8533937   7.220   2.101   4.432 -0.0392 -0.3840  0.5517
  187MOL    O8633938   7.189   2.164   4.333 -0.1504  0.2115  0.2217
  187MOL    O8733939   7.228   1.966   4.430 -0.0284  0.1107  0.4089
  187MOL    H8833940   7.342   2.206   4.571 -0.3682  1.8384 -0.7998
  187MOL    H8933941   7.189   2.376   4.539  1.1690  0.1801  2.2183
  187MOL    H9033942   7.037   2.275   4.575 -0.5307  0.2233 -0.5957
  187MOL    H9133943   7.152   2.328   4.694  1.5267 -2.6035  1.3266
  187MOL    C9233944   7.179   1.877   4.329  0.1382  0.3943 -0.2691
  187MOL    C9333945   7.164   1.744   4.383  0.6589 -0.3865 -0.0265
  187MOL    C9433946   7.268   1.894   4.208 -0.4746 -0.2179 -0.4282
  187MOL    O9533947   7.378   1.940   4.211  0.6302  0.3384  0.6140
  187MOL    O9633948   7.213   1.859   4.093 -0.7827 -0.5100 -0.4457
  187MOL    H9733949   7.077   1.911   4.307  0.5893  1.1487 -1.2564
  187MOL    H9833950   7.110   1.680   4.312 -0.4411  1.6196 -1.0367
  187MOL    H9933951   7.257   1.706   4.425  0.8768 -1.5441 -1.5044
  187MOL   H10033952   7.100   1.757   4.470  1.2793  0.9828  0.2270
  187MOL   C10133953   7.246   1.920   3.978 -0.2236  0.7034  0.8092
  187MOL   C10233954   7.197   2.068   3.970  0.5764 -0.7425  0.2435
  187MOL   C10333955   7.205   1.836   3.853 -0.1327  0.0197 -0.4101
  187MOL   O10433956   7.089   1.801   3.834 -0.1532  0.3172 -0.3029
  187MOL   O10533957   7.297   1.834   3.759  0.3614  0.3979 -0.5855
  187MOL   H10633958   7.355   1.911   3.974 -0.2533  0.3059  0.9050
  187MOL   H10733959   7.253   2.138   3.908 -0.7220  0.6152  0.5846
  187MOL   H10833960   7.090   2.072   3.949  0.6358 -1.2826 -0.1944
  187MOL   H10933961   7.194   2.109   4.071 -2.3220 -0.0420 -0.0889
  187MOL   C11033962   7.278   1.813   3.623  0.0323 -0.4218  0.2485
  187MOL   C11133963   7.409   1.768   3.572  0.6640  0.3873 -0.1770
  187MOL   C11233964   7.220   1.937   3.554 -0.1564 -0.2984  0.3756
  187MOL   O11333965   7.130   1.931   3.473 -0.2224  0.0238 -0.0865
  187MOL   O11433966   7.275   2.052   3.602 -0.2348 -0.0764 -0.2296
  187MOL   H11533967   7.211   1.729   3.609 -1.3983  0.7388  0.0744
  187MOL   H11633968   7.494   1.819   3.618 -0.1980 -0.0214  1.9207
  187MOL   H11733969   7.425   1.667   3.610  0.5186  0.8268  1.0784
  187MOL   H11833970   7.426   1.778   3.465 -1.3745  1.3489 -0.4390
  187MOL   C11933971   7.242   2.182   3.551 -0.0386 -0.3049 -0.0217
  187MOL   C12033972   7.365   2.270   3.553  0.0971 -0.4751  0.7666
  187MOL   C12133973   7.129   2.247   3.639  0.0520 -0.9556  0.2197
  187MOL   O12233974   7.147   2.340   3.718  0.3491  0.3273 -0.2780
  187MOL   O12333975   7.018   2.176   3.622 -0.0061 -0.0171 -0.2175
  187MOL   H12433976   7.212   2.185   3.446  2.6101 -0.6431 -0.8211
  187MOL   H12533977   7.438   2.232   3.482  0.9792  2.4463  0.0283
  187MOL   H12633978   7.331   2.368   3.519  1.2803  0.7019  2.8221
  187MOL   H12733979   7.406   2.272   3.655  0.6815 -1.7461  0.5711
  187MOL   C12833980   6.898   2.201   3.685 -0.3684 -0.0215 -0.5140
  187MOL   C12933981   6.819   2.071   3.686 -0.0099 -0.6884 -0.1535
  187MOL   C13033982   6.820   2.313   3.614 -0.2740 -0.1957 -0.3880
  187MOL   O13133983   6.810   2.319   3.491 -0.9688 -0.0846  0.5545
  187MOL   O13233984   6.746   2.390   3.696  0.6831  0.4836  0.2318
  187MOL   H13333985   6.919   2.222   3.789  0.9374  1.8128 -1.1202
  187MOL   H13433986   6.714   2.099   3.691  1.0964  4.0906 -1.6224
  187MOL   H13533987   6.845   2.002   3.606  1.3212  1.5728 -1.7215
  187MOL   H13633988   6.850   2.017   3.776 -0.1908  3.0441  2.2648
  187MOL   C13733989   6.650   2.490   3.658  0.3885  0.7222  0.4333
  187MOL   C13833990   6.572   2.550   3.779 -0.4274  0.3613  0.8428
  187MOL   C13933991   6.549   2.446   3.552 -0.0516 -0.0956  0.1876
  187MOL   O14033992   6.490   2.344   3.563  0.9291  0.4468 -0.2727
  187MOL   O14133993   6.532   2.534   3.453 -0.1963 -0.1273  0.0763
  187MOL   H14233994   6.710   2.573   3.619 -1.1686  1.6095 -0.1326
  187MOL   H14333995   6.521   2.479   3.843 -1.9015  1.6817  1.1763
  187MOL   H14433996   6.648   2.603   3.836 -0.8317  1.9119 -0.0333
  187MOL   H14533997   6.502   2.631   3.754  1.0509  1.5642  0.5294
  187MOL   C14633998   6.428   2.512   3.354 -0.1202  0.0402  0.5920
  187MOL   C14733999   6.459   2.600   3.222 -0.1006  0.4057  0.1067
  187MOL   C14834000   6.295   2.561   3.412 -0.9958 -0.3226  0.2133
  187MOL   O14934001   6.191   2.513   3.379  0.7366 -0.1455  0.1808
  187MOL   O15034002   6.307   2.666   3.490 -0.0999  0.5155  0.1117
  187MOL   H15134003   6.412   2.407   3.330  0.8600 -0.0572  0.3415
  187MOL   H15234004   6.473   2.706   3.245  1.7920  0.4064 -0.9165
  187MOL   H15334005   6.550   2.556   3.180  0.6388  0.9473  1.0989
  187MOL   H15434006   6.380   2.579   3.150 -0.2262 -3.4940  1.3185
  187MOL   C15534007   6.203   2.727   3.565  0.4268  0.0160  0.4553
  187MOL   C15634008   6.246   2.873   3.605 -0.1834 -0.3193 -1.1125
  187MOL   C15734009   6.178   2.654   3.705 -0.3677 -0.1756  0.0341
  187MOL   O15834010   6.179   2.710   3.814 -0.3949  0.5531 -0.3418
  187MOL   O15934011   6.164   2.522   3.676 -0.7162  0.1080 -0.2055
  187MOL   H16034012   6.106   2.729   3.515 -0.3691  1.4829  2.0160
  187MOL   H16134013   6.300   2.917   3.521 -1.1679 -2.0248 -2.6804
  187MOL   H16234014   6.158   2.934   3.624 -0.2249  0.1674 -2.7488
  187MOL   H16334015   6.320   2.869   3.684 -1.2854 -1.6311 -0.1235
  187MOL   C16434016   6.135   2.422   3.770  0.1087  0.6440  1.2258
  187MOL   C16534017   6.161   2.280   3.718 -0.1490  0.2619 -0.0064
  187MOL   C16634018   5.987   2.434   3.802  0.1710 -0.8401  0.2857
  187MOL   O16734019   5.903   2.491   3.731 -0.4315  0.1192 -0.4240
  187MOL   O16834020   5.962   2.378   3.919 -0.6775  0.5483  0.2471
  187MOL   H16934021   6.178   2.432   3.869  2.0416  0.4347  0.4288
  187MOL   H17034022   6.177   2.220   3.807  0.1442  1.6680  0.9049
  187MOL   H17134023   6.084   2.245   3.649  0.2043 -2.2550  0.8499
  187MOL   H17234024   6.251   2.274   3.656  0.0667 -0.7186  0.3957
  187MOL   C17334025   5.830   2.354   3.967 -0.1412 -0.0316 -1.0027
  187MOL   C17434026   5.841   2.345   4.124 -0.3669  0.0018 -0.1226
  187MOL   C17534027   5.772   2.222   3.901  0.3064  0.3307  0.4060
  187MOL   O17634028   5.662   2.222   3.852  0.3674 -0.0085 -0.3231
  187MOL   O17734029   5.851   2.114   3.920  0.8384 -0.1036 -0.6106
  187MOL   H17834030   5.758   2.433   3.948  0.7791  0.5687 -2.0252
  187MOL   H17934031   5.743   2.342   4.172 -0.9421 -1.7970 -1.3664
  187MOL   H18034032   5.889   2.250   4.147 -0.1426  0.0724 -0.2950
  187MOL   H18134033   5.897   2.433   4.158 -0.4369  0.0608 -0.1612
  187MOL   H18234034   5.820   2.038   3.873 -0.6490 -2.0427  3.2233
  188MOL     C134035   2.434   7.477   2.959 -0.3504 -0.2111 -0.8672
  188MOL     C234036   2.448   7.472   3.114  0.4832  0.2381  0.1569
  188MOL     C334037   2.538   7.572   2.897  0.2378  0.2055 -0.4177
  188MOL     O434038   2.511   7.688   2.902 -0.1101 -0.2527  0.1733
  188MOL     O534039   2.655   7.508   2.861 -0.0812 -0.1711  0.5027
  188MOL     H634040   2.447   7.378   2.913  1.4308  0.1284 -1.1472
  188MOL     H734041   2.406   7.384   3.162  0.2180  1.1886  1.6955
  188MOL     H834042   2.549   7.492   3.150 -0.3433 -0.5118  3.0008
  188MOL     H934043   2.397   7.562   3.149 -0.3616 -0.4480  0.7219
  188MOL    H1034044   2.335   7.519   2.942 -1.3428 -0.8292  2.9211
  188MOL    C1134045   2.771   7.571   2.819  0.3230 -0.1882  0.3744
  188MOL    C1234046   2.872   7.465   2.776 -0.5578  0.6739 -0.5848
  188MOL    C1334047   2.827   7.661   2.929 -0.3913 -0.2502 -0.2680
  188MOL    O1434048   2.808   7.782   2.934 -0.2087  0.0909  0.1329
  188MOL    O1534049   2.898   7.601   3.024 -0.1844  0.0918  0.1118
  188MOL    H1634050   2.748   7.626   2.728 -2.2278 -2.3341 -0.3242
  188MOL    H1734051   2.972   7.509   2.771 -0.7365  1.0788 -0.6328
  188MOL    H1834052   2.887   7.388   2.851 -0.4106  3.2057  2.0774
  188MOL    H1934053   2.840   7.413   2.686  0.5601 -0.1483 -0.5154
  188MOL    C2034054   2.949   7.670   3.137 -0.4322 -0.1972 -0.3798
  188MOL    C2134055   3.068   7.585   3.193 -0.0528 -0.0987 -1.1993
  188MOL    C2234056   2.839   7.705   3.235 -0.0559  0.9311  0.0538
  188MOL    O2334057   2.723   7.659   3.223 -0.2907 -0.5728  0.2937
  188MOL    O2434058   2.881   7.791   3.332  0.2457  0.3464  0.1484
  188MOL    H2534059   2.992   7.768   3.118 -0.1571 -0.3607 -0.5974
  188MOL    H2634060   3.030   7.497   3.245  2.4640 -0.4953  0.0052
  188MOL    H2734061   3.134   7.535   3.122  1.2349  1.4510 -1.1212
  188MOL    H2834062   3.125   7.634   3.271  0.0339 -1.1874 -0.5758
  188MOL    C2934063   2.808   7.826   3.453 -0.3415  0.2625 -0.1982
  188MOL    C3034064   2.796   7.703   3.546  0.4477 -0.2004 -0.2959
  188MOL    C3134065   2.672   7.892   3.423  0.0100 -0.5029 -0.4083
  188MOL    O3234066   2.583   7.893   3.510  0.1702  0.4348 -0.3354
  188MOL    O3334067   2.663   7.946   3.298  0.1717  0.3661  0.0287
  188MOL    H3434068   2.872   7.899   3.502 -0.4552 -0.7159  1.4508
  188MOL    H3534069   2.865   7.699   3.631  0.0975 -0.4605 -0.0212
  188MOL    H3634070   2.692   7.694   3.580  0.9532 -0.3834  1.2355
  188MOL    H3734071   2.833   7.610   3.504  0.4099 -0.8002  0.9742
  188MOL    C3834072   2.566   8.031   3.263  0.2164  0.1614 -0.3818
  188MOL    C3934073   2.516   8.003   3.124  0.6105 -0.4012  0.5710
  188MOL    C4034074   2.606   0.030   3.288 -0.2255 -0.2432 -0.3227
  188MOL    O4134075   2.718   0.059   3.329 -0.1400  0.1706 -0.0242
  188MOL    O4234076   2.509   0.112   3.255 -0.7475  0.0790 -0.0122
  188MOL    H4334077   2.481   8.021   3.329 -1.2870  1.6855 -2.0217
  188MOL    H4434078   2.427   7.941   3.123 -0.7815  1.5730 -1.6417
  188MOL    H4534079   2.501   8.097   3.071  1.1658 -1.1010 -0.8736
  188MOL    H4634080   2.587   7.948   3.062  1.9566  2.6700 -0.7071
  188MOL    C4734081   2.544   0.248   3.247 -0.4391  0.1671  0.4987
  188MOL    C4834082   2.537   0.314   3.383  0.3046  0.3586 -0.1438
  188MOL    C4934083   2.445   0.318   3.150 -0.0524  0.2653  0.1089
  188MOL    O5034084   2.377   0.413   3.191 -0.3586  0.1368  0.4667
  188MOL    O5134085   2.435   0.259   3.028 -0.8986  0.3802  0.6119
  188MOL    H5234086   2.641   0.272   3.202 -0.8301  0.7139 -0.0659
  188MOL    H5334087   2.566   0.419   3.383 -0.6925  0.6512  1.1436
  188MOL    H5434088   2.435   0.319   3.421 -0.3036  0.7876 -1.8149
  188MOL    H5534089   2.590   0.243   3.448 -2.0984 -0.4411  1.0146
  188MOL    C5634090   2.357   0.310   2.919  0.1211 -0.3558  0.7149
  188MOL    C5734091   2.308   0.195   2.840 -0.2396 -0.5025 -0.7401
  188MOL    C5834092   2.434   0.421   2.838  0.5532  0.1488 -0.0372
  188MOL    O5934093   2.495   0.383   2.743 -0.0210 -0.0137  0.2446
  188MOL    O6034094   2.422   0.544   2.890 -0.0692  0.6109 -0.3796
  188MOL    H6134095   2.272   0.366   2.959 -0.1725  0.4258 -0.9425
  188MOL    H6234096   2.251   0.237   2.758  0.0865  0.4538 -0.4859
  188MOL    H6334097   2.389   0.139   2.796  0.5787  1.0213 -1.2166
  188MOL    H6434098   2.234   0.136   2.895  0.6251  1.8474  3.2199
  188MOL    C6534099   2.499   0.656   2.852  0.2270  0.1928  0.5281
  188MOL    C6634100   2.482   0.710   2.717  0.2695  0.2152 -0.1397
  188MOL    C6734101   2.645   0.637   2.899 -0.2631  0.6644 -0.4139
  188MOL    O6834102   2.666   0.571   3.002  0.8491 -0.3775  0.4675
  188MOL    O6934103   2.741   0.692   2.819  0.5048  0.6400 -0.1229
  188MOL    H7034104   2.460   0.738   2.912  1.1865  0.4182  0.8534
  188MOL    H7134105   2.524   0.811   2.718  0.7515  0.0413 -1.8510
  188MOL    H7234106   2.537   0.650   2.646 -0.0086  1.5766 -1.5333
  188MOL    H7334107   2.381   0.717   2.676  0.4134  1.2597 -0.3262
  188MOL    C7434108   2.881   0.662   2.829  0.1545  0.2990  0.1753
  188MOL    C7534109   2.962   0.746   2.735  0.0607  0.2072  0.2052
  188MOL    C7634110   2.918   0.520   2.801 -0.0956  0.7885 -0.4138
  188MOL    O7734111   3.020   0.480   2.857 -0.9760  0.0970 -0.1584
  188MOL    O7834112   2.830   0.450   2.717 -0.1575  0.2053  0.4046
  188MOL    H7934113   2.909   0.682   2.933  0.9364 -1.3378  0.3053
  188MOL    H8034114   2.964   0.852   2.763 -2.0500  0.6187 -1.1186
  188MOL    H8134115   3.067   0.717   2.739  0.3434  0.6825 -2.4933
  188MOL    H8234116   2.931   0.745   2.630 -1.1848  1.1657  0.5576
  188MOL    C8334117   2.850   0.314   2.700 -0.0294  0.6203 -0.5850
  188MOL    C8434118   2.768   0.282   2.574  0.2220 -0.3799  0.3058
  188MOL    C8534119   2.802   0.228   2.813  0.4523  0.2919 -0.1808
  188MOL    O8634120   2.694   0.163   2.816 -0.1399 -0.5635 -0.1440
  188MOL    O8734121   2.896   0.221   2.917 -0.1042 -0.0114  0.5285
  188MOL    H8834122   2.956   0.288   2.695  0.2391  0.6813  3.4079
  188MOL    H8934123   2.666   0.319   2.585  0.1393 -0.3927 -0.4190
  188MOL    H9034124   2.803   0.341   2.489  2.3594 -2.5402 -0.3780
  188MOL    H9134125   2.762   0.182   2.533  1.4640 -0.4188  0.2137
  188MOL    C9234126   2.873   0.144   3.032  0.1689  0.6346 -0.6197
  188MOL    C9334127   2.959   0.206   3.136 -0.7091 -0.0587  0.1101
  188MOL    C9434128   2.908   8.146   3.016  0.1382  0.7050 -0.3632
  188MOL    O9534129   2.853   8.051   3.069 -0.6662 -0.0374  0.4275
  188MOL    O9634130   3.021   8.140   2.941 -0.0494 -0.4729 -0.0977
  188MOL    H9734131   2.770   0.156   3.066  0.1987 -1.1730  0.1591
  188MOL    H9834132   2.932   0.311   3.144  0.1794  0.1443  0.4727
  188MOL    H9934133   2.950   0.158   3.234  1.6617  0.6225  0.7045
  188MOL   H10034134   3.061   0.209   3.099 -1.6432 -0.3255 -2.5646
  188MOL   C10134135   3.070   8.013   2.894  0.7443 -0.2992 -0.0620
  188MOL   C10234136   3.219   8.021   2.916  0.4822  0.3048 -0.0524
  188MOL   C10334137   3.026   7.995   2.746  0.4433  0.1135 -0.4755
  188MOL   O10434138   3.023   8.087   2.663 -0.3092  0.2718  0.0753
  188MOL   O10534139   2.996   7.869   2.716 -0.1473 -0.3603  0.2852
  188MOL   H10634140   3.029   7.929   2.950 -3.4070  3.7562  3.4125
  188MOL   H10734141   3.242   8.028   3.022  1.3392 -3.4985  0.1022
  188MOL   H10834142   3.261   7.925   2.885 -0.8188 -0.7432  1.3528
  188MOL   H10934143   3.273   8.103   2.870  0.9678 -1.2978 -2.4447
  188MOL   C11034144   2.952   7.831   2.581  0.9033  0.3529 -0.5238
  188MOL   C11134145   3.066   7.827   2.476 -0.4362  0.3367 -0.2133
  188MOL   C11234146   2.822   7.912   2.543 -0.0426  0.3152 -0.0686
  188MOL   O11334147   2.811   7.956   2.429 -0.3425 -0.1522 -0.5684
  188MOL   O11434148   2.738   7.913   2.647 -0.8824  0.4234 -0.0195
  188MOL   H11534149   2.915   7.729   2.596 -2.0613  1.6654  1.5157
  188MOL   H11634150   3.069   7.906   2.401 -0.0268  1.0050  0.4908
  188MOL   H11734151   3.161   7.831   2.529 -0.3291  5.4159 -0.5777
  188MOL   H11834152   3.062   7.736   2.416 -3.8629  0.7857 -0.7789
  188MOL   C11934153   2.624   7.990   2.645  0.6281 -0.3345 -0.1782
  188MOL   C12034154   2.577   7.986   2.790 -0.5187 -0.0591  0.3434
  188MOL   C12134155   2.519   7.915   2.549 -0.3751 -0.5934  0.1483
  188MOL   O12234156   2.509   7.954   2.431  0.6508  0.0092  0.2244
  188MOL   O12334157   2.467   7.796   2.603  0.1855 -0.3439  0.1106
  188MOL   H12434158   2.640   8.094   2.620  0.2834 -0.3370 -0.4140
  188MOL   H12534159   2.480   8.036   2.796  0.7951  2.4325  1.2944
  188MOL   H12634160   2.557   7.884   2.822  1.4212 -1.1848 -1.8983
  188MOL   H12734161   2.645   8.038   2.857  1.6118 -0.9174 -1.1117
  188MOL   C12834162   2.375   7.727   2.534 -0.0436  0.1172  0.7432
  188MOL   C12934163   2.263   7.667   2.634 -0.4162  0.3350  0.4364
  188MOL   C13034164   2.438   7.616   2.450 -0.1827  0.0428 -0.1207
  188MOL   O13134165   2.431   7.620   2.327  0.5248  0.0534 -0.3142
  188MOL   O13234166   2.512   7.532   2.525  0.0830 -0.5881  0.3230
  188MOL   H13334167   2.317   7.790   2.466 -0.8220 -1.5928 -0.2118
  188MOL   H13434168   2.190   7.615   2.573  0.1173  1.3535 -1.1134
  188MOL   H13534169   2.298   7.582   2.694 -2.1877  1.1233  2.6449
  188MOL   H13634170   2.216   7.746   2.692 -0.4315  1.5467 -1.1876
  188MOL   C13734171   2.583   7.425   2.467  0.7808 -0.1641  0.0559
  188MOL   C13834172   2.575   7.303   2.552 -0.3476  0.5191  0.1289
  188MOL   C13934173   2.727   7.474   2.447  0.1203  0.4141 -0.4880
  188MOL   O14034174   2.772   7.571   2.501 -0.1436  0.0943 -0.2099
  188MOL   O14134175   2.799   7.379   2.382 -0.7452  0.0652  0.2653
  188MOL   H14234176   2.535   7.390   2.375 -0.0471  0.6163  0.1851
  188MOL   H14334177   2.630   7.231   2.491 -2.4679 -0.0349 -1.1730
  188MOL   H14434178   2.628   7.329   2.644 -0.3729  3.0265 -0.5420
  188MOL   H14534179   2.469   7.282   2.566 -0.8374  3.5753  1.2824
  188MOL   C14634180   2.946   7.385   2.379 -0.7066 -0.4882 -0.6476
  188MOL   C14734181   2.993   7.363   2.231 -0.0296  0.1637 -0.0752
  188MOL   C14834182   3.005   7.273   2.465  0.1271  0.3967 -0.5341
  188MOL   O14934183   3.073   7.287   2.566 -0.0715  0.2501  0.1510
  188MOL   O15034184   2.976   7.152   2.421  0.0971 -0.3282 -0.7270
  188MOL   H15134185   2.986   7.476   2.423 -0.2636 -2.4508  3.2518
  188MOL   H15234186   2.930   7.294   2.176  0.5653  0.6214 -1.3666
  188MOL   H15334187   2.964   7.458   2.184 -3.5129 -1.4699 -1.3824
  188MOL   H15434188   3.097   7.339   2.211 -0.3767 -2.0215  0.6960
  188MOL   C15534189   2.972   7.038   2.508 -0.1536 -0.4680  0.6560
  188MOL   C15634190   3.093   6.968   2.455  0.1580 -0.0775  0.7325
  188MOL   C15734191   2.842   6.968   2.477  0.3983  0.1402  0.2385
  188MOL   O15834192   2.771   6.915   2.564  0.2073  0.2735  0.1358
  188MOL   O15934193   2.823   6.951   2.343 -0.2544 -0.4289  0.1785
  188MOL   H16034194   2.977   7.066   2.614 -1.0849  1.3713  0.2365
  188MOL   H16134195   3.174   7.040   2.468  0.1701  0.0993 -0.2287
  188MOL   H16234196   3.128   6.880   2.509  0.9563 -0.3381 -0.2006
  188MOL   H16334197   3.072   6.938   2.352 -0.4833  0.6747  0.6430
  188MOL   C16434198   2.725   6.861   2.298 -0.4751 -0.2640  0.0156
  188MOL   C16534199   2.791   6.743   2.224  0.3229 -0.1160 -0.1945
  188MOL   C16634200   2.625   6.945   2.214  0.2907  0.6661 -0.1974
  188MOL   O16734201   2.517   6.988   2.255  0.3019  0.4231 -0.4138
  188MOL   O16834202   2.673   6.972   2.088 -0.1189  0.0481  0.5754
  188MOL   H16934203   2.660   6.826   2.379 -0.4673 -0.9208 -0.2645
  188MOL   H17034204   2.874   6.713   2.288  0.2971  2.0893  0.9118
  188MOL   H17134205   2.724   6.658   2.240  0.7838 -0.3202  0.7008
  188MOL   H17234206   2.825   6.761   2.122 -0.1786 -1.7822 -0.6797
  188MOL   C17334207   2.590   7.046   1.999  0.5608 -0.0330  0.0984
  188MOL   C17434208   2.473   6.957   1.945 -0.8208 -0.1356 -0.0920
  188MOL   C17534209   2.680   7.100   1.884 -0.0724 -0.5315  0.5505
  188MOL   O17634210   2.659   7.095   1.762 -0.5861  0.6878  0.1457
  188MOL   O17734211   2.789   7.163   1.939 -0.1810 -0.1992 -0.5387
  188MOL   H17834212   2.548   7.129   2.057  0.5893  1.5400 -2.0674
  188MOL   H17934213   2.391   6.942   2.015 -1.2332  0.4144 -0.4560
  188MOL   H18034214   2.436   6.999   1.852 -0.5159 -0.3917 -0.3320
  188MOL   H18134215   2.515   6.863   1.909 -0.6440  0.0099 -0.2639
  188MOL   H18234216   2.861   7.158   1.877 -0.0523  1.1183 -0.5185
  189MOL     C134217   7.537   4.786   7.274 -0.4320 -0.3626  0.3223
  189MOL     C234218   7.640   4.685   7.337 -0.5207  0.0508 -0.3406
  189MOL     C334219   7.603   4.882   7.173 -0.1440  0.2943 -0.3463
  189MOL     O434220   7.591   5.002   7.189  0.1050 -0.2326  0.3278
  189MOL     O534221   7.677   4.826   7.075  0.0616 -0.0658 -0.0965
  189MOL     H634222   7.453   4.733   7.228  0.3001 -1.2610  0.0216
  189MOL     H734223   7.706   4.636   7.266 -0.2300  0.2653 -0.2214
  189MOL     H834224   7.706   4.729   7.413 -1.3328  0.4062  0.1615
  189MOL     H934225   7.586   4.599   7.379  0.0811 -0.8432 -1.3777
  189MOL    H1034226   7.483   4.848   7.346  0.2346  0.0108  0.5038
  189MOL    C1134227   7.761   4.905   7.001 -0.8900  0.4852 -0.2322
  189MOL    C1234228   7.763   4.823   6.874  0.0711  0.0071 -0.2208
  189MOL    C1334229   7.899   4.923   7.060 -0.0163  0.0073  0.2494
  189MOL    O1434230   7.921   4.911   7.180 -0.5833  0.7781  0.2161
  189MOL    O1534231   7.990   4.957   6.967  0.7832 -0.3694 -0.7102
  189MOL    H1634232   7.729   5.006   6.978 -2.3043 -0.0288 -0.5249
  189MOL    H1734233   7.788   4.720   6.897 -1.5357 -1.0145 -2.7421
  189MOL    H1834234   7.667   4.829   6.824 -0.5158 -1.3425  0.7229
  189MOL    H1934235   7.827   4.866   6.796  0.3898  0.4753  0.3004
  189MOL    C2034236   8.130   4.963   7.006  0.1672  0.4197  0.5527
  189MOL    C2134237   0.051   5.073   6.917 -0.2085  0.2512 -0.3005
  189MOL    C2234238   0.059   4.833   6.987 -0.4585  0.2524 -0.0014
  189MOL    O2334239   0.114   4.778   7.083 -0.4129  0.1695  0.3041
  189MOL    O2434240   0.049   4.794   6.860 -0.6590  0.4099  0.2470
  189MOL    H2534241   0.008   4.976   7.111 -3.4460 -1.5557  1.7618
  189MOL    H2634242   0.001   5.169   6.929  0.9529  0.6427  1.6546
  189MOL    H2734243   0.158   5.090   6.928 -0.1090 -1.4268  1.6663
  189MOL    H2834244   0.036   5.051   6.812  0.8643  0.5655 -0.5308
  189MOL    C2934245   0.091   4.664   6.828  0.3838 -0.2541 -0.6885
  189MOL    C3034246   0.206   4.679   6.724  0.5094 -0.3055 -0.8712
  189MOL    C3134247   8.122   4.594   6.766 -0.5022 -0.2817 -0.4672
  189MOL    O3234248   8.010   4.639   6.778  0.1169 -0.1695  0.0045
  189MOL    O3334249   0.006   4.482   6.693  0.1852  0.6099  0.1313
  189MOL    H3434250   0.116   4.605   6.916  0.4106 -1.2739 -1.3774
  189MOL    H3534251   0.244   4.581   6.695  2.3891  0.6333 -1.6525
  189MOL    H3634252   0.186   4.746   6.640  0.7095  0.0805 -0.6126
  189MOL    H3734253   0.288   4.727   6.778 -0.9517 -0.3426  1.4386
  189MOL    C3834254   8.071   4.409   6.606  0.1571 -0.9565  0.1587
  189MOL    C3934255   0.027   4.307   6.546 -0.1565  0.3277 -0.4583
  189MOL    C4034256   8.004   4.483   6.493 -0.6833 -0.1832 -0.0390
  189MOL    O4134257   8.023   4.600   6.478 -0.3835 -0.1910 -0.0163
  189MOL    O4234258   7.936   4.403   6.405 -0.9022 -0.0592 -0.1511
  189MOL    H4334259   7.998   4.348   6.660  0.3187 -0.2146  1.2084
  189MOL    H4434260   0.122   4.355   6.525  0.1253 -0.3611 -0.7594
  189MOL    H4534261   0.045   4.235   6.626  4.1572  3.8389  1.9511
  189MOL    H4634262   8.137   4.254   6.459  0.9013  1.4193 -1.5911
  189MOL    C4734263   7.882   4.454   6.281  0.3174 -0.0893 -0.1901
  189MOL    C4834264   7.751   4.378   6.254 -0.5202  0.1185 -0.5226
  189MOL    C4934265   7.991   4.428   6.174  1.1693  0.6006 -0.2403
  189MOL    O5034266   8.088   4.354   6.194 -0.0968 -0.3647 -0.1921
  189MOL    O5134267   7.964   4.497   6.060  0.7371  0.2526  0.0785
  189MOL    H5234268   7.867   4.562   6.284  1.1070 -0.0175  1.0972
  189MOL    H5334269   7.712   4.320   6.338  0.2155 -0.8700 -0.8532
  189MOL    H5434270   7.672   4.443   6.217 -0.4955  0.2654 -0.3186
  189MOL    H5534271   7.772   4.312   6.170 -2.2288 -0.4280 -0.5364
  189MOL    C5634272   8.054   4.490   5.948 -0.4986  0.0845  0.2186
  189MOL    C5734273   8.043   4.618   5.867  0.0641 -0.2896  0.2200
  189MOL    C5834274   8.024   4.368   5.852 -0.6795 -0.2630  0.6783
  189MOL    O5934275   8.103   4.278   5.837 -0.5350  0.5228 -0.6473
  189MOL    O6034276   7.904   4.375   5.778 -0.3974 -0.3832  0.2612
  189MOL    H6134277   0.008   4.489   5.988 -0.9661 -0.1695  1.4434
  189MOL    H6234278   7.945   4.639   5.826  0.5109 -0.1240 -0.7752
  189MOL    H6334279   8.058   4.712   5.921  1.2512 -0.6174  0.4812
  189MOL    H6434280   8.113   4.637   5.785 -1.3684 -0.5551 -1.0768
  189MOL    C6534281   7.848   4.268   5.710  0.5308  1.0081  0.1468
  189MOL    C6634282   7.785   4.343   5.590  0.0482  0.5509 -0.6246
  189MOL    C6734283   7.752   4.191   5.803 -0.1846 -0.6337 -0.2473
  189MOL    O6834284   7.756   4.214   5.927 -0.2078  0.1765 -0.1190
  189MOL    O6934285   7.673   4.103   5.744  0.0474 -0.0481  0.0914
  189MOL    H7034286   7.922   4.205   5.660  0.6716  2.8956 -2.0846
  189MOL    H7134287   7.854   4.366   5.509  1.4708 -1.7517 -0.1201
  189MOL    H7234288   7.720   4.285   5.526  0.2317  2.3707 -2.5299
  189MOL    H7334289   7.722   4.427   5.618 -0.2716 -0.2514  1.1379
  189MOL    C7434290   7.576   4.021   5.818 -0.0133 -0.0588 -0.3089
  189MOL    C7534291   7.500   3.931   5.720 -0.1061 -0.3884 -0.5463
  189MOL    C7634292   7.468   4.104   5.890  0.2194 -0.4374 -0.6757
  189MOL    O7734293   7.428   4.213   5.838  0.1809 -0.0240  0.0255
  189MOL    O7834294   7.416   4.052   6.001  0.1136  0.0328 -0.7644
  189MOL    H7934295   7.618   3.958   5.897  0.7370  1.7817  0.7868
  189MOL    H8034296   7.444   4.006   5.664  3.0828  1.6870 -1.0775
  189MOL    H8134297   7.575   3.882   5.659 -0.3546 -1.4481 -0.0226
  189MOL    H8234298   7.434   3.858   5.767  0.0007 -1.1380 -1.5434
  189MOL    C8334299   7.342   4.136   6.100  0.8946 -0.3520  0.4552
  189MOL    C8434300   7.330   4.059   6.231 -0.1947 -0.3026 -0.8617
  189MOL    C8534301   7.200   4.169   6.048  0.8073  0.2501  0.1882
  189MOL    O8634302   7.128   4.078   5.999  0.5872 -0.1853 -0.5288
  189MOL    O8734303   7.158   4.294   6.084 -0.0806 -0.1377  0.5984
  189MOL    H8834304   7.392   4.231   6.118 -1.5062  1.3180 -1.4635
  189MOL    H8934305   7.283   4.125   6.304 -2.0334 -2.1927 -0.3010
  189MOL    H9034306   7.259   3.977   6.222  1.2103 -1.6894  0.4644
  189MOL    H9134307   7.426   4.030   6.275 -1.2024  0.5083  2.0089
  189MOL    C9234308   7.022   4.330   6.064 -0.4853  0.0689 -0.0036
  189MOL    C9334309   7.002   4.482   6.078  0.0833  0.3098 -0.9309
  189MOL    C9434310   6.934   4.259   6.173  0.4956 -0.1883 -0.4284
  189MOL    O9534311   6.987   4.195   6.265  0.5457 -0.9580  0.2711
  189MOL    O9634312   6.799   4.262   6.160  0.5241 -1.1879 -0.1238
  189MOL    H9734313   6.990   4.309   5.962 -0.5911 -0.6335  0.1763
  189MOL    H9834314   7.069   4.532   6.007  1.3372 -0.8280 -0.5768
  189MOL    H9934315   6.899   4.513   6.063  0.1956  0.6653 -0.9607
  189MOL   H10034316   7.032   4.510   6.179  1.5179 -1.1983 -0.9091
  189MOL   C10134317   6.709   4.229   6.274 -0.1133  0.2571  0.3267
  189MOL   C10234318   6.555   4.195   6.234  0.3565  0.3156 -0.2066
  189MOL   C10334319   6.714   4.337   6.378 -0.0509  0.1221 -0.7027
  189MOL   O10434320   6.676   4.314   6.494  0.1620 -0.1058  0.2280
  189MOL   O10534321   6.754   4.455   6.334  0.3398  0.0174 -0.0141
  189MOL   H10634322   6.747   4.147   6.334  0.5255 -0.8013 -1.4785
  189MOL   H10734323   6.546   4.092   6.202 -1.2309 -0.0961  1.5113
  189MOL   H10834324   6.491   4.200   6.322 -0.5816 -2.4544 -0.6949
  189MOL   H10934325   6.516   4.273   6.168  2.1647  1.5065  0.1073
  189MOL   C11034326   6.774   4.566   6.419 -0.5801 -0.3379  0.2462
  189MOL   C11134327   6.753   4.694   6.337  0.4452  0.0465  0.3032
  189MOL   C11234328   6.914   4.560   6.498  0.0978  0.3835 -0.0389
  189MOL   O11334329   6.967   4.667   6.536  0.2954 -0.1077 -0.7203
  189MOL   O11434330   6.973   4.440   6.509  0.0323  0.0257  0.1305
  189MOL   H11534331   6.695   4.572   6.493 -0.6213  3.5104 -0.0123
  189MOL   H11634332   6.695   4.757   6.405  1.0620  1.8525 -0.8215
  189MOL   H11734333   6.844   4.730   6.289 -0.0967 -1.8311 -2.2661
  189MOL   H11834334   6.686   4.680   6.252  1.3833 -0.3883 -0.3771
  189MOL   C11934335   7.099   4.428   6.568  0.0327 -0.1169  0.3956
  189MOL   C12034336   7.162   4.296   6.527  0.8264  0.3821  0.6207
  189MOL   C12134337   7.087   4.437   6.725  0.6881  0.9383  0.8074
  189MOL   O12234338   7.122   4.541   6.778 -1.0676  0.5387  0.0829
  189MOL   O12334339   7.047   4.317   6.773 -0.4458  0.1395 -0.2745
  189MOL   H12434340   7.171   4.504   6.536 -1.3211  0.6951 -0.7984
  189MOL   H12534341   7.111   4.204   6.556  0.6817  0.2480 -0.0601
  189MOL   H12634342   7.174   4.301   6.419  2.6903 -0.2687  0.7742
  189MOL   H12734343   7.262   4.291   6.571  1.7601 -0.7112 -1.5505
  189MOL   C12834344   7.009   4.314   6.913  0.4183 -0.0824  0.0976
  189MOL   C12934345   7.096   4.214   6.978 -0.4130  0.4126  0.1973
  189MOL   C13034346   6.855   4.302   6.934 -0.2903 -0.1267  0.7529
  189MOL   O13134347   6.798   4.218   6.999  0.1556  0.3787 -0.1336
  189MOL   O13234348   6.795   4.402   6.863  0.3136 -0.2289 -0.1422
  189MOL   H13334349   7.032   4.410   6.960  2.9185 -0.5661 -0.0924
  189MOL   H13434350   7.074   4.112   6.948 -1.2899  0.7591 -0.3643
  189MOL   H13534351   7.202   4.233   6.961  0.2403 -1.1737  2.3893
  189MOL   H13634352   7.088   4.226   7.086 -0.5673 -1.1172  0.3730
  189MOL   C13734353   6.662   4.447   6.875 -0.0592  0.0046 -0.2751
  189MOL   C13834354   6.635   4.550   6.764  0.8436 -0.6021  0.8369
  189MOL   C13934355   6.649   4.515   7.014  0.1059 -0.0436  0.6053
  189MOL   O14034356   6.550   4.499   7.086 -0.1098 -0.0764 -1.1587
  189MOL   O14134357   6.748   4.599   7.030  0.1032  0.0324 -0.4178
  189MOL   H14234358   6.592   4.363   6.870 -0.7586  0.6000 -0.4635
  189MOL   H14334359   6.640   4.497   6.669  1.2513 -1.0433  1.1049
  189MOL   H14434360   6.534   4.588   6.776  1.8410  2.1498  0.8850
  189MOL   H14534361   6.702   4.635   6.758  1.4652 -1.2224 -1.4021
  189MOL   C14634362   6.747   4.685   7.141  0.7772  0.2104 -0.1126
  189MOL   C14734363   6.812   4.817   7.094 -0.5356 -0.2188 -0.3060
  189MOL   C14834364   6.823   4.620   7.254  0.8236 -0.7136  0.6112
  189MOL   O14934365   6.912   4.542   7.222  0.2496  0.0593 -0.4436
  189MOL   O15034366   6.793   4.665   7.378  0.7033  0.4817 -0.4036
  189MOL   H15134367   6.650   4.717   7.177 -0.2207 -1.4496 -1.2792
  189MOL   H15234368   6.861   4.864   7.180  1.4545 -1.2281 -0.8453
  189MOL   H15334369   6.890   4.800   7.020 -0.1576 -1.4623  0.3530
  189MOL   H15434370   6.737   4.894   7.075 -0.2549 -0.0136 -0.5636
  189MOL   C15534371   6.863   4.621   7.499  0.6606 -0.3326  0.1000
  189MOL   C15634372   6.982   4.725   7.535 -0.3262 -0.6079  0.4979
  189MOL   C15734373   6.905   4.464   7.498 -0.2270 -0.1279  0.0057
  189MOL   O15834374   7.019   4.437   7.529 -0.3128 -0.4740 -0.3396
  189MOL   O15934375   6.812   4.374   7.480  0.1152 -0.0014  0.0388
  189MOL   H16034376   6.800   4.630   7.588  1.3246 -1.5825  0.6992
  189MOL   H16134377   7.034   4.709   7.629  0.4143  0.4196  0.2621
  189MOL   H16234378   7.066   4.726   7.465  1.6273  2.0066  2.8145
  189MOL   H16334379   6.927   4.819   7.537 -0.4367 -0.6690  0.3891
  189MOL   C16434380   6.834   4.247   7.429 -0.2982 -0.2076  0.1889
  189MOL   C16534381   6.715   4.174   7.367 -0.0410  0.0304 -0.3053
  189MOL   C16634382   6.885   4.162   7.544  0.2019  1.0461  0.0923
  189MOL   O16734383   6.820   4.171   7.652  0.1503  0.0584 -0.5464
  189MOL   O16834384   6.983   4.088   7.515  0.5999 -0.3545  0.2640
  189MOL   H16934385   6.909   4.254   7.350 -1.5662 -1.4954 -1.1559
  189MOL   H17034386   6.717   4.065   7.368 -0.9595  0.0120  0.3371
  189MOL   H17134387   6.625   4.199   7.424 -1.2011 -2.4002 -0.9757
  189MOL   H17234388   6.697   4.199   7.262  1.2448 -1.7778 -0.9813
  189MOL   C17334389   7.028   4.003   7.621  0.2002  0.3038  0.0683
  189MOL   C17434390   7.129   4.076   7.716 -0.1510  0.4615 -0.5410
  189MOL   C17534391   7.095   3.883   7.560  0.3989 -0.6665 -0.3637
  189MOL   O17634392   7.111   3.871   7.441 -0.0507  0.0388  0.2612
  189MOL   O17734393   7.124   3.791   7.657  0.3198  0.1252  0.4182
  189MOL   H17834394   6.944   3.959   7.674  0.2477 -0.3862 -0.4143
  189MOL   H17934395   7.083   4.165   7.758 -0.1707 -0.5058  1.5538
  189MOL   H18034396   7.157   4.018   7.805 -0.8691 -0.4104 -0.8714
  189MOL   H18134397   7.212   4.091   7.647 -0.7038 -0.7932 -1.5105
  189MOL   H18234398   7.155   3.711   7.617 -1.6421  0.4402 -1.8475
  190MOL     C134399   3.685   0.614   1.307  0.2436  0.2531 -0.2546
  190MOL     C234400   3.657   0.557   1.446  0.8914 -0.1434  0.1242
  190MOL     C334401   3.564   0.623   1.212 -0.3738 -0.3254  0.4021
  190MOL     O434402   3.527   0.732   1.166 -0.3818 -0.4339 -0.4993
  190MOL     O534403   3.510   0.507   1.181 -0.0406  0.6776  0.2758
  190MOL     H634404   3.729   0.712   1.324  2.1808 -0.9072  1.6175
  190MOL     H734405   3.578   0.617   1.492 -0.3897 -1.3482 -0.4554
  190MOL     H834406   3.622   0.454   1.451 -2.6804  1.0314  1.5563
  190MOL     H934407   3.743   0.563   1.512  0.5027 -0.1567  0.6396
  190MOL    H1034408   3.751   0.550   1.249  1.1779  0.2206  0.8277
  190MOL    C1134409   3.417   0.497   1.072  0.1362  0.2762  0.1500
  190MOL    C1234410   3.271   0.479   1.113 -0.6536  0.0791 -0.0483
  190MOL    C1334411   3.453   0.376   0.989 -0.2774  0.7218  0.8676
  190MOL    O1434412   3.547   0.300   1.013  0.1028  0.1358  0.3380
  190MOL    O1534413   3.366   0.355   0.887 -0.0803  0.6421 -0.4467
  190MOL    H1634414   3.428   0.582   1.005  0.3315 -0.7584 -1.1306
  190MOL    H1734415   3.204   0.478   1.027  2.4034 -1.4336 -2.5014
  190MOL    H1834416   3.246   0.387   1.165 -1.7077 -0.2720 -1.1482
  190MOL    H1934417   3.248   0.553   1.190 -0.1324  0.2813 -0.0856
  190MOL    C2034418   3.366   0.234   0.814 -0.6815 -0.6438 -0.0251
  190MOL    C2134419   3.288   0.269   0.688  0.3729  0.3617 -0.0364
  190MOL    C2234420   3.304   0.119   0.894  0.1049  0.0804 -0.1005
  190MOL    O2334421   3.222   0.140   0.987 -0.3361  0.4583  0.0191
  190MOL    O2434422   3.339   0.006   0.843 -0.4785 -0.5589 -0.0723
  190MOL    H2534423   3.465   0.203   0.780 -0.0033 -1.2982  2.4698
  190MOL    H2634424   3.195   0.315   0.722 -0.4253 -1.3552  0.1605
  190MOL    H2734425   3.349   0.335   0.626 -1.6010 -0.7831 -3.3363
  190MOL    H2834426   3.268   0.178   0.632  2.3481 -0.1536  0.0657
  190MOL    C2934427   3.279   8.038   0.902  0.0477  0.1635  0.1079
  190MOL    C3034428   3.389   7.927   0.897 -0.0677  0.0579 -0.0237
  190MOL    C3134429   3.149   7.987   0.835  0.7195 -0.0797  0.1784
  190MOL    O3234430   3.109   8.028   0.725  0.5374 -0.3135 -0.1346
  190MOL    O3334431   3.091   7.886   0.906 -0.5570  0.1060  0.1619
  190MOL    H3434432   3.265   8.056   1.009  2.0644  1.9649  0.1246
  190MOL    H3534433   3.337   7.835   0.921  1.3489 -0.5388  0.8601
  190MOL    H3634434   3.430   7.910   0.797  1.9606 -0.1656  0.8167
  190MOL    H3734435   3.470   7.925   0.970 -2.4539  0.3267  2.7081
  190MOL    C3834436   2.988   7.802   0.858  0.1141  0.3662  0.0101
  190MOL    C3934437   2.936   7.722   0.979 -0.4602 -0.1230  0.7892
  190MOL    C4034438   3.061   7.705   0.765  0.3282 -0.1827  0.8981
  190MOL    O4134439   3.007   7.667   0.662  0.0038 -0.1484  0.3544
  190MOL    O4234440   3.182   7.649   0.823 -0.0619 -0.1726 -0.2413
  190MOL    H4334441   2.908   7.848   0.801  1.7056  2.5756 -0.5107
  190MOL    H4434442   2.869   7.773   1.048 -1.6665  0.0652 -0.4929
  190MOL    H4534443   2.890   7.628   0.946 -0.4657  0.2519 -0.2967
  190MOL    H4634444   3.020   7.686   1.037  1.3486  0.8740 -1.1346
  190MOL    C4734445   3.232   7.536   0.755  0.0978 -0.4201  0.5775
  190MOL    C4834446   3.169   7.410   0.811  0.6707 -1.1637 -0.0543
  190MOL    C4934447   3.389   7.530   0.761  0.0747  0.0713 -0.4868
  190MOL    O5034448   3.459   7.612   0.820 -0.2982 -0.1181 -0.1037
  190MOL    O5134449   3.437   7.429   0.691  0.2978 -0.1019  0.3766
  190MOL    H5234450   3.222   7.552   0.648 -2.6433  1.9389  1.1349
  190MOL    H5334451   3.149   7.407   0.918  0.0203 -2.3887 -0.2040
  190MOL    H5434452   3.078   7.380   0.757 -0.0504  0.1604  0.3900
  190MOL    H5534453   3.220   7.316   0.792  1.8349 -0.9076  1.7057
  190MOL    C5634454   3.579   7.411   0.690 -0.0167  0.6396 -0.1151
  190MOL    C5734455   3.613   7.331   0.561 -0.5646  0.6191 -0.8817
  190MOL    C5834456   3.627   7.342   0.824 -0.1617 -0.1173 -0.2586
  190MOL    O5934457   3.541   7.312   0.915  0.3127  0.0229 -0.3914
  190MOL    O6034458   3.758   7.331   0.827  0.2560  0.4026 -0.1092
  190MOL    H6134459   3.624   7.509   0.677 -0.5846  0.7320 -1.4688
  190MOL    H6234460   3.585   7.226   0.573 -0.8448  0.2024 -4.5158
  190MOL    H6334461   3.563   7.378   0.476 -0.4144  1.2589 -0.6220
  190MOL    H6434462   3.722   7.325   0.551 -0.4018  1.1568  0.4853
  190MOL    C6534463   3.833   7.281   0.937 -0.0822  0.4852  0.6023
  190MOL    C6634464   3.977   7.313   0.907 -0.8461  0.1775  0.7847
  190MOL    C6734465   3.821   7.125   0.944  0.4394 -0.3212  0.2319
  190MOL    O6834466   3.803   7.048   0.848  0.0105  0.4727  0.3338
  190MOL    O6934467   3.853   7.086   1.061  1.0052 -0.7489 -0.9938
  190MOL    H7034468   3.805   7.332   1.029 -1.0622 -1.1664  1.2327
  190MOL    H7134469   3.976   7.415   0.868  1.0788 -0.5139 -1.1336
  190MOL    H7234470   4.048   7.304   0.988 -0.7650 -0.9369  0.5988
  190MOL    H7334471   4.006   7.255   0.820 -0.2944  1.1919  0.2830
  190MOL    C7434472   3.866   6.953   1.097  0.0894  0.3900  0.0533
  190MOL    C7534473   3.912   6.972   1.244 -0.1053  0.3692  0.8831
  190MOL    C7634474   3.975   6.884   1.018 -0.4951 -0.0382 -0.0800
  190MOL    O7734475   3.966   6.768   0.976 -0.6561 -0.5312  0.7868
  190MOL    O7834476   4.087   6.957   1.009  0.3161 -0.7397 -0.0450
  190MOL    H7934477   3.770   6.901   1.088  0.1600  0.1772  0.5574
  190MOL    H8034478   3.943   6.878   1.290 -0.3120  0.0062  0.2927
  190MOL    H8134479   3.997   7.040   1.244  0.4322 -0.2410 -1.6585
  190MOL    H8234480   3.830   7.014   1.302 -1.8763  0.5157 -1.6136
  190MOL    C8334481   4.203   6.926   0.939  0.6914 -0.0038  0.1153
  190MOL    C8434482   4.295   7.041   0.985  0.4405 -1.2093 -0.3671
  190MOL    C8534483   4.179   6.925   0.792 -0.1672 -0.5238 -1.0351
  190MOL    O8634484   4.084   6.978   0.734  0.3347  0.0271  0.5788
  190MOL    O8734485   4.288   6.876   0.727 -0.4533  0.1797 -0.3017
  190MOL    H8834486   4.249   6.832   0.970 -0.0124 -0.4141 -0.0736
  190MOL    H8934487   4.324   7.050   1.089 -0.2269  0.2902 -0.2938
  190MOL    H9034488   4.390   7.026   0.933  2.0179  0.9997  1.7971
  190MOL    H9134489   4.257   7.137   0.948 -1.1536 -1.5721  0.3315
  190MOL    C9234490   4.300   6.893   0.587  0.4444 -0.2460  0.1701
  190MOL    C9334491   4.373   6.774   0.532 -0.0497  0.2303 -0.0992
  190MOL    C9434492   4.375   7.027   0.550  0.1671 -0.1575 -0.2024
  190MOL    O9534493   4.421   7.052   0.439 -0.0243 -0.3442  0.1496
  190MOL    O9634494   4.384   7.113   0.655  0.2491  0.2201 -0.3587
  190MOL    H9734495   4.198   6.893   0.548  0.0998 -1.2402  1.0497
  190MOL    H9834496   4.307   6.688   0.542 -1.4898  1.5808  2.4249
  190MOL    H9934497   4.382   6.787   0.424  0.8851  3.0483  0.2817
  190MOL   H10034498   4.472   6.764   0.576 -0.3744 -0.5320  0.4805
  190MOL   C10134499   4.466   7.235   0.635  0.9520 -0.1557  0.0398
  190MOL   C10234500   4.496   7.282   0.786 -0.1242  0.1023 -0.0747
  190MOL   C10334501   4.384   7.339   0.563 -0.2625 -0.7026 -0.0228
  190MOL   O10434502   4.436   7.437   0.508  0.4969  0.5372  0.1535
  190MOL   O10534503   4.248   7.321   0.592  0.1474  0.2371 -0.0430
  190MOL   H10634504   4.558   7.210   0.582  0.7248  1.4275 -1.1779
  190MOL   H10734505   4.563   7.368   0.791  0.2997 -0.2641  0.5026
  190MOL   H10834506   4.402   7.309   0.834 -0.9858 -1.8245 -0.6182
  190MOL   H10934507   4.531   7.198   0.845 -0.8780  0.0931  0.3714
  190MOL   C11034508   4.142   7.403   0.554 -0.2199 -0.4813  0.0989
  190MOL   C11134509   4.117   7.393   0.397 -0.6469 -0.0608  0.3550
  190MOL   C11234510   4.173   7.539   0.612 -0.1802  0.4674 -0.2434
  190MOL   O11334511   4.206   7.635   0.540  0.0695  0.7751  0.0366
  190MOL   O11434512   4.162   7.543   0.747 -0.4497  0.0646 -0.1750
  190MOL   H11534513   4.053   7.363   0.602  0.4090 -0.5434  1.2256
  190MOL   H11634514   4.212   7.405   0.347  0.5381  1.9137  2.9803
  190MOL   H11734515   4.073   7.297   0.370  0.2360 -0.6018  0.8156
  190MOL   H11834516   4.047   7.468   0.361  0.4358  0.0300 -1.6241
  190MOL   C11934517   4.209   7.654   0.823  0.0742 -0.3453 -0.2774
  190MOL   C12034518   4.234   7.594   0.962 -0.2662  0.0550  0.5400
  190MOL   C12134519   4.096   7.756   0.826  0.4002 -0.3306  0.7389
  190MOL   O12234520   4.103   7.867   0.769 -0.0931  0.0407  0.1410
  190MOL   O12334521   3.977   7.703   0.871 -0.4532  0.4903  0.7780
  190MOL   H12434522   4.299   7.701   0.782  0.4009 -0.0654  0.7646
  190MOL   H12534523   4.248   7.486   0.959 -0.1176  0.0857  0.1776
  190MOL   H12634524   4.330   7.627   1.002  0.3759  0.1594 -1.0750
  190MOL   H12734525   4.156   7.616   1.036 -1.5950  1.0465 -1.1192
  190MOL   C12834526   3.853   7.771   0.851 -0.9397 -0.0839 -0.4042
  190MOL   C12934527   3.753   7.704   0.945 -0.9022 -0.3257 -0.4791
  190MOL   C13034528   3.815   7.765   0.705  0.3460  0.2692  0.1668
  190MOL   O13134529   3.854   7.677   0.627  0.8048 -0.2697  0.4297
  190MOL   O13234530   3.735   7.874   0.670  0.6142  0.7256  1.0723
  190MOL   H13334531   3.864   7.875   0.882 -1.6362 -0.3526  0.7458
  190MOL   H13434532   3.761   7.713   1.054  0.8444 -3.3330 -0.2973
  190MOL   H13534533   3.649   7.733   0.929 -1.3827 -1.3852  0.6108
  190MOL   H13634534   3.749   7.598   0.920  0.0349 -0.5096  0.1237
  190MOL   C13734535   3.677   7.896   0.546 -0.0165 -0.4637 -0.0245
  190MOL   C13834536   3.549   7.815   0.520  0.5667 -0.2309 -0.1787
  190MOL   C13934537   3.773   7.867   0.432  0.5176 -0.0108 -0.2269
  190MOL   O14034538   3.758   7.775   0.350  0.2073 -0.1342 -0.5664
  190MOL   O14134539   3.865   7.962   0.424  0.3162  0.2572  0.0542
  190MOL   H14234540   3.655   8.002   0.543 -2.9142 -1.0012  0.9423
  190MOL   H14334541   3.554   7.707   0.533  1.4321 -0.2088 -0.3047
  190MOL   H14434542   3.474   7.848   0.592  0.9741  0.2763  0.0184
  190MOL   H14534543   3.503   7.836   0.423  0.9156  1.4840  0.0135
  190MOL   C14634544   3.960   7.956   0.319 -0.3951 -0.4018  0.6435
  190MOL   C14734545   4.098   7.970   0.399 -0.1170  0.4295  0.2409
  190MOL   C14834546   3.925   8.066   0.220 -0.0889  0.2937 -0.2155
  190MOL   O14934547   3.909   8.052   0.096  0.1307  0.6539 -0.2814
  190MOL   O15034548   3.920   0.039   0.283 -0.2519  0.1939 -0.1149
  190MOL   H15134549   3.966   7.858   0.272  0.9906 -0.1497  0.2797
  190MOL   H15234550   4.115   7.908   0.488  0.8268  0.4756  0.0998
  190MOL   H15334551   4.186   7.955   0.336 -0.7698  2.0313 -1.0846
  190MOL   H15434552   4.110   8.072   0.433  2.2874 -0.4329  2.1627
  190MOL   C15534553   3.870   0.158   0.228  0.8490 -0.2615  0.0239
  190MOL   C15634554   3.899   0.271   0.329  0.6810 -0.0543 -0.2822
  190MOL   C15734555   3.725   0.159   0.175  0.5642  0.2770 -0.3053
  190MOL   O15834556   3.700   0.134   0.052 -0.4009 -0.0165 -0.4446
  190MOL   O15934557   3.634   0.187   0.269 -0.0883 -0.0589 -0.4182
  190MOL   H16034558   3.932   0.194   0.146 -0.0958 -1.6502 -1.3281
  190MOL   H16134559   4.004   0.280   0.357  0.2698 -0.3234  1.4315
  190MOL   H16234560   3.880   0.368   0.284 -1.4002 -0.6737 -0.8020
  190MOL   H16334561   3.840   0.264   0.421 -0.7420  0.2528 -1.1560
  190MOL   C16434562   3.493   0.166   0.229 -1.4965 -0.4645 -0.2926
  190MOL   C16534563   3.406   0.240   0.334  0.1593 -0.3790 -0.1045
  190MOL   C16634564   3.468   0.014   0.259 -0.7208 -1.1311 -0.0903
  190MOL   O16734565   3.547   8.082   0.313 -0.5351 -0.1634 -0.2490
  190MOL   O16834566   3.336   8.133   0.233  0.5509  0.1916 -0.4013
  190MOL   H16934567   3.479   0.202   0.127  1.8032 -1.0429 -0.9833
  190MOL   H17034568   3.302   0.257   0.307  0.0736 -1.5206 -0.5529
  190MOL   H17134569   3.417   0.196   0.433  0.6312  1.3652  0.6245
  190MOL   H17234570   3.448   0.337   0.361 -2.0546  0.2309  1.2159
  190MOL   C17334571   3.287   8.006   0.284 -0.7675  0.0751 -1.1866
  190MOL   C17434572   3.203   7.948   0.165  0.1345 -0.6958 -0.0011
  190MOL   C17534573   3.215   8.015   0.422  0.1174  0.2468  0.6710
  190MOL   O17634574   3.093   7.989   0.432  0.3970 -0.6153 -0.6271
  190MOL   O17734575   3.295   8.065   0.515 -0.0775  0.1274 -0.8180
  190MOL   H17834576   3.360   7.935   0.323 -3.1484 -1.4762  0.5044
  190MOL   H17934577   3.263   7.954   0.074  0.0255 -0.6094 -0.0678
  190MOL   H18034578   3.164   7.850   0.193  1.8114 -1.7286 -1.2158
  190MOL   H18134579   3.120   8.015   0.143  1.4912  0.8767 -0.3805
  190MOL   H18234580   3.241   8.062   0.592 -0.3531 -0.3305 -1.0292
  191MOL     C134581   2.097   5.965   1.830 -0.9503  0.0336 -0.3606
  191MOL     C234582   2.088   6.024   1.968 -0.4544 -0.8203 -0.1072
  191MOL     C334583   2.243   5.937   1.793  0.2667 -0.3139 -0.4423
  191MOL     O434584   2.271   5.940   1.676  0.2217  0.0436 -0.3565
  191MOL     O534585   2.321   5.889   1.896  0.2268 -0.1972  0.1707
  191MOL     H634586   2.053   5.867   1.812 -2.7386  0.4670  1.5481
  191MOL     H734587   2.146   6.116   1.971 -0.9384 -0.5709  1.6875
  191MOL     H834588   1.985   6.043   1.996 -0.5277  0.4224 -1.1543
  191MOL     H934589   2.136   5.955   2.038  1.2139  0.5048  0.0896
  191MOL    H1034590   2.068   6.037   1.754 -3.1852 -1.1350 -0.6539
  191MOL    C1134591   2.459   5.837   1.880 -0.4148 -0.3269 -0.6028
  191MOL    C1234592   2.491   5.761   2.014  0.0365  0.5008  0.1363
  191MOL    C1334593   2.556   5.948   1.851 -0.5168 -0.3654  0.6988
  191MOL    O1434594   2.659   5.924   1.792  0.1803  0.2694 -0.0652
  191MOL    O1534595   2.517   6.067   1.909 -0.3367 -0.1122 -0.0540
  191MOL    H1634596   2.462   5.768   1.795  1.9231  0.4143 -1.1507
  191MOL    H1734597   2.519   5.840   2.083  1.4931 -1.4844  1.8458
  191MOL    H1834598   2.400   5.708   2.043  0.7027 -0.2132  0.9465
  191MOL    H1934599   2.577   5.695   2.007  0.7180  1.3690  0.1966
  191MOL    C2034600   2.597   6.185   1.884 -0.5856 -0.2042 -0.7489
  191MOL    C2134601   2.576   6.287   2.001 -0.5134 -0.1503 -0.2029
  191MOL    C2234602   2.587   6.243   1.742 -0.0713 -0.2440 -0.5304
  191MOL    O2334603   2.478   6.260   1.688 -0.0957 -0.1781 -0.1536
  191MOL    O2434604   2.699   6.300   1.699 -0.1481 -0.2570  0.1327
  191MOL    H2534605   2.700   6.158   1.907 -0.1501  1.9461 -0.0075
  191MOL    H2634606   2.481   6.284   2.055 -1.2436  0.4064 -1.4530
  191MOL    H2734607   2.655   6.278   2.077 -0.6799 -1.3435 -0.1588
  191MOL    H2834608   2.581   6.387   1.958 -2.6400 -0.2946 -0.8229
  191MOL    C2934609   2.682   6.407   1.598  0.5560  0.4011  0.2698
  191MOL    C3034610   2.816   6.393   1.513  0.2839  0.9298 -0.2501
  191MOL    C3134611   2.677   6.547   1.675  0.7154 -0.2422 -0.0435
  191MOL    O3234612   2.675   6.563   1.801 -0.0900 -0.4959  0.0172
  191MOL    O3334613   2.683   6.651   1.590  0.2416 -0.0635 -0.1747
  191MOL    H3434614   2.595   6.404   1.532  1.1783  0.7032 -0.5773
  191MOL    H3534615   2.832   6.297   1.463  1.0644  1.1944 -0.5336
  191MOL    H3634616   2.812   6.475   1.441  2.4247  0.1535 -1.3143
  191MOL    H3734617   2.906   6.421   1.568  1.0438 -0.0251 -0.9791
  191MOL    C3834618   2.723   6.779   1.626 -0.2561  0.2793 -0.5256
  191MOL    C3934619   2.716   6.878   1.513 -0.6751 -0.4971  0.7771
  191MOL    C4034620   2.875   6.777   1.664  1.0098 -0.4193  0.5633
  191MOL    O4134621   2.919   6.825   1.768  0.3261  0.0589  0.8422
  191MOL    O4234622   2.948   6.731   1.567 -0.4986 -0.1383  0.3211
  191MOL    H4334623   2.662   6.812   1.710  1.9283  1.4688  0.6454
  191MOL    H4434624   2.726   6.982   1.544  1.9262  0.1242 -1.9269
  191MOL    H4534625   2.783   6.866   1.428 -0.1754  0.1576  1.0685
  191MOL    H4634626   2.613   6.880   1.477 -1.1410 -0.3412  2.1008
  191MOL    C4734627   3.089   6.745   1.563  0.1387 -0.5795  0.5052
  191MOL    C4834628   3.121   6.722   1.415 -0.1740  0.4117 -0.1007
  191MOL    C4934629   3.156   6.633   1.637 -0.2334  0.4784  0.4369
  191MOL    O5034630   3.128   6.516   1.621 -0.4370 -0.4903  0.0547
  191MOL    O5134631   3.248   6.671   1.733  0.4736  0.1155 -0.6624
  191MOL    H5234632   3.130   6.838   1.604 -0.9973  0.5586 -0.9177
  191MOL    H5334633   3.226   6.724   1.389 -0.1325 -2.7145 -0.3658
  191MOL    H5434634   3.080   6.631   1.370 -1.0655  1.7240 -2.0282
  191MOL    H5534635   3.077   6.804   1.358 -1.5365  1.5491  2.5305
  191MOL    C5634636   3.310   6.581   1.831  0.5418 -0.2042 -0.3753
  191MOL    C5734637   3.284   6.648   1.970  0.9198 -0.4500 -0.0497
  191MOL    C5834638   3.456   6.552   1.793 -0.0529 -0.2098  0.0787
  191MOL    O5934639   3.496   6.573   1.675  0.1290  0.4816  0.2732
  191MOL    O6034640   3.541   6.508   1.895 -0.1221  0.2232 -0.3269
  191MOL    H6134641   3.268   6.481   1.829  2.0207 -0.8190 -1.6221
  191MOL    H6234642   3.285   6.756   1.953 -0.3128 -0.7072 -1.8157
  191MOL    H6334643   3.183   6.634   2.009  0.1140 -0.3520 -2.0507
  191MOL    H6434644   3.358   6.616   2.044  2.6962  0.9610 -1.1686
  191MOL    C6534645   3.682   6.504   1.869 -0.3420  0.1837 -0.0460
  191MOL    C6634646   3.764   6.412   1.969 -0.7341 -0.1189 -0.2175
  191MOL    C6734647   3.740   6.648   1.871 -0.4105 -0.2741  0.3177
  191MOL    O6834648   3.677   6.752   1.891 -0.5150  0.2896 -0.1379
  191MOL    O6934649   3.865   6.652   1.842 -0.3787 -0.2228 -0.0124
  191MOL    H7034650   3.692   6.459   1.770 -0.3766 -0.7173  0.3590
  191MOL    H7134651   3.868   6.410   1.936 -0.8429  1.6324 -0.6897
  191MOL    H7234652   3.756   6.431   2.076 -0.4294 -1.1770  0.0063
  191MOL    H7334653   3.743   6.305   1.962  1.8607 -0.7244  0.7642
  191MOL    C7434654   3.948   6.770   1.848 -0.1461  0.2615  0.1725
  191MOL    C7534655   4.079   6.724   1.775  0.2295  0.4797 -0.2163
  191MOL    C7634656   3.972   6.803   1.993  0.6238  0.0411 -0.4985
  191MOL    O7734657   3.957   6.919   2.034 -0.2607  0.2917  0.0905
  191MOL    O7834658   4.020   6.698   2.063 -0.4217 -0.1096  0.2701
  191MOL    H7934659   3.903   6.859   1.804 -1.5176  0.4915  1.9684
  191MOL    H8034660   4.160   6.795   1.791 -1.0078  1.5698  1.4668
  191MOL    H8134661   4.112   6.630   1.819 -0.0371 -0.5765 -2.2573
  191MOL    H8234662   4.068   6.706   1.669  1.9640  3.3078 -0.9357
  191MOL    C8334663   4.034   6.694   2.205 -0.2858  0.0585  0.1164
  191MOL    C8434664   4.119   6.573   2.235  0.1389 -0.3811  0.0797
  191MOL    C8534665   3.904   6.693   2.285  0.7007  0.2571  0.2934
  191MOL    O8634666   3.790   6.677   2.232 -0.0468  0.0917  0.1228
  191MOL    O8734667   3.917   6.710   2.418 -0.3522 -0.1457  0.1129
  191MOL    H8834668   4.088   6.784   2.233 -1.3043  1.2455 -1.6321
  191MOL    H8934669   4.150   6.572   2.339  1.7366 -1.2403 -0.3790
  191MOL    H9034670   4.079   6.479   2.198  0.8245 -0.3804 -0.7118
  191MOL    H9134671   4.210   6.594   2.178 -0.1136 -2.3966 -1.1437
  191MOL    C9234672   3.805   6.727   2.507  0.1965  0.1387 -0.4390
  191MOL    C9334673   3.851   6.780   2.643 -0.7253  0.2214  0.3746
  191MOL    C9434674   3.723   6.589   2.516  0.4355  0.6431 -0.4371
  191MOL    O9534675   3.620   6.561   2.454  0.0807  0.0939 -0.2562
  191MOL    O9634676   3.772   6.504   2.605  0.1437 -0.0596  0.2622
  191MOL    H9734677   3.746   6.805   2.458 -0.8997 -1.1858 -1.2764
  191MOL    H9834678   3.771   6.777   2.717 -0.8381  0.8820  0.2823
  191MOL    H9934679   3.940   6.736   2.689 -0.8603 -0.2496  0.1884
  191MOL   H10034680   3.873   6.886   2.627 -2.1766  0.4015 -0.4544
  191MOL   C10134681   3.702   6.387   2.650  0.1424  0.0685  0.4202
  191MOL   C10234682   3.764   6.363   2.794  0.3427 -0.3358  0.1151
  191MOL   C10334683   3.716   6.275   2.555  0.1119 -0.6392 -0.2850
  191MOL   O10434684   3.627   6.194   2.543  0.2747 -0.0189 -0.0525
  191MOL   O10534685   3.840   6.263   2.502 -0.1231  0.3674  0.0093
  191MOL   H10634686   3.599   6.412   2.678 -0.0643 -0.8681  0.4961
  191MOL   H10734687   3.870   6.338   2.788  0.4674 -0.3218  2.0486
  191MOL   H10834688   3.747   6.455   2.849 -2.6996 -0.8028  0.0637
  191MOL   H10934689   3.720   6.281   2.851  0.4457 -0.6558 -0.2643
  191MOL   C11034690   3.891   6.150   2.437  0.3252 -0.1253  0.2603
  191MOL   C11134691   4.036   6.130   2.454  0.0064 -0.1704  0.1747
  191MOL   C11234692   3.851   6.158   2.290  0.1060 -0.0947 -0.7500
  191MOL   O11334693   3.848   6.264   2.228  0.9410 -0.4177 -0.2668
  191MOL   O11434694   3.840   6.040   2.232  0.6456 -0.0646  0.3557
  191MOL   H11534695   3.830   6.074   2.486 -2.6472  2.1563  0.2547
  191MOL   H11634696   4.068   6.030   2.425 -1.0258 -0.5847  0.4587
  191MOL   H11734697   4.091   6.201   2.391 -2.6061  1.4168 -0.3888
  191MOL   H11834698   4.073   6.138   2.556  2.3482  3.8061 -0.8639
  191MOL   C11934699   3.830   6.039   2.091  0.5394 -0.1312  0.0504
  191MOL   C12034700   3.814   5.897   2.036  0.2500 -0.1354  0.0159
  191MOL   C12134701   3.958   6.097   2.017  0.3009  0.0708  0.4155
  191MOL   O12234702   3.945   6.172   1.924 -0.2241  0.1894 -0.5666
  191MOL   O12334703   4.072   6.051   2.070 -0.5341  0.3621 -0.0884
  191MOL   H12434704   3.745   6.097   2.055 -0.5377 -2.5421 -1.4450
  191MOL   H12534705   3.725   5.863   2.088  0.4520  0.0981  0.5263
  191MOL   H12634706   3.786   5.902   1.931 -1.8792  1.7384  0.6403
  191MOL   H12734707   3.899   5.840   2.074 -0.1937  0.2959  1.7342
  191MOL   C12834708   4.200   6.096   2.024 -0.0495 -0.7715  0.6174
  191MOL   C12934709   4.231   6.243   2.067  0.5124  0.1138 -0.1429
  191MOL   C13034710   4.233   6.056   1.881  0.5377  0.5047 -0.1750
  191MOL   O13134711   4.302   6.127   1.812 -0.1149  0.4153 -0.6052
  191MOL   O13234712   4.168   5.946   1.845  0.2255  0.5930 -0.6738
  191MOL   H13334713   4.267   6.030   2.080  1.3409  1.2819  1.4349
  191MOL   H13434714   4.322   6.277   2.017  0.4866 -0.7533 -0.7858
  191MOL   H13534715   4.156   6.311   2.026  1.3111  0.2135 -1.4466
  191MOL   H13634716   4.237   6.265   2.173  0.6168 -3.9788  0.7819
  191MOL   C13734717   4.163   5.907   1.711  0.3707  0.4300  0.5470
  191MOL   C13834718   4.037   5.824   1.712  0.3659  0.2331  0.0045
  191MOL   C13934719   4.293   5.833   1.666 -1.1131  0.8175  0.1219
  191MOL   O14034720   4.383   5.885   1.605 -0.0399  0.4371  0.2367
  191MOL   O14134721   4.305   5.708   1.716 -0.2187  0.1712 -0.4695
  191MOL   H14234722   4.141   5.991   1.645  0.0590 -1.6231 -2.0576
  191MOL   H14334723   4.049   5.756   1.796  1.8072  1.4818  0.8386
  191MOL   H14434724   3.955   5.896   1.716 -0.1919 -0.4098  0.1595
  191MOL   H14534725   4.042   5.758   1.625 -2.3413 -0.2495  0.1724
  191MOL   C14634726   4.427   5.644   1.724 -0.5306  0.2836 -0.5457
  191MOL   C14734727   4.392   5.500   1.691  0.3461 -0.0166 -0.2892
  191MOL   C14834728   4.498   5.661   1.857  0.2631  0.1472 -0.0036
  191MOL   O14934729   4.475   5.753   1.929 -0.0184  0.4377  0.2575
  191MOL   O15034730   4.587   5.566   1.881  0.1752  0.4485 -0.2111
  191MOL   H15134731   4.508   5.676   1.658  0.5443  0.0490  0.6252
  191MOL   H15234732   4.477   5.433   1.706 -0.5961 -0.9723  0.8585
  191MOL   H15334733   4.304   5.461   1.742 -0.7778  1.0493 -1.3791
  191MOL   H15434734   4.370   5.493   1.584 -0.5638 -2.1926  0.0069
  191MOL   C15534735   4.676   5.583   1.993  0.0605  0.3501  0.3437
  191MOL   C15634736   4.793   5.687   1.965  0.0670 -0.0643 -0.1062
  191MOL   C15734737   4.730   5.438   2.024  0.0125  0.9267 -0.1381
  191MOL   O15834738   4.663   5.371   2.101  0.9873 -0.4712  0.1094
  191MOL   O15934739   4.853   5.417   1.974 -0.2259  0.0618 -0.4164
  191MOL   H16034740   4.612   5.611   2.077 -0.0455 -2.0389  1.0891
  191MOL   H16134741   4.881   5.671   2.028  0.5469 -0.0074 -0.7596
  191MOL   H16234742   4.838   5.681   1.866  0.5877 -0.3096  0.1446
  191MOL   H16334743   4.767   5.790   1.986  1.1804 -0.0922  1.4971
  191MOL   C16434744   4.922   5.299   2.000  0.1031 -0.4326  0.7219
  191MOL   C16534745   4.878   5.173   1.926 -0.0151 -1.1205  0.3522
  191MOL   C16634746   4.954   5.276   2.152  0.1174 -0.0824  0.1405
  191MOL   O16734747   4.906   5.174   2.209 -0.6144  0.5414 -0.5951
  191MOL   O16834748   5.029   5.374   2.205  0.1850 -0.0501  0.1366
  191MOL   H16934749   5.021   5.309   1.956 -1.2808 -0.8275 -2.5728
  191MOL   H17034750   4.911   5.159   1.823 -0.2895 -1.3682  0.2966
  191MOL   H17134751   4.917   5.083   1.974  1.2352 -0.9055 -0.2456
  191MOL   H17234752   4.769   5.167   1.921 -0.1398  1.4747 -0.3507
  191MOL   C17334753   5.048   5.366   2.348 -0.3233 -0.1219 -0.5936
  191MOL   C17434754   5.070   5.510   2.411  0.1473  0.0182  0.0426
  191MOL   C17534755   5.154   5.270   2.389  0.2342 -0.1781  0.5009
  191MOL   O17634756   5.230   5.219   2.312 -0.8621 -0.6821 -0.6430
  191MOL   O17734757   5.157   5.260   2.526 -0.2581  0.2301  0.3925
  191MOL   H17834758   4.955   5.334   2.396  0.5722  1.3261  2.1933
  191MOL   H17934759   5.159   5.558   2.370 -2.2211  2.6271 -2.3016
  191MOL   H18034760   4.987   5.581   2.399 -0.1981 -0.2036  1.0362
  191MOL   H18134761   5.082   5.502   2.519  1.4808  2.5175  0.1102
  191MOL   H18234762   5.219   5.193   2.552 -0.7238 -2.1051 -3.9625
  192MOL     C134763   4.340   5.132   5.592 -0.6748  0.1637 -0.8984
  192MOL     C234764   4.373   5.263   5.518  0.3561 -0.4331  1.3941
  192MOL     C334765   4.452   5.031   5.567 -0.5487 -0.3211  0.2295
  192MOL     O434766   4.506   5.021   5.459  0.3855 -0.0559  0.2383
  192MOL     O534767   4.470   4.954   5.677 -0.3092  0.2443  0.1224
  192MOL     H634768   4.329   5.132   5.701 -0.8443 -3.8874 -0.8568
  192MOL     H734769   4.416   5.257   5.418 -0.5443  0.1418  0.9731
  192MOL     H834770   4.285   5.324   5.502 -0.4851 -1.9768 -0.0485
  192MOL     H934771   4.443   5.322   5.578 -1.2523  1.1243  1.7525
  192MOL    H1034772   4.252   5.084   5.549 -0.6721  1.6331 -2.6162
  192MOL    C1134773   4.565   4.851   5.672  0.0213  0.0975 -0.1344
  192MOL    C1234774   4.539   4.768   5.794  0.8495  0.7983 -0.3331
  192MOL    C1334775   4.712   4.900   5.671 -1.0767  0.2539  0.0964
  192MOL    O1434776   4.750   5.019   5.652  0.3570 -0.3120 -0.0398
  192MOL    O1534777   4.804   4.803   5.704 -0.9506  0.2424 -0.1709
  192MOL    H1634778   4.551   4.801   5.577 -0.1757  2.0635 -1.1829
  192MOL    H1734779   4.433   4.743   5.797  0.4465  2.3354 -1.2949
  192MOL    H1834780   4.607   4.684   5.804 -1.5184 -1.1158  0.3647
  192MOL    H1934781   4.556   4.813   5.892  0.5875 -0.6975  0.4298
  192MOL    C2034782   4.942   4.829   5.737  0.5839  0.6441 -0.3634
  192MOL    C2134783   5.006   4.693   5.752 -0.8169 -0.1791  0.0952
  192MOL    C2234784   4.951   4.900   5.873  0.2720 -0.3472 -0.2517
  192MOL    O2334785   4.867   4.893   5.963 -0.5283  0.2032 -0.4252
  192MOL    O2434786   5.055   4.977   5.879 -0.4011  0.0021 -0.0563
  192MOL    H2534787   4.985   4.886   5.654  2.8513 -3.1684 -1.9504
  192MOL    H2634788   5.021   4.656   5.650 -0.5028  0.0928  0.0409
  192MOL    H2734789   5.101   4.699   5.806 -0.8518 -1.0285  0.2537
  192MOL    H2834790   4.939   4.626   5.804  1.5189 -1.4822  1.5076
  192MOL    C2934791   5.092   5.036   6.003  0.1554  0.1713 -0.7735
  192MOL    C3034792   5.178   5.148   5.960  0.3310  0.5253  1.0505
  192MOL    C3134793   5.166   4.939   6.093 -0.2219 -0.4733 -0.0586
  192MOL    O3234794   5.147   4.936   6.217 -0.1238 -0.2450 -0.2620
  192MOL    O3334795   5.256   4.867   6.029 -0.0518  0.1507  0.1657
  192MOL    H3434796   5.009   5.074   6.064  2.7552  3.7264  0.7384
  192MOL    H3534797   5.123   5.198   5.880 -0.7236 -0.3882  1.1976
  192MOL    H3634798   5.195   5.216   6.043  0.3704 -0.5041  1.9018
  192MOL    H3734799   5.261   5.110   5.901  0.9903 -0.7027  2.7186
  192MOL    C3834800   5.373   4.819   6.099 -0.2269  0.5538 -0.5695
  192MOL    C3934801   5.498   4.828   6.006 -0.1474  1.0500 -0.0243
  192MOL    C4034802   5.349   4.675   6.146 -0.6611 -0.0589  0.0673
  192MOL    O4134803   5.390   4.639   6.257 -0.0359 -0.1053  0.5149
  192MOL    O4234804   5.311   4.596   6.041 -0.7760 -0.6664  0.0812
  192MOL    H4334805   5.393   4.878   6.188  2.1462 -1.6914  0.4631
  192MOL    H4434806   5.586   4.786   6.057  0.4563  2.8481  0.4448
  192MOL    H4534807   5.488   4.768   5.915  0.9665 -0.6934  0.9518
  192MOL    H4634808   5.518   4.932   5.983 -0.4437  0.7433 -1.7661
  192MOL    C4734809   5.284   4.456   6.065  0.3269  0.3537 -0.0982
  192MOL    C4834810   5.272   4.390   5.926  0.5331 -0.1683 -0.1764
  192MOL    C4934811   5.156   4.439   6.147 -0.4027 -0.0841 -0.0730
  192MOL    O5034812   5.138   4.331   6.210  0.1362  0.1049 -0.2439
  192MOL    O5134813   5.068   4.536   6.129 -0.2990  0.6519  0.4669
  192MOL    H5234814   5.367   4.404   6.113 -0.8465  0.4485  2.1359
  192MOL    H5334815   5.370   4.379   5.881  1.2885 -1.9430  1.7991
  192MOL    H5434816   5.222   4.293   5.926 -3.7450  1.9060  0.9408
  192MOL    H5534817   5.207   4.453   5.866 -1.1652 -2.7641 -1.1876
  192MOL    C5634818   4.942   4.539   6.200  0.1066  0.0003  0.0094
  192MOL    C5734819   4.867   4.666   6.157  0.4881  0.0379 -0.5877
  192MOL    C5834820   4.971   4.533   6.356  0.8142  0.2172 -0.1767
  192MOL    O5934821   4.921   4.455   6.428 -0.1652  0.5102  0.2805
  192MOL    O6034822   5.053   4.637   6.400 -0.0737  0.0836 -0.6849
  192MOL    H6134823   4.877   4.455   6.176  0.7590 -0.3342 -0.6054
  192MOL    H6234824   4.866   4.657   6.048 -0.4462  0.7956 -0.6516
  192MOL    H6334825   4.765   4.663   6.195  0.8420 -0.1060  0.3532
  192MOL    H6434826   4.917   4.757   6.191  0.2570 -0.1402  0.2422
  192MOL    C6534827   5.072   4.660   6.540 -0.0332 -0.8357 -0.6198
  192MOL    C6634828   5.117   4.802   6.574  0.4103 -0.0664 -0.5998
  192MOL    C6734829   5.181   4.569   6.597  0.4804  0.9271 -0.3851
  192MOL    O6834830   5.268   4.512   6.527 -0.3420 -0.3319  0.0877
  192MOL    O6934831   5.161   4.555   6.731 -0.5150 -1.2355  0.1557
  192MOL    H7034832   4.985   4.630   6.598  0.4148 -1.2895 -0.1798
  192MOL    H7134833   5.142   4.808   6.680  1.3413 -1.2641 -0.7533
  192MOL    H7234834   5.197   4.847   6.516 -0.5160  1.9666 -0.3460
  192MOL    H7334835   5.033   4.871   6.558  1.4799  1.2308 -0.7286
  192MOL    C7434836   5.238   4.468   6.808  0.4566 -0.7285  0.3503
  192MOL    C7534837   5.183   4.329   6.815 -0.9846 -0.0660  0.0770
  192MOL    C7634838   5.267   4.536   6.943  0.1521  0.2784 -0.1697
  192MOL    O7734839   5.353   4.618   6.952  0.2363 -0.2475 -0.3157
  192MOL    O7834840   5.172   4.502   7.033  0.2881  0.7478 -0.1255
  192MOL    H7934841   5.340   4.459   6.770  0.2309 -0.1419 -0.3958
  192MOL    H8034842   5.178   4.288   6.714  1.2068  2.6035 -1.1723
  192MOL    H8134843   5.243   4.265   6.880 -1.9364 -0.9387  0.1106
  192MOL    H8234844   5.085   4.322   6.862 -0.3508  1.8429  1.7311
  192MOL    C8334845   5.180   4.549   7.168 -0.4402  0.1384 -0.1154
  192MOL    C8434846   5.144   4.700   7.165  0.6638  0.1141 -0.8169
  192MOL    C8534847   5.313   4.507   7.241  0.2935 -0.0489  0.4554
  192MOL    O8634848   5.392   4.429   7.188 -0.0549  0.1261 -0.4397
  192MOL    O8734849   5.320   4.548   7.369  0.0709  0.1472 -0.0414
  192MOL    H8834850   5.092   4.508   7.219 -0.7710  1.5650  0.4676
  192MOL    H8934851   5.076   4.722   7.082  1.3044  0.5104 -1.2465
  192MOL    H9034852   5.100   4.717   7.263  2.7502  1.2037 -0.0398
  192MOL    H9134853   5.229   4.768   7.152 -0.1737  0.9637 -1.9605
  192MOL    C9234854   5.394   4.481   7.470 -0.2721 -0.5922  0.1387
  192MOL    C9334855   5.543   4.507   7.454 -0.2071 -0.5995 -0.4993
  192MOL    C9434856   5.336   4.340   7.486 -0.2863 -0.0979 -0.5593
  192MOL    O9534857   5.220   4.308   7.446 -0.0702 -0.0371 -0.3986
  192MOL    O9634858   5.425   4.258   7.540  0.4701 -0.1582 -0.0465
  192MOL    H9734859   5.375   4.520   7.570  1.4740  2.3756 -0.6276
  192MOL    H9834860   5.569   4.504   7.348 -1.6398  1.1251 -0.9237
  192MOL    H9934861   5.574   4.603   7.493  1.0192 -0.4812 -1.7213
  192MOL   H10034862   5.607   4.437   7.509 -0.2228  0.4477  0.8551
  192MOL   C10134863   5.388   4.119   7.553  0.1050 -0.0584 -0.1994
  192MOL   C10234864   5.490   4.061   7.655 -0.3428 -0.3537  0.8015
  192MOL   C10334865   5.396   4.053   7.420  0.3110 -0.0527 -0.4175
  192MOL   O10434866   5.334   3.946   7.400 -0.2331  0.3712  0.0368
  192MOL   O10534867   5.491   4.098   7.333 -0.6885 -0.1464  0.3454
  192MOL   H10634868   5.284   4.108   7.583  0.1063 -1.0900 -0.5581
  192MOL   H10734869   5.469   4.101   7.754  1.0971  2.5756 -0.0168
  192MOL   H10834870   5.483   3.952   7.657  2.4667 -0.5637  1.3194
  192MOL   H10934871   5.595   4.078   7.630 -0.8032  0.1329 -0.8423
  192MOL   C11034872   5.509   4.030   7.209  0.4288 -0.3345 -0.5443
  192MOL   C11134873   5.399   4.075   7.111  0.0224 -0.5351 -0.0718
  192MOL   C11234874   5.530   3.877   7.220  0.2512  0.3652 -0.2546
  192MOL   O11334875   5.487   3.798   7.140  0.3006  0.5395 -0.4365
  192MOL   O11434876   5.620   3.849   7.318  0.2390  0.2861  0.4601
  192MOL   H11534877   5.607   4.059   7.171  0.0448  0.0193 -1.2698
  192MOL   H11634878   5.394   4.180   7.083 -1.8018 -1.1559 -2.1754
  192MOL   H11734879   5.383   4.012   7.023  2.2838 -2.0567  0.5352
  192MOL   H11834880   5.298   4.058   7.147 -0.6509 -0.2818 -1.7925
  192MOL   C11934881   5.672   3.718   7.357  0.1399 -0.2126  0.5474
  192MOL   C12034882   5.770   3.754   7.475  1.0960 -0.2242  0.4061
  192MOL   C12134883   5.748   3.653   7.229  0.3017  0.5976 -0.5351
  192MOL   O12234884   5.775   3.712   7.122 -0.3325  0.5069  0.0848
  192MOL   O12334885   5.784   3.528   7.260 -0.1190  0.3132  0.3190
  192MOL   H12434886   5.592   3.651   7.386  0.3516 -0.2768  0.9809
  192MOL   H12534887   5.862   3.796   7.435  0.1177  0.1348 -1.5095
  192MOL   H12634888   5.734   3.842   7.529  0.6717  0.8931 -1.6205
  192MOL   H12734889   5.796   3.660   7.524 -0.1321 -0.8898 -0.1933
  192MOL   C12834890   5.833   3.437   7.157  0.8014 -0.3945 -0.1465
  192MOL   C12934891   5.978   3.485   7.119  0.4453  0.3533  0.8949
  192MOL   C13034892   5.737   3.422   7.034  0.0174  0.8875  0.9072
  192MOL   O13134893   5.633   3.359   7.043 -0.8230  0.4015  0.7090
  192MOL   O13234894   5.780   3.487   6.923 -0.0012  0.5202  0.2755
  192MOL   H13334895   5.832   3.340   7.207 -0.7654 -0.3599 -0.0795
  192MOL   H13434896   6.045   3.518   7.198  0.4448  1.5286  0.4128
  192MOL   H13534897   6.026   3.411   7.054 -0.3822  0.0939  0.5767
  192MOL   H13634898   5.962   3.576   7.061  1.3028  0.8588  1.4435
  192MOL   C13734899   5.738   3.465   6.781  0.5031  0.5086 -0.0190
  192MOL   C13834900   5.605   3.545   6.768  0.3669  0.0473  0.0320
  192MOL   C13934901   5.726   3.325   6.727 -0.2529 -0.2774 -0.3126
  192MOL   O14034902   5.759   3.224   6.791 -0.2086 -0.1154  0.2168
  192MOL   O14134903   5.677   3.322   6.604 -0.0336 -0.4541 -0.2409
  192MOL   H14234904   5.812   3.521   6.723  0.8561  1.1898  1.0888
  192MOL   H14334905   5.539   3.493   6.838  0.9072 -0.9409 -0.1770
  192MOL   H14434906   5.628   3.649   6.788 -0.1021  0.2639 -0.5529
  192MOL   H14534907   5.560   3.534   6.669 -0.3588 -1.6529  0.5304
  192MOL   C14634908   5.647   3.205   6.540 -0.2689  0.0838 -0.2748
  192MOL   C14734909   5.687   3.223   6.393  0.5076 -0.2806  1.0868
  192MOL   C14834910   5.498   3.169   6.556  0.3226 -0.0665 -0.4097
  192MOL   O14934911   5.421   3.245   6.605 -0.1383  0.3701 -0.2967
  192MOL   O15034912   5.471   3.042   6.518  0.3477  0.4166  0.7884
  192MOL   H15134913   5.699   3.116   6.575 -1.4645 -0.8087 -0.7173
  192MOL   H15234914   5.652   3.308   6.335 -0.8252 -0.7827  1.1404
  192MOL   H15334915   5.796   3.231   6.393  0.7041 -2.5370 -0.7711
  192MOL   H15434916   5.664   3.139   6.327  3.2348  0.8589 -1.4401
  192MOL   C15534917   5.339   2.984   6.527  0.1553 -0.7586 -0.1626
  192MOL   C15634918   5.315   2.920   6.665 -0.6203 -0.3572  0.1558
  192MOL   C15734919   5.328   2.881   6.412 -0.2548 -0.1051 -0.3203
  192MOL   O15834920   5.429   2.856   6.339 -0.0237 -0.1500 -0.2930
  192MOL   O15934921   5.198   2.843   6.401  0.5075 -0.1564 -0.0173
  192MOL   H16034922   5.263   3.059   6.507  0.8407 -0.1696 -0.6159
  192MOL   H16134923   5.336   2.998   6.737  0.1903 -0.9153  0.5328
  192MOL   H16234924   5.211   2.890   6.673 -0.2205 -1.2092  2.4169
  192MOL   H16334925   5.385   2.837   6.674  0.8701  0.8361 -0.1225
  192MOL   C16434926   5.154   2.767   6.290  0.5046  0.2204 -0.1741
  192MOL   C16534927   5.147   2.850   6.160  0.1568  0.0864 -0.0525
  192MOL   C16634928   5.010   2.719   6.323 -0.3403 -0.2672  0.2543
  192MOL   O16734929   4.964   2.747   6.433  0.3276  0.2257  0.3870
  192MOL   O16834930   4.945   2.638   6.232 -0.7769  0.0541  0.2637
  192MOL   H16934931   5.219   2.681   6.274  0.5622  0.6633 -2.5911
  192MOL   H17034932   5.251   2.861   6.127  1.0998  0.8468  2.9439
  192MOL   H17134933   5.093   2.810   6.075  1.2239  2.2383 -1.7841
  192MOL   H17234934   5.121   2.954   6.179  0.1595 -0.1148  1.0940
  192MOL   C17334935   4.809   2.588   6.256 -0.5411 -0.0028 -0.8677
  192MOL   C17434936   4.775   2.470   6.164  0.5319 -0.0989  0.4168
  192MOL   C17534937   4.697   2.693   6.256 -0.5524  0.0601 -0.3349
  192MOL   O17634938   4.596   2.691   6.187  0.2213 -0.3493  0.4716
  192MOL   O17734939   4.717   2.786   6.354  0.2028 -0.1400 -0.3437
  192MOL   H17834940   4.807   2.539   6.353 -2.5366 -0.9786 -1.3862
  192MOL   H17934941   4.764   2.502   6.061  3.8483 -0.0088  0.0520
  192MOL   H18034942   4.854   2.395   6.165  0.4636 -0.2348 -2.3710
  192MOL   H18134943   4.680   2.425   6.194  0.1306  0.3910 -0.1172
  192MOL   H18234944   4.799   2.783   6.401 -0.7892 -0.9941  1.3857
  193MOL     C134945   6.734   6.946   6.281  0.7233  0.0659 -0.1737
  193MOL     C234946   6.839   6.867   6.347 -0.5945 -0.5301 -0.9135
  193MOL     C334947   6.601   6.893   6.318 -0.1197  0.4376 -0.4391
  193MOL     O434948   6.528   6.949   6.402 -0.2171  0.1212  0.4232
  193MOL     O534949   6.582   6.771   6.264  0.2693  0.3110 -0.2653
  193MOL     H634950   6.741   7.047   6.321 -2.0599 -0.8837  2.9212
  193MOL     H734951   6.856   6.772   6.297  0.3095 -1.0734  0.3866
  193MOL     H834952   6.928   6.929   6.352  0.4788 -1.9537 -1.8587
  193MOL     H934953   6.804   6.845   6.448 -2.3414  0.5506 -1.2608
  193MOL    H1034954   6.741   6.939   6.172 -0.1515 -3.4847 -0.0454
  193MOL    C1134955   6.452   6.704   6.279  1.0421  0.0015 -0.4386
  193MOL    C1234956   6.498   6.562   6.251  0.4021 -0.5385 -0.1423
  193MOL    C1334957   6.336   6.739   6.177 -0.2704  0.8637 -0.6008
  193MOL    O1434958   6.217   6.753   6.210  0.6045  0.0969  1.0534
  193MOL    O1534959   6.380   6.746   6.055  0.0079 -0.2008  0.5470
  193MOL    H1634960   6.416   6.714   6.381 -0.2078 -1.4962 -0.7214
  193MOL    H1734961   6.411   6.498   6.265  1.0627 -1.4743 -0.2882
  193MOL    H1834962   6.536   6.560   6.149  2.3703 -3.1312  0.6018
  193MOL    H1934963   6.577   6.526   6.317  0.6199 -1.6903 -1.0163
  193MOL    C2034964   6.302   6.787   5.944  0.1136  0.6373  0.0559
  193MOL    C2134965   6.387   6.763   5.818 -0.4068  0.3392  0.0516
  193MOL    C2234966   6.252   6.931   5.962 -0.4313  0.5546  1.0071
  193MOL    O2334967   6.128   6.955   5.968  0.1387 -0.0758 -0.2628
  193MOL    O2434968   6.360   7.026   5.959 -0.2614  0.0726 -0.7945
  193MOL    H2534969   6.216   6.722   5.931 -0.0146  0.6975  0.5742
  193MOL    H2634970   6.349   6.816   5.731 -1.5108 -1.0937 -0.3753
  193MOL    H2734971   6.488   6.798   5.838 -0.5670  1.5877 -1.2416
  193MOL    H2834972   6.389   6.657   5.794 -0.0512 -0.1836  2.2374
  193MOL    C2934973   6.321   7.157   5.995 -0.3007 -0.1973  0.0976
  193MOL    C3034974   6.407   7.259   5.907 -0.2261  0.2088  0.3723
  193MOL    C3134975   6.338   7.182   6.149 -0.1638  0.2572 -0.1836
  193MOL    O3234976   6.413   7.263   6.199 -0.2132  0.0572  0.7075
  193MOL    O3334977   6.253   7.108   6.227  0.6719  0.0942 -0.3351
  193MOL    H3434978   6.216   7.179   5.974 -0.7003 -1.1914  1.0363
  193MOL    H3534979   6.366   7.358   5.892  1.3006  0.7179 -0.6106
  193MOL    H3634980   6.508   7.268   5.947  0.9127  2.6145 -2.7829
  193MOL    H3734981   6.420   7.210   5.810 -3.0252  0.7193 -0.2980
  193MOL    C3834982   6.234   7.148   6.362  0.5698 -0.2500  0.2610
  193MOL    C3934983   6.152   7.038   6.440  0.6461 -0.4234  0.9452
  193MOL    C4034984   6.148   7.275   6.360  0.0873 -0.5594  0.4351
  193MOL    O4134985   6.087   7.317   6.253 -0.3523  0.0007 -0.0724
  193MOL    O4234986   6.142   7.325   6.487  0.0896  0.2472  0.1221
  193MOL    H4334987   6.320   7.164   6.427  0.2809  0.6042  0.4473
  193MOL    H4434988   6.077   6.983   6.383  0.9920 -2.6786  2.5865
  193MOL    H4534989   6.225   6.961   6.467  1.1634  0.0918  1.0494
  193MOL    H4634990   6.112   7.069   6.536 -2.0827  1.8314 -0.8538
  193MOL    C4734991   6.044   7.419   6.527 -0.1756  0.4485  0.5254
  193MOL    C4834992   6.102   7.491   6.654 -0.8528 -0.2461  0.9245
  193MOL    C4934993   5.910   7.355   6.552  0.2077 -0.0543 -0.3252
  193MOL    O5034994   5.898   7.235   6.560 -0.1110  0.5294 -0.7846
  193MOL    O5134995   5.806   7.442   6.572  0.0693 -0.3796 -0.1951
  193MOL    H5234996   6.024   7.495   6.451 -0.1865  0.1833  0.2627
  193MOL    H5334997   6.134   7.425   6.735 -1.7142 -2.5547 -0.5719
  193MOL    H5434998   6.194   7.542   6.627 -0.6712 -1.3691 -0.6126
  193MOL    H5534999   6.037   7.561   6.708 -1.9504 -0.8413  0.3951
  193MOL    C5635000   5.685   7.399   6.643  0.7484  0.2806 -0.2914
  193MOL    C5735001   5.561   7.488   6.604  0.2859 -0.3594 -0.0748
  193MOL    C5835002   5.723   7.402   6.790  0.0957 -0.1707 -0.7241
  193MOL    O5935003   5.837   7.383   6.829  0.3269 -0.4087 -0.1707
  193MOL    O6035004   5.616   7.414   6.877 -0.1827  0.1522  0.1843
  193MOL    H6135005   5.668   7.295   6.617 -0.9465  0.6499 -0.6987
  193MOL    H6235006   5.537   7.482   6.498  0.4139 -0.0157 -0.1252
  193MOL    H6335007   5.470   7.453   6.653 -0.1279  0.2087 -0.4352
  193MOL    H6435008   5.586   7.592   6.625 -1.2344 -0.2784  1.3761
  193MOL    C6535009   5.637   7.431   7.020  0.3500  0.3540  0.4082
  193MOL    C6635010   5.508   7.384   7.087  0.0306 -0.8989 -0.0474
  193MOL    C6735011   5.673   7.577   7.059 -0.2916 -0.5623  0.8487
  193MOL    O6835012   5.631   7.676   6.999 -0.4271 -0.0087 -0.0823
  193MOL    O6935013   5.748   7.575   7.160 -0.0729  0.2195  0.3338
  193MOL    H7035014   5.709   7.359   7.058  0.2808  0.9820  1.7810
  193MOL    H7135015   5.424   7.449   7.066  1.2983  0.5998 -0.5836
  193MOL    H7235016   5.474   7.282   7.067 -2.5058 -0.3270  1.1828
  193MOL    H7335017   5.521   7.384   7.195 -1.8343 -2.3060  0.2052
  193MOL    C7435018   5.780   7.683   7.246 -0.5075 -0.3591 -0.2001
  193MOL    C7535019   5.918   7.737   7.199  0.2254  0.4426  0.7482
  193MOL    C7635020   5.756   7.644   7.388 -0.3858  0.5408  0.1827
  193MOL    O7735021   5.856   7.627   7.464  0.2982  0.3324  0.1165
  193MOL    O7835022   5.624   7.630   7.412 -0.4960  0.3985 -0.6407
  193MOL    H7935023   5.710   7.765   7.228 -0.8136 -1.2721 -3.6897
  193MOL    H8035024   5.959   7.806   7.273  1.4347  1.0358 -0.4541
  193MOL    H8135025   5.988   7.656   7.178 -0.9371 -0.5387  0.5703
  193MOL    H8235026   5.916   7.793   7.106  2.1088 -0.4558  0.1304
  193MOL    C8335027   5.595   7.567   7.543 -0.6956 -0.1439 -0.3466
  193MOL    C8435028   5.575   7.415   7.523  0.1752  0.7363 -0.0078
  193MOL    C8535029   5.469   7.627   7.601  0.6460  0.4183 -0.1793
  193MOL    O8635030   5.354   7.609   7.556  0.0827 -0.7692  0.1137
  193MOL    O8735031   5.497   7.707   7.711  0.4463  0.0267  0.4828
  193MOL    H8835032   5.673   7.576   7.618 -0.9522  0.1325 -0.1089
  193MOL    H8935033   5.658   7.358   7.484 -0.1022 -1.2224  2.1852
  193MOL    H9035034   5.526   7.367   7.608 -0.4569  0.4005 -0.5505
  193MOL    H9135035   5.498   7.405   7.446 -0.7718  1.7174  0.7885
  193MOL    C9235036   5.395   7.740   7.801  0.3953 -0.0159  0.3304
  193MOL    C9335037   5.424   7.868   7.885 -0.7268  0.4836  0.0080
  193MOL    C9435038   5.368   7.621   7.898  0.1424  0.0378  0.8108
  193MOL    O9535039   5.251   7.589   7.930 -0.1556  0.0024 -0.2825
  193MOL    O9635040   5.472   7.559   7.936 -0.3284 -0.3164  0.0197
  193MOL    H9735041   5.302   7.766   7.750  0.9463  0.1328 -0.6143
  193MOL    H9835042   5.531   7.885   7.898 -1.1277  0.8522  3.2212
  193MOL    H9935043   5.383   7.962   7.847 -0.2927  1.0131  0.8478
  193MOL   H10035044   5.393   7.856   7.989  0.4823 -2.9254  0.0404
  193MOL   C10135045   5.467   7.446   8.025 -0.1157  1.0534 -0.1633
  193MOL   C10235046   5.608   7.402   8.073 -0.4989 -0.1237  0.0347
  193MOL   C10335047   5.403   7.324   7.954  0.1433 -0.4005  0.3156
  193MOL   O10435048   5.372   7.225   8.021 -0.1542 -0.4729  0.6426
  193MOL   O10535049   5.385   7.336   7.820  0.0019  0.2077  0.2494
  193MOL   H10635050   5.402   7.473   8.108 -0.5364  0.3878 -0.2688
  193MOL   H10735051   5.608   7.312   8.133 -0.3020  1.4055  2.3911
  193MOL   H10835052   5.678   7.406   7.990 -0.4899 -0.1774  0.0395
  193MOL   H10935053   5.644   7.484   8.135 -0.0788  0.0731 -0.4628
  193MOL   C11035054   5.308   7.237   7.758  0.0736  0.2329 -0.2299
  193MOL   C11135055   5.401   7.115   7.736 -0.1728 -0.2809  0.2748
  193MOL   C11235056   5.238   7.286   7.634  1.1358  0.6114  0.0446
  193MOL   O11335057   5.258   7.242   7.522 -0.2611 -0.0876  0.0280
  193MOL   O11435058   5.161   7.387   7.668  0.3777 -0.1919  0.0422
  193MOL   H11535059   5.224   7.206   7.821  0.6233  0.7162  0.7379
  193MOL   H11635060   5.422   7.064   7.830  2.6000 -1.5546 -0.9887
  193MOL   H11735061   5.349   7.045   7.671  0.4704  2.0552 -2.9184
  193MOL   H11835062   5.490   7.139   7.677 -0.1985 -1.5717 -0.3010
  193MOL   C11935063   5.072   7.455   7.581  0.4708 -0.8112  0.3398
  193MOL   C12035064   5.018   7.581   7.651 -1.0147  0.3896  0.3216
  193MOL   C12135065   4.955   7.375   7.518  0.1619 -0.2553  0.1634
  193MOL   O12235066   4.958   7.345   7.400  0.0746 -0.1419 -0.4474
  193MOL   O12335067   4.863   7.330   7.606 -0.7094 -0.0039 -0.3118
  193MOL   H12435068   5.126   7.475   7.488  2.2245 -4.7365  0.4385
  193MOL   H12535069   4.938   7.626   7.592 -0.8676  0.8316  0.4598
  193MOL   H12635070   4.983   7.557   7.751 -3.1679  0.2992 -0.4385
  193MOL   H12735071   5.100   7.654   7.654  0.1415 -0.8960  0.4677
  193MOL   C12835072   4.769   7.231   7.572  0.4636 -0.2911  0.1549
  193MOL   C12935073   4.677   7.223   7.686  0.0502  0.5569 -0.3761
  193MOL   C13035074   4.826   7.104   7.523 -0.5523 -0.2946 -0.0030
  193MOL   O13135075   4.944   7.069   7.534  0.0064  0.4231 -0.0592
  193MOL   O13235076   4.744   7.033   7.456  0.0237 -0.5245 -0.3708
  193MOL   H13335077   4.709   7.272   7.490 -0.3854 -2.0176 -0.1163
  193MOL   H13435078   4.638   7.121   7.697 -0.6256  1.0471  1.9095
  193MOL   H13535079   4.742   7.237   7.772 -0.6967 -2.5613  0.7779
  193MOL   H13635080   4.597   7.297   7.682 -0.8826 -0.2712  2.1790
  193MOL   C13735081   4.786   6.907   7.394 -1.0334 -0.1004 -0.0961
  193MOL   C13835082   4.691   6.876   7.277 -0.2567  0.2481 -0.4091
  193MOL   C13935083   4.803   6.797   7.498 -0.1350  0.5253 -0.5474
  193MOL   O14035084   4.908   6.754   7.538 -0.3817  0.5582  0.2725
  193MOL   O14135085   4.682   6.765   7.538  0.0402 -0.5296 -0.8708
  193MOL   H14235086   4.881   6.920   7.343  1.6004 -2.1479  4.0909
  193MOL   H14335087   4.735   6.924   7.189  0.5491 -2.1525 -1.3610
  193MOL   H14435088   4.690   6.770   7.256 -2.2144  0.4108 -1.2079
  193MOL   H14535089   4.589   6.911   7.291  0.4027  2.4443 -0.7682
  193MOL   C14635090   4.667   6.653   7.626 -0.0003  0.2182  0.5025
  193MOL   C14735091   4.522   6.601   7.593 -0.0784  0.9364 -0.1903
  193MOL   C14835092   4.694   6.702   7.766 -1.0925 -0.0220 -1.1061
  193MOL   O14935093   4.761   6.634   7.841  0.1493 -0.6062 -0.3548
  193MOL   O15035094   4.629   6.814   7.801 -0.2116  0.2328 -0.1832
  193MOL   H15135095   4.734   6.571   7.604  0.3341  0.7317 -0.4049
  193MOL   H15235096   4.505   6.599   7.485 -2.3889 -1.5011  0.1463
  193MOL   H15335097   4.507   6.503   7.639  2.0145  1.1138  0.9507
  193MOL   H15435098   4.441   6.664   7.629 -0.4633  0.1804  0.2824
  193MOL   C15535099   4.637   6.874   7.936 -0.3406  0.5023  0.9043
  193MOL   C15635100   4.535   6.985   7.956 -0.3176  0.2722  0.4807
  193MOL   C15735101   4.777   6.925   7.974  0.1252 -0.1007 -0.0608
  193MOL   O15835102   4.820   6.910   8.084  0.2046 -0.2803  1.3195
  193MOL   O15935103   4.846   6.974   7.868 -0.1352  0.1423  0.2486
  193MOL   H16035104   4.612   6.800   8.011 -0.9640 -0.7395 -0.5072
  193MOL   H16135105   4.554   7.041   8.047  1.6363  0.8958 -0.2807
  193MOL   H16235106   4.527   7.043   7.864  0.0407  0.2676  0.4447
  193MOL   H16335107   4.438   6.939   7.974 -0.8252  0.8487 -0.6745
  193MOL   C16435108   4.973   7.038   7.877  0.3825  0.1487 -0.2273
  193MOL   C16535109   5.075   6.925   7.842 -0.2499 -0.5454 -1.2223
  193MOL   C16635110   4.999   7.128   8.001  0.2792  0.3564  0.0511
  193MOL   O16735111   5.100   7.114   8.065 -0.2118 -0.2080  0.0282
  193MOL   O16835112   4.904   7.226   8.011  0.2472  0.0232  0.3481
  193MOL   H16935113   4.966   7.105   7.792  3.2141 -0.8469 -1.3061
  193MOL   H17035114   5.168   6.982   7.837  0.6997 -1.7729  1.3454
  193MOL   H17135115   5.099   6.862   7.928 -0.4658 -0.6868 -1.2649
  193MOL   H17235116   5.047   6.864   7.756  0.9480 -0.5429 -1.6187
  193MOL   C17335117   4.898   7.304   8.130  0.5847  0.4747 -0.1226
  193MOL   C17435118   4.763   7.382   8.145  0.2840 -0.1836 -0.2662
  193MOL   C17535119   5.017   7.403   8.135 -0.8619 -0.3408  0.5225
  193MOL   O17635120   5.099   7.409   0.075 -0.2243  0.1783 -0.2065
  193MOL   O17735121   5.023   7.481   8.027  0.5838 -0.2088  0.4333
  193MOL   H17835122   4.898   7.227   0.059  0.6864 -0.2262 -0.8149
  193MOL   H17935123   4.680   7.314   0.018  0.5585 -1.1274 -2.1583
  193MOL   H18035124   4.777   7.456   0.076 -1.0525 -0.6627  0.4404
  193MOL   H18135125   4.734   7.424   8.049 -1.8112 -0.0549  0.4000
  193MOL   H18235126   5.099   7.535   8.014 -2.4316  4.4360  1.0716
  194MOL     C135127   4.862   7.264   5.808  0.4474 -0.6082 -0.6736
  194MOL     C235128   4.786   7.228   5.933  0.4046  0.3863  0.0902
  194MOL     C335129   5.001   7.196   5.779  0.5648  0.1881  0.3479
  194MOL     O435130   5.101   7.264   5.745  0.0591  0.2441 -0.0839
  194MOL     O535131   5.002   7.059   5.805 -0.4704 -0.1432  0.5948
  194MOL     H635132   4.792   7.263   5.724  1.4794  0.9386 -1.5909
  194MOL     H735133   4.844   7.223   6.025 -0.0168 -1.2232  0.2701
  194MOL     H835134   4.696   7.289   5.942  0.8839  1.2433 -0.8483
  194MOL     H935135   4.753   7.126   5.916 -1.5484  1.5125 -3.4616
  194MOL    H1035136   4.886   7.369   5.823  0.6063 -0.7862  0.3107
  194MOL    C1135137   5.118   6.984   5.787 -0.1561  0.0216  0.4293
  194MOL    C1235138   5.234   7.019   5.884  0.2008  0.0233  0.0518
  194MOL    C1335139   5.173   6.989   5.637  0.2706  0.2314  0.0787
  194MOL    O1435140   5.288   7.029   5.611  0.3100  0.9382  0.2633
  194MOL    O1535141   5.078   6.952   5.550 -0.1714 -0.0230 -0.0437
  194MOL    H1635142   5.099   6.880   5.811 -0.6420  0.4648  2.0131
  194MOL    H1735143   5.251   7.126   5.895  3.0995 -0.3415 -0.5476
  194MOL    H1835144   5.225   6.972   5.982 -1.1064 -0.9371 -0.4982
  194MOL    H1935145   5.328   6.982   5.845 -1.2499 -1.9345 -1.7405
  194MOL    C2035146   5.100   6.944   5.412  0.0205 -0.2490 -0.0687
  194MOL    C2135147   5.083   7.079   5.336 -0.2309 -0.0857 -0.3600
  194MOL    C2235148   5.007   6.832   5.364  0.2415  0.6022 -0.0235
  194MOL    O2335149   4.900   6.861   5.306  0.3854 -0.6512  0.0906
  194MOL    O2435150   5.050   6.710   5.393 -0.0898  0.2660  0.2272
  194MOL    H2535151   5.198   6.912   5.375 -0.1918  0.4367 -1.2519
  194MOL    H2635152   4.991   7.131   5.364 -0.5318 -0.0692 -1.3626
  194MOL    H2735153   5.161   7.149   5.366 -0.0654  0.4493 -1.9954
  194MOL    H2835154   5.086   7.072   5.227 -0.5486 -0.5029 -0.3432
  194MOL    C2935155   4.981   6.597   5.349  0.3257 -0.2234 -0.1222
  194MOL    C3035156   5.033   6.481   5.421 -0.9027 -0.4800  0.1368
  194MOL    C3135157   5.006   6.581   5.203  0.5881  0.1171  0.1099
  194MOL    O3235158   4.914   6.539   5.136  0.1410 -0.2549 -0.2276
  194MOL    O3335159   5.129   6.621   5.160  0.3099  0.1736 -0.2609
  194MOL    H3435160   4.873   6.598   5.369 -0.1270 -0.2794 -2.4179
  194MOL    H3535161   5.136   6.452   5.399 -0.3965  1.0008  0.5229
  194MOL    H3635162   5.016   6.496   5.528  2.7047 -0.9676  0.8612
  194MOL    H3735163   4.969   6.394   5.405  0.6982 -1.5562 -0.6398
  194MOL    C3835164   5.170   6.622   5.026  0.2618  0.3372 -0.0341
  194MOL    C3935165   5.265   6.506   4.993 -0.8439  0.1741 -0.5638
  194MOL    C4035166   5.239   6.762   4.992  0.1218  0.4211 -0.4848
  194MOL    O4135167   5.208   6.862   5.058  0.0641  0.1105  0.2618
  194MOL    O4235168   5.323   6.753   4.888  0.1047 -0.2545  0.0547
  194MOL    H4335169   5.077   6.617   4.969  0.8881 -2.5595 -0.8940
  194MOL    H4435170   5.217   6.409   5.007 -0.0196 -0.1060  0.3557
  194MOL    H4535171   5.294   6.491   4.889 -1.9253 -3.4490 -0.4388
  194MOL    H4635172   5.356   6.520   5.050 -0.3399  1.1350 -1.5845
  194MOL    C4735173   5.415   6.859   4.854 -0.2494  0.6674  0.5419
  194MOL    C4835174   5.343   6.960   4.763 -0.6137 -0.0618  0.0065
  194MOL    C4935175   5.534   6.810   4.777  0.4880 -0.5845  0.1704
  194MOL    O5035176   5.624   6.880   4.734  0.2424  1.0611 -0.6246
  194MOL    O5135177   5.544   6.678   4.772  0.0548  0.2964  0.2606
  194MOL    H5235178   5.449   6.895   4.952  1.2990 -0.6830  0.5263
  194MOL    H5335179   5.272   7.022   4.817 -0.2261 -0.0710  0.5270
  194MOL    H5435180   5.422   7.019   4.716 -1.2277  1.4122  0.8133
  194MOL    H5535181   5.280   6.919   4.684  0.2318  0.2653 -0.8552
  194MOL    C5635182   5.641   6.609   4.695 -0.1906  0.5615 -0.4976
  194MOL    C5735183   5.598   6.460   4.690  0.4405  0.0727  0.1094
  194MOL    C5835184   5.774   6.612   4.774 -0.0923  0.3785  0.6990
  194MOL    O5935185   5.781   6.653   4.888  0.2770  0.2104  0.3326
  194MOL    O6035186   5.877   6.561   4.693  0.0790 -0.4371 -0.5567
  194MOL    H6135187   5.655   6.645   4.593 -3.2703 -1.1488 -1.5898
  194MOL    H6235188   5.490   6.454   4.701  0.5709 -0.6751  0.9938
  194MOL    H6335189   5.631   6.419   4.594  2.8611  0.6511  0.6695
  194MOL    H6435190   5.650   6.400   4.764  0.8159  0.4962  0.1948
  194MOL    C6535191   6.007   6.538   4.753 -0.1162  0.2386 -0.6689
  194MOL    C6635192   6.104   6.535   4.632 -0.5494  0.6187 -0.1965
  194MOL    C6735193   6.010   6.393   4.810 -0.2541 -0.0313 -0.4499
  194MOL    O6835194   5.916   6.314   4.811 -0.3232 -0.4250  0.4830
  194MOL    O6935195   6.130   6.367   4.859  0.0180  0.4900 -0.6295
  194MOL    H7035196   6.029   6.611   4.830 -2.5067  0.6815 -0.3806
  194MOL    H7135197   6.081   6.603   4.551  0.8787  0.6809 -0.5581
  194MOL    H7235198   6.206   6.546   4.669 -0.8808 -0.3366  1.0461
  194MOL    H7335199   6.106   6.435   4.587  0.3228  0.3093  0.5033
  194MOL    C7435200   6.166   6.237   4.906 -0.3287  0.8352  0.1373
  194MOL    C7535201   6.291   6.224   4.997  0.3492 -0.2289  0.3483
  194MOL    C7635202   6.178   6.140   4.791  0.0245  0.4112  0.1333
  194MOL    O7735203   6.131   6.023   4.799 -0.4526 -0.4031  0.1237
  194MOL    O7835204   6.248   6.189   4.689 -0.7523  0.0748 -0.6189
  194MOL    H7935205   6.087   6.203   4.973  0.2721  0.2048  0.5382
  194MOL    H8035206   6.288   6.285   5.087  0.1448 -0.7088  0.6649
  194MOL    H8135207   6.308   6.119   5.023 -0.6205 -0.3126  0.6387
  194MOL    H8235208   6.381   6.255   4.944  1.3864 -1.2915  1.4387
  194MOL    C8335209   6.275   6.111   4.573  0.3817  0.5354 -0.5144
  194MOL    C8435210   6.370   6.191   4.485 -0.7959 -0.2630  0.1230
  194MOL    C8535211   6.152   6.078   4.494 -0.1053 -0.3900 -0.8270
  194MOL    O8635212   6.044   6.136   4.516 -0.4843 -0.0559  0.6109
  194MOL    O8735213   6.175   5.983   4.395  0.2628 -0.0683  0.1761
  194MOL    H8835214   6.330   6.021   4.599 -1.1392 -1.8380 -4.9599
  194MOL    H8935215   6.396   6.148   4.389 -1.6373 -3.2282  1.1659
  194MOL    H9035216   6.328   6.290   4.466  0.4280  0.3828  0.7263
  194MOL    H9135217   6.460   6.219   4.539 -2.3450  1.7353  1.7702
  194MOL    C9235218   6.083   5.957   4.299  0.5504 -0.0156  0.3803
  194MOL    C9335219   6.100   5.822   4.230  0.0148 -0.0824 -0.3059
  194MOL    C9435220   6.089   6.067   4.197 -0.6808  0.4235  0.1250
  194MOL    O9535221   6.183   6.148   4.182 -0.5180 -0.3949 -0.4056
  194MOL    O9635222   5.988   6.074   4.116  0.0433 -0.1926  0.1675
  194MOL    H9735223   5.984   5.952   4.346  0.6475  1.4486  0.7764
  194MOL    H9835224   6.096   5.746   4.308  1.8664  1.2501  1.1188
  194MOL    H9935225   6.028   5.808   4.149 -0.2066  0.1677 -0.1493
  194MOL   H10035226   6.203   5.799   4.202 -0.0214  0.0305 -0.5323
  194MOL   C10135227   5.958   6.171   4.016  0.6529 -0.0999 -0.4094
  194MOL   C10235228   6.059   6.150   3.896  0.2861  0.2800 -0.0939
  194MOL   C10335229   5.962   6.314   4.066  0.6010  0.2242 -0.1865
  194MOL   O10435230   6.028   6.404   4.012  0.3397 -0.5469  0.7543
  194MOL   O10535231   5.899   6.335   4.188 -0.6369  0.0153  0.0131
  194MOL   H10635232   5.860   6.138   3.982  0.2661  0.2980  0.3098
  194MOL   H10735233   6.008   6.177   3.804  2.0754  1.5460 -0.7375
  194MOL   H10835234   6.151   6.206   3.909  0.5578  0.0260 -0.8864
  194MOL   H10935235   6.081   6.044   3.878 -2.1805  0.0444 -1.9416
  194MOL   C11035236   5.912   6.465   4.259 -0.5120 -0.3413 -0.0951
  194MOL   C11135237   5.841   6.428   4.395 -0.2353 -0.3169 -0.8751
  194MOL   C11235238   5.843   6.582   4.187  0.0348 -0.3619  0.4884
  194MOL   O11335239   5.899   6.687   4.166 -0.1901 -0.4330 -0.0107
  194MOL   O11435240   5.723   6.554   4.151  0.4971  0.2478 -0.5565
  194MOL   H11535241   6.015   6.486   4.285  0.2313 -3.0632 -0.7064
  194MOL   H11635242   5.743   6.382   4.387 -0.0407 -0.8120 -0.3924
  194MOL   H11735243   5.905   6.369   4.460  0.0665  0.8378 -0.0930
  194MOL   H11835244   5.837   6.528   4.439  0.5139 -0.0926 -1.2979
  194MOL   C11935245   5.639   6.650   4.083 -0.1339  0.3565  0.0651
  194MOL   C12035246   5.500   6.643   4.139 -0.1324  0.4069 -0.8687
  194MOL   C12135247   5.651   6.617   3.933 -0.1856 -0.5663 -0.4823
  194MOL   O12235248   5.721   6.682   3.859 -0.3964  0.0880 -0.2940
  194MOL   O12335249   5.577   6.500   3.903 -0.0011 -0.6917 -0.4357
  194MOL   H12435250   5.665   6.753   4.110  2.7164 -0.2582 -0.1687
  194MOL   H12535251   5.514   6.626   4.246 -4.2624 -0.4649 -0.3970
  194MOL   H12635252   5.452   6.739   4.122  2.0271  1.7644  0.5506
  194MOL   H12735253   5.440   6.563   4.096  1.5956 -1.5907  0.3067
  194MOL   C12835254   5.570   6.457   3.765  0.0384 -0.2449 -0.3788
  194MOL   C12935255   5.475   6.334   3.753 -0.3910  0.5668  0.5161
  194MOL   C13035256   5.701   6.400   3.716  0.1171 -0.8404 -0.3593
  194MOL   O13135257   5.760   6.308   3.773 -0.3939  0.4615  0.0631
  194MOL   O13235258   5.748   6.473   3.614 -0.1615 -0.2443  0.0697
  194MOL   H13335259   5.532   6.543   3.710 -0.4377 -0.9421 -1.1579
  194MOL   H13435260   5.377   6.343   3.799 -1.3593 -1.3930 -1.1078
  194MOL   H13535261   5.450   6.314   3.649 -3.2254  0.6083  1.1639
  194MOL   H13635262   5.509   6.244   3.804 -0.5800 -0.1234 -0.5768
  194MOL   C13735263   5.866   6.440   3.544 -0.2447  0.0739  0.3240
  194MOL   C13835264   5.850   6.305   3.473  0.5241 -0.5857 -0.6327
  194MOL   C13935265   5.988   6.449   3.642  0.4197 -0.0334  0.4570
  194MOL   O14035266   6.079   6.366   3.645 -0.7159 -0.0189 -0.3763
  194MOL   O14135267   5.992   6.566   3.700 -0.1570 -0.2873  0.4950
  194MOL   H14235268   5.884   6.510   3.462  1.3430 -0.2341  0.4071
  194MOL   H14335269   5.828   6.218   3.536 -1.6906 -1.1573 -2.1248
  194MOL   H14435270   5.754   6.313   3.421  1.2860  1.4405 -1.7573
  194MOL   H14535271   5.926   6.270   3.403 -1.7142 -0.8439 -3.0280
  194MOL   C14635272   6.109   6.603   3.775 -1.1374  0.0108 -0.7227
  194MOL   C14735273   6.067   6.698   3.881  0.0957  0.1847 -0.6155
  194MOL   C14835274   6.208   6.660   3.682  0.2145 -0.9298  0.2991
  194MOL   O14935275   6.323   6.628   3.691  0.0700  0.1050 -0.1938
  194MOL   O15035276   6.153   6.751   3.594 -0.0776  0.1250  0.3746
  194MOL   H15135277   6.154   6.515   3.820 -1.8807  0.0561  0.1201
  194MOL   H15235278   6.070   6.802   3.849  0.7371  1.1329  2.3754
  194MOL   H15335279   5.969   6.670   3.921  0.1141 -0.6248 -1.1179
  194MOL   H15435280   6.143   6.689   3.959 -1.2029 -1.2824  0.5386
  194MOL   C15535281   6.230   6.811   3.487  0.0913  1.0281  0.5953
  194MOL   C15635282   6.152   6.920   3.420 -0.4746 -0.0249 -0.1785
  194MOL   C15735283   6.285   6.706   3.393 -0.3279  0.2568 -0.6404
  194MOL   O15835284   6.217   6.622   3.340 -0.9074 -0.4717  0.0628
  194MOL   O15935285   6.413   6.742   3.354  0.1256 -0.3644  0.5805
  194MOL   H16035286   6.312   6.869   3.532  1.3348  0.6627 -1.1652
  194MOL   H16135287   6.077   6.879   3.353  1.7935 -1.9027 -1.6734
  194MOL   H16235288   6.117   7.000   3.486  1.2317  1.6815 -1.2706
  194MOL   H16335289   6.219   6.975   3.353  0.4715 -1.2101 -0.2096
  194MOL   C16435290   6.471   6.670   3.244  0.0972  0.5466  0.2026
  194MOL   C16535291   6.609   6.629   3.298 -0.0605  0.0162 -0.2851
  194MOL   C16635292   6.480   6.754   3.114 -0.1883  0.1267 -0.0396
  194MOL   O16735293   6.587   6.786   3.053 -0.0752 -0.1415  0.0324
  194MOL   O16835294   6.361   6.798   3.078  0.6020  0.2265  0.5727
  194MOL   H16935295   6.414   6.579   3.225 -1.3130  0.9634  2.2633
  194MOL   H17035296   6.618   6.536   3.354  1.4419 -1.2544 -2.5770
  194MOL   H17135297   6.681   6.606   3.220 -1.5636 -2.6821 -0.9520
  194MOL   H17235298   6.655   6.705   3.361  1.2777 -1.9580  1.2035
  194MOL   C17335299   6.338   6.890   2.976  0.0801  0.6419 -0.2558
  194MOL   C17435300   6.194   6.938   2.984  0.0315  0.2902  0.5982
  194MOL   C17535301   6.351   6.806   2.843  0.6062 -0.9279  0.0488
  194MOL   O17635302   6.412   6.840   2.741  0.1802 -0.0750 -0.2338
  194MOL   O17735303   6.269   6.703   2.853  0.1747  0.4215  0.1807
  194MOL   H17835304   6.414   6.966   2.992 -0.5429  1.3268 -0.5407
  194MOL   H17935305   6.186   6.974   3.087  0.4775 -0.1678  0.7954
  194MOL   H18035306   6.163   7.022   2.922 -1.4866 -0.3152  0.5125
  194MOL   H18135307   6.124   6.858   2.963  1.4479 -0.2941 -2.1106
  194MOL   H18235308   6.265   6.651   2.774 -0.5390  0.5096  0.1549
  195MOL     C135309   5.920   7.325   0.133  0.0618 -0.5644  0.2224
  195MOL     C235310   5.865   7.215   0.229 -0.7621  0.4501  0.1447
  195MOL     C335311   5.952   7.271   8.141 -0.5296  0.1536 -0.3304
  195MOL     O435312   6.063   7.286   8.091  0.1872 -0.1413 -0.0424
  195MOL     O535313   5.844   7.207   8.091  0.2770 -0.9762  0.2929
  195MOL     H635314   5.847   7.406   0.136 -1.3988 -1.8171 -0.5945
  195MOL     H735315   5.779   7.156   0.200 -0.7104  0.5771 -0.2686
  195MOL     H835316   5.941   7.137   0.241 -0.8041  0.4774  0.5950
  195MOL     H935317   5.840   7.234   0.333  1.4458 -1.1794  1.0261
  195MOL    H1035318   6.013   7.353   0.181 -0.4949 -0.5805  1.3219
  195MOL    C1135319   5.858   7.138   7.963 -0.4570 -0.1656 -0.1259
  195MOL    C1235320   5.717   7.106   7.916 -0.4027 -0.5092 -0.2989
  195MOL    C1335321   5.948   7.015   7.986  0.0797 -0.3999  0.4873
  195MOL    O1435322   5.942   6.938   8.080  0.3674 -0.1121 -0.3628
  195MOL    O1535323   6.036   7.002   7.884  0.1901 -0.1121  0.1760
  195MOL    H1635324   5.907   7.217   7.904 -0.3065  0.2883  0.5986
  195MOL    H1735325   5.659   7.194   7.888 -1.2431 -0.7745  0.5935
  195MOL    H1835326   5.726   7.044   7.826 -1.5274 -0.5227 -0.4109
  195MOL    H1935327   5.665   7.046   7.991  0.0332 -0.1700  0.2733
  195MOL    C2035328   6.140   6.903   7.867 -0.3036  0.7749  0.7571
  195MOL    C2135329   6.081   6.759   7.849  0.3478 -0.2504 -0.6042
  195MOL    C2235330   6.248   6.909   7.977 -0.3187 -0.0983  1.0907
  195MOL    O2335331   6.237   6.992   8.068  0.1344  0.1694 -0.0878
  195MOL    O2435332   6.354   6.816   7.970  0.7004  0.0636 -0.2274
  195MOL    H2535333   6.183   6.923   7.769 -0.0122 -0.4474  0.6165
  195MOL    H2635334   6.159   6.685   7.829  0.5440 -0.3161  0.3872
  195MOL    H2735335   6.034   6.722   7.940 -0.8756  0.9926 -0.7096
  195MOL    H2835336   6.004   6.752   7.772 -0.4208 -0.9286  0.2260
  195MOL    C2935337   6.459   6.811   8.077  0.9090 -0.1541  0.1634
  195MOL    C3035338   6.549   6.713   8.013 -0.3902  0.2238 -0.2924
  195MOL    C3135339   6.407   6.773   0.066  0.1556 -0.2274  0.1386
  195MOL    O3235340   6.449   6.835   0.168 -0.1893  0.3401  0.3272
  195MOL    O3335341   6.332   6.656   0.069 -0.1172 -0.4499  0.0897
  195MOL    H3435342   6.516   6.904   8.080 -2.0685  1.7110  0.6889
  195MOL    H3535343   6.596   6.754   7.924 -0.8775  0.1043 -0.6033
  195MOL    H3635344   6.628   6.713   8.089  0.7188 -0.8619 -1.4237
  195MOL    H3735345   6.502   6.618   7.988 -3.5526  1.9531 -1.1602
  195MOL    C3835346   6.276   6.594   0.188 -0.2471 -0.4833 -0.4915
  195MOL    C3935347   6.145   6.653   0.230 -0.0614 -0.4174  0.4156
  195MOL    C4035348   6.383   6.572   0.309  0.8735  0.6811  0.0961
  195MOL    O4135349   6.336   6.564   0.419  0.0467 -0.2187  0.0215
  195MOL    O4235350   6.511   6.554   0.268  0.7552 -0.1521  0.3878
  195MOL    H4335351   6.261   6.492   0.152  0.5612 -0.9145  0.3567
  195MOL    H4435352   6.155   6.758   0.256  0.1169 -0.6118  1.1502
  195MOL    H4535353   6.073   6.656   0.148 -0.9175 -2.0394  1.0716
  195MOL    H4635354   6.110   6.600   0.319 -1.3878  0.3066  0.3315
  195MOL    C4735355   6.620   6.550   0.361  0.3164  0.3864  0.1129
  195MOL    C4835356   6.755   6.518   0.280 -0.4989  0.3700  0.3382
  195MOL    C4935357   6.586   6.443   0.472 -0.4396 -0.1878 -0.4807
  195MOL    O5035358   6.590   6.463   0.594  0.6885  0.5675 -0.3826
  195MOL    O5135359   6.566   6.323   0.413  0.1375 -0.1500 -0.3073
  195MOL    H5235360   6.631   6.648   0.407 -0.6562  0.3660  0.4073
  195MOL    H5335361   6.731   6.459   0.192 -2.1488 -0.2452  1.1763
  195MOL    H5435362   6.811   6.604   0.244 -0.4011 -0.3436 -1.2341
  195MOL    H5535363   6.815   6.454   0.345  0.2662 -0.6645 -1.3578
  195MOL    C5635364   6.552   6.213   0.499 -0.0069 -0.6670  0.7391
  195MOL    C5735365   6.563   6.083   0.417 -0.0372  0.0057 -0.0751
  195MOL    C5835366   6.417   6.225   0.582  0.0492 -0.5970  0.0947
  195MOL    O5935367   6.419   6.198   0.704 -0.1165  0.0341 -0.2389
  195MOL    O6035368   6.315   6.275   0.518 -0.1404  0.4850 -0.1567
  195MOL    H6135369   6.631   6.222   0.574 -0.2697  0.4604  0.8957
  195MOL    H6235370   6.474   6.076   0.355 -0.3896  0.7525  0.3391
  195MOL    H6335371   6.652   6.098   0.356 -0.3820  0.0080 -0.5812
  195MOL    H6435372   6.566   5.989   0.474  0.2903 -0.6642 -1.1811
  195MOL    C6535373   6.193   6.312   0.579 -0.0067 -0.0761 -0.0610
  195MOL    C6635374   6.217   6.414   0.692  0.5880  0.9589 -0.0643
  195MOL    C6735375   6.121   6.186   0.625  0.2809  0.0612  1.0666
  195MOL    O6835376   6.103   6.088   0.552  0.2660 -0.7837  0.0688
  195MOL    O6935377   6.068   6.188   0.758  0.0399  0.4093  0.5742
  195MOL    H7035378   6.133   6.366   0.505  0.3150  0.9846  0.4417
  195MOL    H7135379   6.123   6.461   0.721 -0.5312 -1.5877  0.5704
  195MOL    H7235380   6.281   6.377   0.772 -0.0895  0.7249  0.3714
  195MOL    H7335381   6.273   6.499   0.652  0.9438  0.9121  0.3344
  195MOL    C7435382   6.010   6.071   0.814 -0.2865 -0.4231  0.0742
  195MOL    C7535383   5.969   6.100   0.962  0.4203 -0.2301 -0.1235
  195MOL    C7635384   6.094   5.947   0.812 -0.2768  0.4336  0.5157
  195MOL    O7735385   6.054   5.829   0.794 -0.0296  0.4600  0.3709
  195MOL    O7835386   6.220   5.976   0.856 -0.3365  0.5223 -0.3695
  195MOL    H7935387   5.918   6.062   0.756 -0.5724 -0.8615  0.5944
  195MOL    H8035388   5.918   6.017   1.010 -0.9379  0.0785 -0.9979
  195MOL    H8135389   6.060   6.122   1.018 -0.7542  0.6175  1.4871
  195MOL    H8235390   5.914   6.194   0.959  1.5401  0.4396 -0.3198
  195MOL    C8335391   6.318   5.879   0.895  0.0164  0.1820 -0.2343
  195MOL    C8435392   6.418   5.963   0.975 -1.1556 -0.4013  0.0049
  195MOL    C8535393   6.386   5.818   0.771 -0.1133 -0.6836 -0.4690
  195MOL    O8635394   6.367   5.870   0.661 -0.0911  0.3312  0.0904
  195MOL    O8735395   6.461   5.712   0.801  0.4109 -0.0990 -0.2662
  195MOL    H8835396   6.289   5.799   0.962  0.6853  0.1238 -0.0109
  195MOL    H8935397   6.366   5.998   1.064 -0.4841 -2.1335  1.1151
  195MOL    H9035398   6.498   5.892   0.998 -0.9991 -0.2377 -0.0376
  195MOL    H9135399   6.462   6.050   0.927  0.9675 -1.8428 -0.7834
  195MOL    C9235400   6.524   5.653   0.694 -0.6008  0.9521 -0.0794
  195MOL    C9335401   6.581   5.517   0.743  0.7681 -0.1625  0.2985
  195MOL    C9435402   6.643   5.736   0.657 -0.6560 -0.9861  0.6178
  195MOL    O9535403   6.695   5.810   0.744 -0.2889 -0.0897  0.7165
  195MOL    O9635404   6.686   5.716   0.531  0.4094 -0.6960 -0.1283
  195MOL    H9735405   6.472   5.630   0.601  0.5425 -0.9173 -0.2858
  195MOL    H9835406   6.508   5.450   0.790  0.6388 -1.0635 -1.1673
  195MOL    H9935407   6.630   5.462   0.663  0.4255  0.6945 -0.5052
  195MOL   H10035408   6.664   5.540   0.810  0.8248  1.7661 -0.4074
  195MOL   C10135409   6.811   5.768   0.480  0.0033  0.0169 -0.6302
  195MOL   C10235410   6.794   5.768   0.332 -0.0591  0.4649 -0.4912
  195MOL   C10335411   6.932   5.688   0.532  0.5801 -0.1167  0.0827
  195MOL   O10435412   6.925   5.611   0.630  0.1085  0.1618 -0.8292
  195MOL   O10535413   7.043   5.732   0.473 -0.8830  0.2943  0.2675
  195MOL   H10635414   6.826   5.874   0.501 -0.2852 -0.2370  0.9290
  195MOL   H10735415   6.886   5.803   0.284  1.1203 -1.0571  0.5773
  195MOL   H10835416   6.780   5.663   0.303  0.5550 -0.0452  0.9877
  195MOL   H10935417   6.706   5.824   0.303 -0.5261  0.6483  1.2556
  195MOL   C11035418   7.169   5.660   0.484 -0.2268 -0.8919  0.2971
  195MOL   C11135419   7.270   5.725   0.386  0.0612  0.2279 -0.2751
  195MOL   C11235420   7.155   5.510   0.445  0.3408  0.9891 -0.0749
  195MOL   O11335421   7.089   5.471   0.346 -0.4103 -0.1680  0.0552
  195MOL   O11435422   7.212   5.429   0.530 -0.0798  0.3296 -0.3726
  195MOL   H11535423   7.206   5.668   0.586 -1.2100 -1.6237  0.7162
  195MOL   H11635424   7.338   5.653   0.341  1.1209  0.6522  0.6134
  195MOL   H11735425   7.203   5.766   0.310 -3.0856  0.2552  2.3885
  195MOL   H11835426   7.327   5.798   0.443  1.4271 -1.0751  0.0405
  195MOL   C11935427   7.234   5.296   0.491 -0.6500 -0.1290  0.4982
  195MOL   C12035428   7.285   5.217   0.612  0.1201  0.5818  0.4619
  195MOL   C12135429   7.335   5.282   0.374  0.5068  1.0442  0.3416
  195MOL   O12235430   7.297   5.227   0.267  0.1594 -0.0385  0.2867
  195MOL   O12335431   7.458   5.332   0.407  0.2909 -0.6135  0.0762
  195MOL   H12435432   7.139   5.250   0.463  1.4127 -3.7315 -0.9075
  195MOL   H12535433   7.310   5.119   0.572 -2.0559  0.8362 -1.6662
  195MOL   H12635434   7.385   5.253   0.636  0.7184  0.2622 -1.4295
  195MOL   H12735435   7.213   5.210   0.693  1.3411 -0.4400  1.4778
  195MOL   C12835436   7.567   5.302   0.317 -0.1909  0.3093 -0.8406
  195MOL   C12935437   7.683   5.309   0.425  0.2864  0.0852 -0.7074
  195MOL   C13035438   7.576   5.405   0.206 -0.2277 -0.1950 -0.4247
  195MOL   O13135439   7.518   5.513   0.216 -0.9929  0.4107  0.4171
  195MOL   O13235440   7.646   5.356   0.107  0.1374 -0.2535  0.7901
  195MOL   H13335441   7.555   5.202   0.276 -0.9858  0.7900 -1.7905
  195MOL   H13435442   7.779   5.283   0.381 -0.2489  0.5338 -2.1836
  195MOL   H13535443   7.692   5.412   0.461  2.2003 -0.3069 -0.0179
  195MOL   H13635444   7.658   5.241   0.506  1.2497  0.2814 -0.2370
  195MOL   C13735445   7.641   5.426   8.129 -0.0753  0.2873  0.7981
  195MOL   C13835446   7.533   5.353   8.043 -0.4151  0.2178  0.1308
  195MOL   C13935447   7.780   5.415   8.068 -0.7105  0.4017 -0.2438
  195MOL   O14035448   7.833   5.507   8.005  0.0060 -0.1109 -0.1761
  195MOL   O14135449   7.833   5.302   8.100 -0.1378 -0.2620 -0.7663
  195MOL   H14235450   7.610   5.531   8.127 -0.4306  0.2117  1.9959
  195MOL   H14335451   7.567   5.251   8.026 -0.9581  0.2284 -1.0855
  195MOL   H14435452   7.439   5.340   8.096 -1.0556  0.6565 -0.8777
  195MOL   H14535453   7.525   5.415   7.953  0.9954  1.5621  0.8974
  195MOL   C14635454   7.964   5.267   8.061  0.2391  0.2308  0.1444
  195MOL   C14735455   7.971   5.117   8.053  0.4388  0.1951  0.6186
  195MOL   C14835456   8.061   5.337   0.013 -0.5228 -0.0460  0.1204
  195MOL   O14935457   8.026   5.377   0.120  0.3574 -0.1449  0.2051
  195MOL   O15035458   0.044   5.334   8.126  0.5486  0.2851  0.5725
  195MOL   H15135459   7.984   5.304   7.960  3.7705 -2.7581 -0.3690
  195MOL   H15235460   7.955   5.089   7.948  1.4281  0.1703  0.4717
  195MOL   H15335461   8.067   5.074   8.081  1.4227  2.2012  0.4112
  195MOL   H15435462   7.895   5.072   8.117 -2.2583  1.2493 -1.7156
  195MOL   C15535463   0.140   5.407   0.051  0.2521 -0.4445  0.1475
  195MOL   C15635464   0.264   5.412   8.115  0.8912 -0.3319  0.0572
  195MOL   C15735465   0.163   5.350   0.188  0.6030  0.4437  0.5443
  195MOL   O15835466   0.139   5.230   0.207  0.7243 -0.4174  0.3080
  195MOL   O15935467   0.231   5.434   0.266  0.2576  0.2231 -0.0234
  195MOL   H16035468   0.101   5.509   0.058 -1.0538 -1.0148  1.2919
  195MOL   H16135469   0.241   5.453   8.017 -0.8931 -0.4673  0.4104
  195MOL   H16235470   0.339   5.478   0.011 -0.6188  0.8326  0.9696
  195MOL   H16335471   0.306   5.311   8.111  1.2599 -0.0973 -2.7411
  195MOL   C16435472   0.290   5.386   0.379 -0.1707  0.4538  0.4127
  195MOL   C16535473   0.329   5.507   0.468  0.2499  0.4324 -0.1058
  195MOL   C16635474   0.420   5.311   0.341 -0.0202 -0.5419 -0.3527
  195MOL   O16735475   0.437   5.203   0.389 -0.6031  0.0307 -0.2121
  195MOL   O16835476   0.504   5.379   0.256  0.0934 -0.3795  0.3089
  195MOL   H16935477   0.226   5.310   0.424  1.2043 -0.5089  0.7794
  195MOL   H17035478   0.251   5.549   0.532  1.3486 -0.9850  2.1827
  195MOL   H17135479   0.403   5.476   0.541  0.3293  1.1879  0.1389
  195MOL   H17235480   0.362   5.589   0.404 -2.5605  2.7143  1.2356
  195MOL   C17335481   0.633   5.319   0.232 -1.3007  0.3082 -0.0203
  195MOL   C17435482   0.728   5.391   0.327 -0.6205 -0.2378  0.1607
  195MOL   C17535483   0.668   5.340   0.088 -0.0882 -0.7402 -0.0250
  195MOL   O17635484   0.682   5.244   0.004  0.0566 -0.2661  0.2537
  195MOL   O17735485   0.670   5.478   0.056  0.3701  0.2629 -0.7476
  195MOL   H17835486   0.630   5.211   0.246 -3.2676  0.3432  0.0434
  195MOL   H17935487   0.710   5.498   0.315 -1.2680 -0.5593 -1.8779
  195MOL   H18035488   0.700   5.368   0.430  2.9520 -0.2614  1.1668
  195MOL   H18135489   0.832   5.369   0.306 -0.8133 -1.7553  0.7640
  195MOL   H18235490   0.644   5.521   0.136  0.2462 -1.0193 -0.0767
  196MOL     C135491   6.743   7.901   4.491 -0.2038 -0.1456 -0.2055
  196MOL     C235492   6.669   8.014   4.561 -0.4167 -0.8504 -0.5332
  196MOL     C335493   6.767   7.785   4.586  0.4405  0.1504  0.8352
  196MOL     O435494   6.677   7.707   4.601  0.1043  0.2367  0.2074
  196MOL     O535495   6.885   7.796   4.652  0.4910  0.5808 -0.0243
  196MOL     H635496   6.680   7.862   4.411 -2.2151  0.6899  0.9250
  196MOL     H735497   6.650   8.089   4.485 -0.4382 -0.3822 -0.0671
  196MOL     H835498   6.581   7.975   4.613 -0.2572  0.3581  0.6538
  196MOL     H935499   6.732   8.056   4.639 -0.9002 -0.1166 -0.5334
  196MOL    H1035500   6.840   7.931   4.453 -0.0098 -1.9119 -1.1395
  196MOL    C1135501   6.908   7.723   4.770  1.1593  0.1068  0.4735
  196MOL    C1235502   6.933   7.577   4.747  0.2268 -1.0673 -0.1164
  196MOL    C1335503   6.786   7.741   4.868  0.1044  0.0008 -0.5836
  196MOL    O1435504   6.722   7.647   4.908  0.5317  0.2127  0.9072
  196MOL    O1535505   6.759   7.874   4.879  0.8392 -0.1476 -0.5293
  196MOL    H1635506   7.000   7.757   4.816 -0.6984  3.0613  2.1782
  196MOL    H1735507   6.846   7.532   4.699 -0.4683 -0.0454  0.1924
  196MOL    H1835508   7.028   7.553   4.699  0.7367  1.0221 -0.1613
  196MOL    H1935509   6.937   7.530   4.845  0.7777 -0.3360  0.2097
  196MOL    C2035510   6.657   7.927   4.965  0.3340 -0.3940  0.3813
  196MOL    C2135511   6.587   8.056   4.912 -0.0249 -0.6616 -0.0711
  196MOL    C2235512   6.726   7.954   5.100  0.8280  0.3401  0.1858
  196MOL    O2335513   6.703   7.899   5.206 -0.7731  0.2895  0.1811
  196MOL    O2435514   6.832   8.045   5.076  0.3244 -0.4049 -0.4152
  196MOL    H2535515   6.574   7.859   4.984  1.8164 -2.0203  1.2644
  196MOL    H2635516   6.537   8.045   4.817  2.9999 -1.1818 -1.6757
  196MOL    H2735517   6.525   8.112   4.982  0.0212 -0.1184 -0.4620
  196MOL    H2835518   6.656   8.134   4.879  0.2892 -0.3888  1.1674
  196MOL    C2935519   6.934   8.076   5.168 -0.1674  0.3246 -0.7391
  196MOL    C3035520   7.009   0.048   5.114 -0.6860 -0.1913 -0.4428
  196MOL    C3135521   7.024   7.958   5.205 -0.1218 -0.1292 -0.9337
  196MOL    O3235522   7.028   7.918   5.321  0.6251  0.7480  0.4960
  196MOL    O3335523   7.095   7.920   5.103  0.3284 -0.7544 -0.9696
  196MOL    H3435524   6.885   8.109   5.260  0.2296  2.1658 -1.1620
  196MOL    H3535525   6.935   0.119   5.079 -1.0701 -1.7328 -2.8890
  196MOL    H3635526   7.076   0.098   5.184 -1.4154  1.2419 -0.7538
  196MOL    H3735527   7.074   0.019   5.031 -0.4231  0.1154 -0.3435
  196MOL    C3835528   7.213   7.849   5.124 -0.1902  0.7927 -0.2133
  196MOL    C3935529   7.327   7.905   5.034  0.3763  0.2946 -0.1115
  196MOL    C4035530   7.200   7.701   5.086 -0.2693 -0.6215  0.2988
  196MOL    O4135531   7.106   7.656   5.023  0.2162  0.7424  0.3418
  196MOL    O4235532   7.304   7.622   5.134  0.7723 -0.7862 -0.3184
  196MOL    H4335533   7.250   7.856   5.226  2.7482  0.2681 -1.2073
  196MOL    H4435534   7.321   8.014   5.036 -3.3098  0.1493  1.4112
  196MOL    H4535535   7.423   7.873   5.073 -0.0989 -1.2525 -0.1813
  196MOL    H4635536   7.319   7.866   4.933 -2.2215  0.3681  0.0207
  196MOL    C4735537   7.299   7.485   5.123 -0.2387  0.7776 -0.1737
  196MOL    C4835538   7.354   7.419   5.252 -0.0730  0.2838 -0.4485
  196MOL    C4935539   7.381   7.443   4.995 -0.3061 -0.4976  0.2821
  196MOL    O5035540   7.415   7.526   4.904  0.0609 -0.2492 -0.2914
  196MOL    O5135541   7.401   7.313   4.989  0.7981 -0.0921 -0.5236
  196MOL    H5235542   7.196   7.450   5.116 -0.4004  1.0617  0.7188
  196MOL    H5335543   7.351   7.311   5.246 -1.5650  0.3829 -1.6933
  196MOL    H5435544   7.457   7.453   5.265  1.3263 -3.6398 -0.7684
  196MOL    H5535545   7.312   7.449   5.348 -0.6462 -1.8124 -0.0317
  196MOL    C5635546   7.471   7.251   4.886 -0.2141 -0.2173 -0.3754
  196MOL    C5735547   7.457   7.100   4.922 -0.3368  0.4288  0.3887
  196MOL    C5835548   7.617   7.293   4.885 -0.7607 -0.0673 -0.4105
  196MOL    O5935549   7.709   7.228   4.938 -0.4476 -0.0293  0.2146
  196MOL    O6035550   7.634   7.396   4.801  0.2809 -0.0235 -0.2387
  196MOL    H6135551   7.424   7.259   4.788 -0.0797  0.3541 -0.3991
  196MOL    H6235552   7.515   7.079   5.012  1.8751  1.1146 -0.8427
  196MOL    H6335553   7.353   7.071   4.941 -0.8844  0.4699 -2.2936
  196MOL    H6435554   7.493   7.029   4.848  0.0388  0.8215  0.1938
  196MOL    C6535555   7.767   7.456   4.791 -0.1163 -0.4428  0.0970
  196MOL    C6635556   7.799   7.551   4.911 -0.2382  0.7456  0.4755
  196MOL    C6735557   7.781   7.555   4.671  0.1581  0.1692 -0.4275
  196MOL    O6835558   7.891   7.596   4.632  0.2013 -0.4606  0.7133
  196MOL    O6935559   7.659   7.592   4.622  0.0524 -0.1493 -0.8899
  196MOL    H7035560   7.845   7.382   4.772  0.6633  0.4615 -0.2475
  196MOL    H7135561   7.755   7.648   4.888 -0.5257  0.7374  0.9751
  196MOL    H7235562   7.768   7.527   5.013  2.4916  1.4887  1.5264
  196MOL    H7335563   7.908   7.552   4.915 -0.2059  2.0673 -0.6999
  196MOL    C7435564   7.648   7.701   4.528 -0.4130  0.8111 -1.1708
  196MOL    C7535565   7.709   7.662   4.400 -0.4396  0.0297 -0.1705
  196MOL    C7635566   7.690   7.835   4.590 -0.4242  0.0942  0.0775
  196MOL    O7735567   7.719   7.932   4.521 -0.1343 -0.0558  0.5293
  196MOL    O7835568   7.681   7.847   4.725  0.1689 -0.3662  0.2406
  196MOL    H7935569   7.542   7.712   4.509 -0.3186  3.2084 -0.4314
  196MOL    H8035570   7.816   7.638   4.394 -0.7329 -1.2391 -0.4363
  196MOL    H8135571   7.656   7.569   4.385  1.3159 -0.9702 -0.3108
  196MOL    H8235572   7.681   7.721   4.313 -1.5404 -0.0706  0.1133
  196MOL    C8335573   7.661   7.968   4.795 -0.2589  0.5533 -0.6379
  196MOL    C8435574   7.653   7.938   4.947  0.3138  0.4766  0.2889
  196MOL    C8535575   7.536   8.046   4.749 -0.4716  0.3473 -0.0610
  196MOL    O8635576   7.444   7.992   4.691 -0.4168  0.4781 -0.2571
  196MOL    O8735577   7.546   0.037   4.771  0.0551 -0.1518  0.1106
  196MOL    H8835578   7.742   8.040   4.783  1.4808 -1.2854 -0.1788
  196MOL    H8935579   7.751   7.926   4.993  0.2033 -0.8557  0.2062
  196MOL    H9035580   7.596   8.011   5.005 -0.8071  0.8320 -1.2296
  196MOL    H9135581   7.598   7.844   4.954  0.6810  0.3352  1.5320
  196MOL    C9235582   7.449   0.125   4.725  0.1547  0.4433 -0.3565
  196MOL    C9335583   7.484   0.264   4.784 -0.1907  0.1709  0.3616
  196MOL    C9435584   7.301   0.091   4.771  0.0561 -0.2913  0.2604
  196MOL    O9535585   7.274   0.087   4.888  0.4880 -0.2794 -0.7123
  196MOL    O9635586   7.218   0.064   4.672  0.4290  0.0568 -0.3948
  196MOL    H9735587   7.450   0.128   4.616  0.5552 -0.1769 -0.3702
  196MOL    H9835588   7.418   0.330   4.727  0.0537 -0.2816 -0.4648
  196MOL    H9935589   7.454   0.281   4.887  1.7024 -0.3528  1.0133
  196MOL   H10035590   7.590   0.288   4.775 -0.5123  1.5500  0.1790
  196MOL   C10135591   7.076   0.037   4.706 -0.2703  0.2621  0.4133
  196MOL   C10235592   7.058   8.033   4.740 -0.1461  0.0717 -0.6207
  196MOL   C10335593   6.988   0.097   4.606  0.0321 -0.4623  0.3220
  196MOL   O10435594   6.939   0.031   4.514  0.6434 -0.2851 -0.4856
  196MOL   O10535595   6.966   0.227   4.626  0.3758  0.3124  0.2132
  196MOL   H10635596   7.038   0.086   4.796  1.4809  1.8985  0.3131
  196MOL   H10735597   7.087   8.004   4.841  1.2747  1.3437 -0.6314
  196MOL   H10835598   6.950   8.020   4.735 -0.3789  1.3779  0.5951
  196MOL   H10935599   7.104   7.976   4.660  0.7119 -0.1444  0.0145
  196MOL   C11035600   6.863   0.296   4.565 -0.4598 -0.1159 -0.3063
  196MOL   C11135601   6.900   0.433   4.609  0.2553 -0.8987 -0.6577
  196MOL   C11235602   6.715   0.254   4.597  0.3240  0.0520  0.1310
  196MOL   O11335603   6.677   0.172   4.685  0.1675  0.7975 -0.5698
  196MOL   O11435604   6.626   0.320   4.516 -0.0660 -0.1064  0.3271
  196MOL   H11535605   6.872   0.282   4.457  1.7669 -1.2807 -0.0083
  196MOL   H11635606   6.825   0.508   4.580 -1.1320 -1.7168  0.7220
  196MOL   H11735607   6.903   0.441   4.718  1.2107  0.7361 -0.7826
  196MOL   H11835608   6.991   0.453   4.553  1.7385 -0.3131  1.8636
  196MOL   C11935609   6.487   0.312   4.547 -0.4340  0.2407 -0.6922
  196MOL   C12035610   6.397   0.325   4.428 -0.7091 -0.2094  0.0401
  196MOL   C12135611   6.444   0.401   4.667 -0.2508  0.1859 -0.1471
  196MOL   O12235612   6.371   0.368   4.757  0.4848  0.3721 -0.2412
  196MOL   O12335613   6.504   0.518   4.650 -0.1701 -0.0274 -0.3863
  196MOL   H12435614   6.473   0.210   4.583  1.5463  0.7829  1.7957
  196MOL   H12535615   6.295   0.305   4.463 -0.9636 -0.2920 -0.7375
  196MOL   H12635616   6.393   0.426   4.388 -2.7747 -0.4209 -0.3603
  196MOL   H12735617   6.422   0.250   4.353 -0.0163  0.4299 -0.3686
  196MOL   C12835618   6.476   0.611   4.757 -0.2821 -0.0284 -0.6434
  196MOL   C12935619   6.525   0.740   4.689  0.2073  0.1322  0.1533
  196MOL   C13035620   6.569   0.586   4.883  0.0773 -0.6874 -0.1218
  196MOL   O13135621   6.624   0.682   4.947 -0.5087  0.8965 -0.3825
  196MOL   O13235622   6.588   0.462   4.908  0.3055 -0.1770  0.5705
  196MOL   H13335623   6.370   0.615   4.781 -0.3071  2.6113 -0.9893
  196MOL   H13435624   6.622   0.722   4.641  0.5368  2.3686 -0.0469
  196MOL   H13535625   6.455   0.772   4.612 -1.7779  1.2233  2.3818
  196MOL   H13635626   6.522   0.823   4.759  1.0242 -0.1838  0.5792
  196MOL   C13735627   6.662   0.425   5.024 -0.0443 -0.2949 -0.1026
  196MOL   C13835628   6.709   0.275   4.995  0.4328 -0.0722 -0.2529
  196MOL   C13935629   6.587   0.426   5.155 -0.3161 -0.2946 -0.9122
  196MOL   O14035630   6.638   0.476   5.254 -0.3108  0.3331  0.0493
  196MOL   O14135631   6.462   0.376   5.150 -0.3607 -0.1157 -0.1503
  196MOL   H14235632   6.752   0.486   5.035 -2.3807  3.0485  1.3211
  196MOL   H14335633   6.779   0.270   4.912 -0.9340  0.0145 -1.4240
  196MOL   H14435634   6.755   0.226   5.080 -1.5478 -0.1902  0.7757
  196MOL   H14535635   6.622   0.213   4.974  1.6295 -2.2276  0.9836
  196MOL   C14635636   6.380   0.356   5.265  0.5066 -0.3941  0.2744
  196MOL   C14735637   6.366   0.202   5.286 -0.2143 -0.3659 -0.6597
  196MOL   C14835638   6.240   0.420   5.252 -0.3181  0.2630  0.1176
  196MOL   O14935639   6.202   0.466   5.150  0.5231 -0.1420  0.5831
  196MOL   O15035640   6.173   0.429   5.369  0.3599  0.0199  0.3586
  196MOL   H15135641   6.429   0.393   5.355  0.8662 -0.8314  0.2605
  196MOL   H15235642   6.465   0.160   5.304 -0.0830  0.2187  0.0176
  196MOL   H15335643   6.310   0.179   5.377 -0.8663  2.0630 -0.4237
  196MOL   H15435644   6.317   0.145   5.207 -2.5554  1.0771 -0.2876
  196MOL   C15535645   6.044   0.485   5.382 -0.0953 -0.1661  0.2699
  196MOL   C15635646   6.004   0.493   5.523 -0.2761 -0.1244  0.2872
  196MOL   C15735647   5.941   0.401   5.310  0.5294 -0.0896  0.6584
  196MOL   O15835648   5.851   0.454   5.238 -0.3586  0.3976 -0.4647
  196MOL   O15935649   5.955   0.275   5.328 -0.4261 -0.1858  0.1502
  196MOL   H16035650   6.040   0.585   5.339 -0.0198 -1.5864 -3.2559
  196MOL   H16135651   5.911   0.548   5.538 -0.9947 -1.1491 -0.4756
  196MOL   H16235652   6.000   0.393   5.565  0.6074  0.1975  1.1710
  196MOL   H16335653   6.066   0.553   5.591  1.1819 -0.7687 -0.4459
  196MOL   C16435654   5.869   0.174   5.267  0.6194  0.5215  0.4893
  196MOL   C16535655   5.884   0.046   5.362 -0.2979 -0.2990  0.2662
  196MOL   C16635656   5.905   0.155   5.117  0.2821 -0.2482  0.4258
  196MOL   O16735657   5.825   0.176   5.025  0.3054 -0.3745 -0.6898
  196MOL   O16835658   6.031   0.099   5.093  0.1424 -0.8521  0.0298
  196MOL   H16935659   5.766   0.208   5.282  0.0481 -1.3548  0.9473
  196MOL   H17035660   5.830   8.104   5.332 -2.5670  1.6432 -1.6033
  196MOL   H17135661   5.989   0.017   5.364 -0.7397 -1.8602  1.9019
  196MOL   H17235662   5.852   0.063   5.465 -0.3034  1.2572  0.0275
  196MOL   C17335663   6.070   0.052   4.966 -0.1874 -0.0732 -0.1160
  196MOL   C17435664   6.185   8.107   4.996 -0.0962 -0.0382 -0.5362
  196MOL   C17535665   6.142   0.164   4.884 -0.6708  0.0704  0.3970
  196MOL   O17635666   6.129   0.177   4.766  0.5571 -0.0610  0.2764
  196MOL   O17735667   6.238   0.228   4.956  0.4672  0.2548 -0.2245
  196MOL   H17835668   5.989   0.006   4.908  0.1819  0.5382 -1.1224
  196MOL   H17935669   6.142   8.025   5.054 -0.3900  0.9402  0.6588
  196MOL   H18035670   6.223   8.064   4.904 -0.7676  0.1782 -0.9147
  196MOL   H18135671   6.273   8.142   5.051 -0.9298 -0.7691  1.2884
  196MOL   H18235672   6.288   0.287   4.901  2.0351  0.6486  1.5629
  197MOL     C135673   0.619   3.799   4.725 -0.6771 -0.1975  0.3876
  197MOL     C235674   0.543   3.709   4.631  1.0563 -0.5437  0.6359
  197MOL     C335675   0.759   3.838   4.677  0.4040 -0.1720  0.2865
  197MOL     O435676   0.785   3.848   4.558 -0.9552 -0.0781  0.2129
  197MOL     O535677   0.841   3.860   4.777  0.1531 -0.6310  0.4185
  197MOL     H635678   0.564   3.890   4.749 -1.7752 -0.8033  0.1924
  197MOL     H735679   0.589   3.610   4.635  0.7583 -0.7877 -1.2078
  197MOL     H835680   0.445   3.677   4.666  0.7065  0.2896  0.4369
  197MOL     H935681   0.541   3.750   4.530 -1.3429  0.8890  1.2050
  197MOL    H1035682   0.640   3.748   4.819  2.8214 -0.8772 -0.7034
  197MOL    C1135683   0.983   3.868   4.764  1.0427 -0.1752 -0.3009
  197MOL    C1235684   1.034   3.724   4.779 -0.5369 -0.3310 -0.4753
  197MOL    C1335685   1.039   3.961   4.872 -0.2678  0.3913 -0.4531
  197MOL    O1435686   0.969   4.005   4.962  0.0547 -0.8521  0.0777
  197MOL    O1535687   1.161   4.003   4.838 -0.5269 -0.0879  0.2468
  197MOL    H1635688   1.010   3.906   4.666 -2.0898 -1.5130 -1.7579
  197MOL    H1735689   1.129   3.715   4.728 -0.1696  1.5581 -0.1608
  197MOL    H1835690   1.055   3.699   4.883  0.1376 -1.0488 -0.7840
  197MOL    H1935691   0.967   3.653   4.731 -0.0048  0.8042 -2.9428
  197MOL    C2035692   1.232   4.097   4.916 -0.0586 -1.0835  0.1267
  197MOL    C2135693   1.317   4.183   4.824  0.4903 -0.8531  0.4920
  197MOL    C2235694   1.320   4.020   5.007  0.2534 -0.3570 -0.1585
  197MOL    O2335695   1.287   4.005   5.125 -0.1583 -0.4988  0.2580
  197MOL    O2435696   1.425   3.961   4.950  0.7641 -0.5487  0.2759
  197MOL    H2535697   1.169   4.168   4.970  0.4844 -0.8321  0.4358
  197MOL    H2635698   1.246   4.231   4.757  1.3392 -0.2502  0.0133
  197MOL    H2735699   1.361   4.274   4.865  1.2578 -0.6054 -0.8487
  197MOL    H2835700   1.392   4.133   4.763  1.8066  1.8480 -0.2003
  197MOL    C2935701   1.509   3.864   5.019  0.2677 -0.3740  0.6416
  197MOL    C3035702   1.654   3.893   4.968 -0.0658  0.6969  0.0236
  197MOL    C3135703   1.459   3.728   4.991  0.1251  0.6303  0.0250
  197MOL    O3235704   1.402   3.697   4.888 -0.5522 -0.4293  0.4873
  197MOL    O3335705   1.487   3.641   5.087  0.6010 -0.4763  0.1310
  197MOL    H3435706   1.501   3.880   5.127  0.9184 -0.3515  0.6898
  197MOL    H3535707   1.708   3.974   5.016  0.8855  0.4586 -0.6186
  197MOL    H3635708   1.719   3.809   4.995 -1.5459  0.1589  2.0207
  197MOL    H3735709   1.671   3.917   4.863 -1.0176  1.5343  0.0658
  197MOL    C3835710   1.440   3.505   5.078  0.3688 -0.4410 -0.1775
  197MOL    C3935711   1.433   3.446   5.219 -0.5359 -0.0995 -0.0700
  197MOL    C4035712   1.529   3.416   4.988 -0.3594 -0.5260  0.3497
  197MOL    O4135713   1.625   3.462   4.920  0.0862  0.3506  0.3280
  197MOL    O4235714   1.499   3.285   4.987  0.2897  0.1254  0.6213
  197MOL    H4335715   1.341   3.504   5.032  1.3240  1.7905 -2.3652
  197MOL    H4435716   1.526   3.443   5.276 -0.9142  0.9566  0.6146
  197MOL    H4535717   1.357   3.506   5.270 -1.7133 -0.8827 -0.8814
  197MOL    H4635718   1.403   3.342   5.212  1.3907 -0.7212  0.5797
  197MOL    C4735719   1.588   3.185   4.919  0.3976 -0.3374 -1.1560
  197MOL    C4835720   1.508   3.060   4.879 -0.0298  0.1069 -0.2282
  197MOL    C4935721   1.702   3.153   5.022  0.1700 -0.3079  0.1416
  197MOL    O5035722   1.701   3.188   5.137  0.1677  0.0368  0.2162
  197MOL    O5135723   1.804   3.087   4.961  0.1388 -0.2548  0.2551
  197MOL    H5235724   1.635   3.231   4.833 -0.4391  0.9018 -0.9573
  197MOL    H5335725   1.534   3.026   4.779 -0.0590  1.5371 -0.7354
  197MOL    H5435726   1.523   2.983   4.955  0.5047 -0.6984 -1.1340
  197MOL    H5535727   1.402   3.086   4.883 -0.3697 -1.0058 -1.6701
  197MOL    C5635728   1.927   3.076   5.029 -0.9091 -0.0243  0.1342
  197MOL    C5735729   2.011   3.205   4.995  0.0297  0.1504 -0.0162
  197MOL    C5835730   2.002   2.949   4.981 -0.0744 -0.2086  0.3399
  197MOL    O5935731   1.956   2.867   4.904 -0.3581 -0.2822 -1.4781
  197MOL    O6035732   2.126   2.933   5.034  0.2443 -0.3663 -0.0732
  197MOL    H6135733   1.923   3.072   5.138  0.5080 -0.8719  0.1559
  197MOL    H6235734   2.017   3.202   4.886 -2.0462  0.7967 -0.1499
  197MOL    H6335735   1.960   3.297   5.021  1.4678  0.4121  1.9307
  197MOL    H6435736   2.105   3.211   5.050 -0.9386  1.4990  1.5040
  197MOL    C6535737   2.217   2.838   4.995  0.3206 -0.4954 -0.1333
  197MOL    C6635738   2.334   2.830   5.092 -0.6944 -0.4450 -0.0736
  197MOL    C6735739   2.260   2.860   4.848  0.6913  0.6619  0.0134
  197MOL    O6835740   2.229   2.782   4.758 -0.4971  0.0127  0.5161
  197MOL    O6935741   2.337   2.967   4.835  0.4282  0.1614  0.0162
  197MOL    H7035742   2.168   2.740   4.997 -0.1542 -0.2590  0.0276
  197MOL    H7135743   2.407   2.753   5.066 -0.5185  0.1135 -1.2610
  197MOL    H7235744   2.384   2.926   5.094  0.6171 -1.0889  3.6643
  197MOL    H7335745   2.293   2.801   5.189 -0.1780  0.6338  0.4661
  197MOL    C7435746   2.398   2.989   4.698 -0.0090  0.2497 -0.4457
  197MOL    C7535747   2.502   3.107   4.711  0.5558  0.4898  0.1028
  197MOL    C7635748   2.285   3.021   4.599 -0.5320 -0.2411 -0.5858
  197MOL    O7735749   2.272   2.953   4.497 -0.1353 -0.0834  0.2041
  197MOL    O7835750   2.213   3.129   4.635 -0.0680  0.1455  0.6270
  197MOL    H7935751   2.445   2.895   4.670  1.6254  0.7087  0.7220
  197MOL    H8035752   2.502   3.167   4.802  0.7944 -0.4239  0.7151
  197MOL    H8135753   2.598   3.057   4.703 -1.0937 -3.1194  1.5061
  197MOL    H8235754   2.492   3.174   4.626  0.0543 -0.0725 -0.2939
  197MOL    C8335755   2.095   3.171   4.568  0.2088 -0.3311  0.2216
  197MOL    C8435756   2.093   3.306   4.631  0.1684 -0.0789  0.1401
  197MOL    C8535757   1.961   3.088   4.604  1.1402  0.4960 -0.3204
  197MOL    O8635758   1.864   3.142   4.659 -0.2917  0.3861 -0.0713
  197MOL    O8735759   1.966   2.955   4.558  0.3867 -0.1387  0.4223
  197MOL    H8835760   2.105   3.186   4.460  0.6902  4.1067  0.7952
  197MOL    H8935761   2.100   3.312   4.740  0.1601  0.3694  0.1160
  197MOL    H9035762   2.177   3.368   4.600  1.1937 -1.6042 -0.1702
  197MOL    H9135763   2.007   3.365   4.601  1.5371  2.3698  0.9078
  197MOL    C9235764   1.846   2.880   4.547 -0.1246 -1.0321 -0.4436
  197MOL    C9335765   1.877   2.736   4.579  0.6290 -0.0035  0.4478
  197MOL    C9435766   1.791   2.887   4.401 -0.0785 -0.7378  0.8453
  197MOL    O9535767   1.857   2.929   4.308 -0.3467  0.0242 -0.1149
  197MOL    O9635768   1.652   2.850   4.387 -0.0688 -0.2716 -0.6727
  197MOL    H9735769   1.773   2.916   4.620  0.4112  1.6368 -1.1473
  197MOL    H9835770   1.876   2.718   4.686 -1.4226 -0.4515  0.3774
  197MOL    H9935771   1.807   2.661   4.542  1.9447 -0.4396 -1.2030
  197MOL   H10035772   1.978   2.717   4.543  0.0019 -0.6816 -0.9898
  197MOL   C10135773   1.595   2.839   4.249  0.0325  0.0070 -0.0315
  197MOL   C10235774   1.442   2.830   4.263 -0.2131  0.4752  0.5190
  197MOL   C10335775   1.649   2.711   4.184  0.0771 -0.4069 -0.2073
  197MOL   O10435776   1.667   2.702   4.065  0.2714  0.9358  0.6280
  197MOL   O10535777   1.683   2.616   4.270  0.3867 -0.5322 -0.4123
  197MOL   H10635778   1.628   2.916   4.180 -2.1259 -1.3290 -2.6023
  197MOL   H10735779   1.419   2.755   4.339  1.6226 -0.8132 -0.1726
  197MOL   H10835780   1.413   2.925   4.308  0.3442  1.1397 -0.5210
  197MOL   H10935781   1.394   2.816   4.166  2.0694 -2.2300 -0.2835
  197MOL   C11035782   1.768   2.504   4.240 -0.2609  0.6068  0.3617
  197MOL   C11135783   1.792   2.426   4.373  0.9228 -0.1334  0.2794
  197MOL   C11235784   1.900   2.532   4.171 -0.0939  0.5738 -0.0626
  197MOL   O11335785   1.950   2.436   4.109  0.3180 -0.3960 -0.0204
  197MOL   O11435786   1.957   2.649   4.203 -0.0650  0.3086 -0.2109
  197MOL   H11535787   1.709   2.447   4.168 -0.1538  0.3807  0.4534
  197MOL   H11635788   1.711   2.419   4.445  1.7991  0.0833  1.2946
  197MOL   H11735789   1.825   2.324   4.349 -0.9590 -0.3084 -1.7735
  197MOL   H11835790   1.882   2.464   4.422  0.1532  2.9613 -0.5929
  197MOL   C11935791   2.080   2.677   4.132 -0.6222  0.4251 -0.5008
  197MOL   C12035792   2.187   2.732   4.231 -0.5756  0.8664 -0.0577
  197MOL   C12135793   2.051   2.770   4.009  1.2877  0.2603 -0.1237
  197MOL   O12235794   2.114   2.871   3.983 -0.0817  0.0184 -0.5304
  197MOL   O12335795   1.955   2.720   3.933 -0.3411  0.1455 -0.7746
  197MOL   H12435796   2.136   2.593   4.092 -2.2831 -1.5792  1.2804
  197MOL   H12535797   2.269   2.769   4.169 -0.4970 -1.1465 -1.2151
  197MOL   H12635798   2.152   2.821   4.283  1.0508  0.4701  1.7450
  197MOL   H12735799   2.208   2.657   4.306  2.0721  2.2839  0.6760
  197MOL   C12835800   1.941   2.762   3.794  0.1293  0.4866  0.0101
  197MOL   C12935801   1.782   2.757   3.762 -0.0713  0.3829 -0.5714
  197MOL   C13035802   2.020   2.660   3.703  0.2380 -0.1150 -1.0556
  197MOL   O13135803   2.120   2.686   3.633 -0.2091  0.0260  0.7415
  197MOL   O13235804   1.967   2.534   3.725 -0.7390  0.2359 -0.4877
  197MOL   H13335805   1.970   2.862   3.762  0.3760  0.3206 -0.2857
  197MOL   H13435806   1.735   2.830   3.829 -1.5057 -0.1495 -0.9814
  197MOL   H13535807   1.744   2.784   3.663 -1.4995 -1.0567 -0.4363
  197MOL   H13635808   1.743   2.660   3.792 -0.0052  0.9487  1.3877
  197MOL   C13735809   2.034   2.420   3.672 -0.4974  0.5148  0.5647
  197MOL   C13835810   1.932   2.319   3.624  0.3900 -0.3911 -0.6266
  197MOL   C13935811   2.120   2.367   3.783 -0.1802 -0.4373  0.4670
  197MOL   O14035812   2.099   2.257   3.830 -0.2865 -0.0035  0.4566
  197MOL   O14135813   2.215   2.453   3.821  0.3329  0.0084 -0.2346
  197MOL   H14235814   2.086   2.449   3.580 -0.4194  0.0098  0.4475
  197MOL   H14335815   1.869   2.306   3.711 -0.6118 -1.7197 -1.5370
  197MOL   H14435816   1.872   2.354   3.540  0.4872  0.4680 -0.3419
  197MOL   H14535817   1.982   2.229   3.588  0.7518 -0.9018  1.0886
  197MOL   C14635818   2.328   2.411   3.904  0.4281 -0.0369 -0.5919
  197MOL   C14735819   2.438   2.518   3.902  0.2003  0.2708 -0.3582
  197MOL   C14835820   2.390   2.284   3.852  0.6254  0.6391 -0.0767
  197MOL   O14935821   2.423   2.195   3.924 -0.0120  0.6001  1.0991
  197MOL   O15035822   2.417   2.287   3.719 -0.2932  0.5612  0.0690
  197MOL   H15135823   2.292   2.398   4.006 -0.1060 -0.4914 -0.8309
  197MOL   H15235824   2.401   2.620   3.910  1.8659  1.0743 -2.4219
  197MOL   H15335825   2.498   2.505   3.991 -0.5194  1.0370  0.2463
  197MOL   H15435826   2.506   2.508   3.817 -0.0010 -0.4452 -0.4403
  197MOL   C15535827   2.468   2.184   3.634  0.0924  0.2012 -0.3660
  197MOL   C15635828   2.378   2.063   3.653 -0.0386  0.1720  0.9967
  197MOL   C15735829   2.613   2.164   3.672 -0.2233 -0.5396  0.5962
  197MOL   O15835830   2.693   2.256   3.676 -0.0768  0.7874  0.1595
  197MOL   O15935831   2.645   2.039   3.724 -0.2513  0.3435  0.3151
  197MOL   H16035832   2.457   2.219   3.532  2.1164 -0.2641 -0.7723
  197MOL   H16135833   2.397   1.990   3.574  0.4834  0.3490  0.9572
  197MOL   H16235834   2.385   2.012   3.749 -0.5157  1.0476  1.4961
  197MOL   H16335835   2.275   2.096   3.640 -0.0718 -0.4574 -0.4224
  197MOL   C16435836   2.778   2.010   3.769 -0.0301 -0.1129 -0.2805
  197MOL   C16535837   2.785   1.861   3.771 -0.4850 -0.4227 -0.2358
  197MOL   C16635838   2.799   2.066   3.907 -0.0950 -0.6738 -0.4395
  197MOL   O16735839   2.916   2.100   3.944  0.2085 -0.2588  0.5317
  197MOL   O16835840   2.694   2.051   3.990 -0.3846 -0.1333 -0.6451
  197MOL   H16935841   2.849   2.044   3.694 -0.1824  0.3916 -0.1974
  197MOL   H17035842   2.876   1.832   3.824 -1.2588  0.5802  1.6881
  197MOL   H17135843   2.698   1.823   3.825 -1.2097 -0.7886 -1.6408
  197MOL   H17235844   2.770   1.825   3.669  0.0393 -2.3395  0.3371
  197MOL   C17335845   2.691   2.103   4.126 -0.3034 -0.2005  0.2877
  197MOL   C17435846   2.581   2.029   4.201  0.4928 -0.6462 -0.6884
  197MOL   C17535847   2.676   2.258   4.129  0.4719  0.6879 -0.0911
  197MOL   O17635848   2.570   2.310   4.161 -0.0986  0.0838  0.3451
  197MOL   O17735849   2.787   2.317   4.091 -0.2000 -0.0877 -0.4081
  197MOL   H17835850   2.791   2.097   4.170 -0.7648 -2.1293  1.1182
  197MOL   H17935851   2.479   2.039   4.166  0.0509  0.0612  0.7885
  197MOL   H18035852   2.613   1.924   4.206  1.1831 -0.3147  3.9634
  197MOL   H18135853   2.583   2.068   4.303 -3.5725 -0.5530 -0.5917
  197MOL   H18235854   2.788   2.412   4.087 -1.5816 -0.0302  0.3633
  198MOL     C135855   1.009   5.465   4.416 -0.4071 -0.3369  0.4883
  198MOL     C235856   1.108   5.495   4.311  0.0171 -0.2078 -0.1504
  198MOL     C335857   1.068   5.442   4.554 -0.1479  0.5501  0.6086
  198MOL     O435858   1.056   5.525   4.641 -0.3535  0.2326 -0.1122
  198MOL     O535859   1.123   5.321   4.564  0.2273 -0.6363  0.2726
  198MOL     H635860   0.937   5.546   4.427  1.1198  0.8753  1.8930
  198MOL     H735861   1.171   5.410   4.285  0.8474  0.8342 -1.6403
  198MOL     H835862   1.046   5.523   4.226 -0.6575  0.3820  0.5268
  198MOL     H935863   1.183   5.569   4.339  1.4440 -1.9550  0.7902
  198MOL    H1035864   0.951   5.376   4.392 -0.3474 -0.5382  1.0808
  198MOL    C1135865   1.168   5.260   4.678 -0.0194  0.1883  0.4482
  198MOL    C1235866   1.262   5.134   4.645  0.8284 -0.1298 -0.0059
  198MOL    C1335867   1.063   5.226   4.781  0.3726 -0.0291 -0.3665
  198MOL    O1435868   1.008   5.116   4.782 -0.1616  0.2355  0.4445
  198MOL    O1535869   1.031   5.325   4.862 -0.0827  0.8438 -0.3240
  198MOL    H1635870   1.231   5.331   4.732  0.0227 -1.5288  2.7691
  198MOL    H1735871   1.223   5.081   4.558 -0.4489  1.1221 -0.2177
  198MOL    H1835872   1.362   5.173   4.622 -0.1690  1.5655 -1.6001
  198MOL    H1935873   1.276   5.065   4.728 -0.9141  0.2758  0.6453
  198MOL    C2035874   0.946   5.294   4.976  0.2570 -0.6064 -0.0606
  198MOL    C2135875   0.917   5.423   5.047 -0.0683  0.2779 -0.0303
  198MOL    C2235876   1.008   5.189   5.071 -0.3688  0.3862  0.7104
  198MOL    O2335877   1.111   5.214   5.133  0.2822  0.1560 -0.0788
  198MOL    O2435878   0.932   5.078   5.088 -0.1660  0.0634  0.1034
  198MOL    H2535879   0.847   5.258   4.946 -1.0152  1.3815  1.5481
  198MOL    H2635880   0.859   5.486   4.979  2.3936 -0.1462 -2.5920
  198MOL    H2735881   0.855   5.402   5.135  1.7270 -3.2234  0.4587
  198MOL    H2835882   1.004   5.484   5.071 -1.1130  1.6410  0.4152
  198MOL    C2935883   0.966   4.984   5.189  0.7211 -0.2001 -0.2761
  198MOL    C3035884   0.908   4.851   5.136  0.1928  0.9640 -0.0140
  198MOL    C3135885   0.906   5.033   5.330 -0.5063 -0.3112 -0.2390
  198MOL    O3235886   0.922   4.975   5.433 -0.2369 -0.2584  0.3045
  198MOL    O3335887   0.826   5.137   5.330 -0.4560  0.0057 -0.2239
  198MOL    H3435888   1.072   4.967   5.204  0.5427  0.7643  2.3956
  198MOL    H3535889   0.963   4.811   5.051 -0.0019 -0.3729  0.4783
  198MOL    H3635890   0.907   4.776   5.215 -2.9280 -0.5310 -1.4051
  198MOL    H3735891   0.802   4.855   5.115  0.4884 -0.2567 -1.8179
  198MOL    C3835892   0.777   5.197   5.449  0.8264  0.9614  0.5173
  198MOL    C3935893   0.670   5.301   5.407 -0.2507 -0.8309  0.0000
  198MOL    C4035894   0.895   5.272   5.519 -0.5475  0.3593  0.3019
  198MOL    O4135895   0.928   5.258   5.636 -0.3539 -0.2265  0.4000
  198MOL    O4235896   0.963   5.351   5.436 -0.8532  0.2395 -0.5045
  198MOL    H4335897   0.734   5.125   5.518  1.2891 -0.2684 -0.4643
  198MOL    H4435898   0.712   5.368   5.332  0.9462 -1.0051  0.5000
  198MOL    H4535899   0.575   5.256   5.378 -0.6230  0.3729 -0.6774
  198MOL    H4635900   0.655   5.356   5.500  1.1335  0.6395 -0.6321
  198MOL    C4735901   1.094   5.408   5.475 -0.1160 -0.8925  0.7824
  198MOL    C4835902   1.150   5.481   5.350  0.5883 -0.1516  0.3817
  198MOL    C4935903   1.202   5.299   5.512 -0.0394 -0.8924  0.7265
  198MOL    O5035904   1.264   5.307   5.617  0.6171  0.0435 -0.3733
  198MOL    O5135905   1.218   5.199   5.412  0.0672  0.0217  0.2507
  198MOL    H5235906   1.090   5.475   5.561  0.3183  1.1551 -0.7426
  198MOL    H5335907   1.095   5.574   5.340 -1.6354 -1.6221 -1.5774
  198MOL    H5435908   1.256   5.506   5.357 -0.3607  5.0337 -1.6051
  198MOL    H5535909   1.142   5.437   5.251 -1.0564 -0.8746  0.8150
  198MOL    C5635910   1.319   5.099   5.425  0.3659  0.2052 -0.5737
  198MOL    C5735911   1.346   5.067   5.277 -0.2300  0.0312 -0.3724
  198MOL    C5835912   1.270   4.981   5.508 -0.2472  0.5722  0.3798
  198MOL    O5935913   1.304   4.867   5.479  0.3678 -0.3916  0.3732
  198MOL    O6035914   1.203   5.021   5.608  0.2798  0.3218 -0.0675
  198MOL    H6135915   1.406   5.145   5.473  0.1128  0.9068 -0.7869
  198MOL    H6235916   1.340   5.157   5.216 -2.7949  1.5351  1.9899
  198MOL    H6335917   1.445   5.022   5.272  0.5771  1.4808  1.9431
  198MOL    H6435918   1.276   4.990   5.245  1.4664 -1.8240  0.2919
  198MOL    C6535919   1.176   4.937   5.718  0.1554  0.0316 -0.0220
  198MOL    C6635920   1.019   4.915   5.717 -0.1892  0.2826  0.0569
  198MOL    C6735921   1.217   5.001   5.846  0.2862  0.9147 -0.2479
  198MOL    O6835922   1.137   5.040   5.926 -0.4167 -0.9142 -0.0284
  198MOL    O6935923   1.352   5.016   5.856 -0.3461 -0.2004  0.0505
  198MOL    H7035924   1.217   4.836   5.714 -1.8345 -0.7517 -1.5544
  198MOL    H7135925   0.993   4.853   5.631  1.9541  0.3129 -0.6410
  198MOL    H7235926   0.967   4.866   5.800  0.1014 -0.0243  0.0596
  198MOL    H7335927   0.972   5.008   5.685 -1.3479 -0.5175 -0.6081
  198MOL    C7435928   1.405   5.131   5.924  0.0030  0.9324  0.4585
  198MOL    C7535929   1.542   5.155   5.856 -0.1374  0.5134  0.5984
  198MOL    C7635930   1.427   5.104   6.074  0.7040  0.3201  0.2138
  198MOL    O7735931   1.435   4.988   6.130 -0.6743  0.5260  0.4314
  198MOL    O7835932   1.433   5.222   6.139  0.2427 -0.2810 -0.0287
  198MOL    H7935933   1.346   5.222   5.914 -2.1967 -0.4210  0.9169
  198MOL    H8035934   1.608   5.219   5.915  0.1218  0.5856  0.2295
  198MOL    H8135935   1.587   5.057   5.845 -0.4085  0.2721  1.5178
  198MOL    H8235936   1.517   5.195   5.758  0.0639  0.4385  0.5184
  198MOL    C8335937   1.428   5.224   6.282 -0.5699  1.0415 -0.2713
  198MOL    C8435938   1.385   5.362   6.324 -0.0171  0.4357 -0.2809
  198MOL    C8535939   1.569   5.196   6.334 -0.0494 -0.4649 -0.4319
  198MOL    O8635940   1.593   5.131   6.435 -0.4969 -0.3313 -0.4564
  198MOL    O8735941   1.666   5.251   6.255  0.3028  0.4637  0.0685
  198MOL    H8835942   1.368   5.139   6.313  0.2981  0.2824 -0.6691
  198MOL    H8935943   1.463   5.437   6.308  0.0945  1.1772  3.2749
  198MOL    H9035944   1.304   5.397   6.259  0.6472  0.3727 -1.1628
  198MOL    H9135945   1.354   5.366   6.428 -0.8441 -0.9876 -0.4617
  198MOL    C9235946   1.802   5.216   6.277 -0.1936 -0.2261  0.0526
  198MOL    C9335947   1.873   5.304   6.176 -0.5337 -0.7852 -0.7671
  198MOL    C9435948   1.822   5.068   6.222  0.0198 -0.6103  0.1058
  198MOL    O9535949   1.756   5.038   6.125 -0.2989  0.3525  0.6185
  198MOL    O9635950   1.904   4.992   6.299 -0.3742  0.2667 -0.2173
  198MOL    H9735951   1.822   5.223   6.384 -3.3484 -0.2096  0.6790
  198MOL    H9835952   1.840   5.407   6.193  2.2544  0.0378 -0.0810
  198MOL    H9935953   1.978   5.313   6.203 -0.9450  1.8873  0.0867
  198MOL   H10035954   1.871   5.266   6.074 -1.0800 -3.3230  0.1518
  198MOL   C10135955   1.942   4.868   6.262  0.6571  0.7372 -0.5731
  198MOL   C10235956   1.939   4.771   6.382  0.1715  0.4088 -0.2558
  198MOL   C10335957   2.079   4.874   6.187 -0.2024  0.7230 -0.2086
  198MOL   O10435958   2.148   4.779   6.186  0.1534 -0.4704 -0.2527
  198MOL   O10535959   2.101   4.990   6.132 -0.8166  0.3250  0.2604
  198MOL   H10635960   1.879   4.818   6.189  2.0785  0.4283 -1.6219
  198MOL   H10735961   1.974   4.824   6.470  1.2215  1.8523 -1.5071
  198MOL   H10835962   1.836   4.742   6.403  0.9220 -1.4668  0.9022
  198MOL   H10935963   2.000   4.683   6.367 -1.0745 -0.4310 -0.4872
  198MOL   C11035964   2.219   5.013   6.063 -0.6435 -0.9310  0.0895
  198MOL   C11135965   2.307   5.115   6.145 -0.5328  0.0095 -0.4721
  198MOL   C11235966   2.184   5.048   5.920  0.1982  0.1790 -0.0892
  198MOL   O11335967   2.234   5.154   5.870  0.1362  0.3229 -0.1490
  198MOL   O11435968   2.092   4.966   5.858 -0.1033 -0.4592  0.1492
  198MOL   H11535969   2.280   4.924   6.047 -1.0174 -1.2975  0.6699
  198MOL   H11635970   2.254   5.196   6.195 -0.2147 -0.3105  0.3917
  198MOL   H11735971   2.369   5.061   6.216 -0.5925  0.7648  0.1563
  198MOL   H11835972   2.361   5.177   6.073 -1.3423  0.9040 -0.3203
  198MOL   C11935973   2.035   5.012   5.735 -0.0648 -0.3513  0.1319
  198MOL   C12035974   1.888   4.975   5.734  0.5702  0.9153  0.5923
  198MOL   C12135975   2.123   4.954   5.627 -0.6634 -0.7962  0.2449
  198MOL   O12235976   2.072   4.870   5.556  0.1265  0.7325 -0.4348
  198MOL   O12335977   2.253   5.009   5.614 -0.0879 -0.1826 -0.2626
  198MOL   H12435978   2.041   5.119   5.717  1.9188 -0.2427  1.1854
  198MOL   H12535979   1.834   5.001   5.825 -1.3047  2.5395 -0.9470
  198MOL   H12635980   1.833   5.031   5.658 -1.9706 -0.4222  1.3600
  198MOL   H12735981   1.880   4.867   5.723 -1.6702  1.1056  0.0503
  198MOL   C12835982   2.328   4.986   5.498 -0.2685  0.0145 -0.1481
  198MOL   C12935983   2.468   5.047   5.524 -0.6943  0.5719 -1.1755
  198MOL   C13035984   2.260   5.056   5.379 -0.6618  0.3496 -0.1487
  198MOL   O13135985   2.230   5.178   5.382 -0.3128 -0.1093 -0.3741
  198MOL   O13235986   2.237   4.980   5.281 -0.1746  0.0564  0.4478
  198MOL   H13335987   2.345   4.879   5.480 -0.2365  0.1322 -0.8325
  198MOL   H13435988   2.464   5.149   5.561  1.4531 -0.8601  3.3453
  198MOL   H13535989   2.529   4.981   5.586 -2.1544  1.9272  1.7718
  198MOL   H13635990   2.534   5.056   5.437  3.2016 -3.3740  1.1444
  198MOL   C13735991   2.203   5.030   5.155 -0.2138 -0.2675 -0.2833
  198MOL   C13835992   2.138   4.921   5.076  0.2014  0.2109  0.5020
  198MOL   C13935993   2.321   5.091   5.081 -0.3232 -0.3312  0.5478
  198MOL   O14035994   2.426   5.091   5.133  0.2125 -0.0624  0.0058
  198MOL   O14135995   2.289   5.153   4.965  0.1653  0.6573  0.3420
  198MOL   H14235996   2.131   5.112   5.154  0.4607  0.3614 -3.2654
  198MOL   H14335997   2.093   4.954   4.983  0.7337  1.4521  0.6740
  198MOL   H14435998   2.217   4.855   5.042 -0.8107 -0.8372  0.1591
  198MOL   H14535999   2.055   4.878   5.132 -0.5663 -0.5335 -1.1770
  198MOL   C14636000   2.376   5.251   4.910 -0.1516 -0.3994 -0.0436
  198MOL   C14736001   2.506   5.202   4.855 -0.5200  0.2458 -0.0725
  198MOL   C14836002   2.397   5.364   5.009 -0.1256 -0.2285 -0.0086
  198MOL   O14936003   2.509   5.407   5.042  0.9781  0.5287  0.6128
  198MOL   O15036004   2.278   5.409   5.057 -0.0527 -0.1909 -0.0752
  198MOL   H15136005   2.323   5.298   4.827 -1.5521  1.4511  1.8520
  198MOL   H15236006   2.571   5.146   4.922  0.5156  0.2366 -1.0618
  198MOL   H15336007   2.484   5.135   4.772 -0.1026  0.0167 -0.0023
  198MOL   H15436008   2.576   5.276   4.817 -2.4091  1.5597 -1.0775
  198MOL   C15536009   2.276   5.529   5.132 -0.0042 -0.1969 -0.1146
  198MOL   C15636010   2.161   5.509   5.234 -0.2142  0.2877  0.1817
  198MOL   C15736011   2.242   5.643   5.039  0.2567 -0.1059  0.0899
  198MOL   O15836012   2.184   5.739   5.082  0.8635  0.4098  0.4905
  198MOL   O15936013   2.283   5.630   4.911  0.2229 -0.1116 -0.2111
  198MOL   H16036014   2.371   5.552   5.180 -0.2529  1.4661 -0.4014
  198MOL   H16136015   2.069   5.480   5.183 -0.5090  2.6534 -0.6783
  198MOL   H16236016   2.190   5.427   5.300 -2.3470 -0.7132 -0.0500
  198MOL   H16336017   2.151   5.600   5.293  1.3535  0.7391 -0.2228
  198MOL   C16436018   2.278   5.729   4.809  0.7081  0.0593 -0.5833
  198MOL   C16536019   2.293   5.654   4.679 -0.2161 -0.2917 -0.0542
  198MOL   C16636020   2.396   5.830   4.830 -0.1720  0.8702 -0.1288
  198MOL   O16736021   2.498   5.824   4.761 -0.0781 -0.3873  0.7061
  198MOL   O16836022   2.377   5.909   4.942 -0.3903 -0.0967  0.5330
  198MOL   H16936023   2.183   5.782   4.815  1.3554  1.0855  0.9541
  198MOL   H17036024   2.304   5.719   4.592 -2.0541  0.2091  0.0705
  198MOL   H17136025   2.384   5.594   4.686  0.0790  0.3804  2.2682
  198MOL   H17236026   2.218   5.578   4.657  0.8810 -1.4865  0.2741
  198MOL   C17336027   2.477   5.999   4.992  0.5124 -0.1168  0.1876
  198MOL   C17436028   2.439   6.033   5.133 -0.4608  0.6524  0.0300
  198MOL   C17536029   2.510   6.109   4.903 -0.5785 -0.2728 -0.8612
  198MOL   O17636030   2.471   6.226   4.919  0.0852  0.1680 -0.5930
  198MOL   O17736031   2.583   6.076   4.790  0.0812 -1.0078  0.4037
  198MOL   H17836032   2.573   5.948   4.999  0.7718  0.0314 -1.9244
  198MOL   H17936033   2.420   5.941   5.188 -1.0758  0.1387 -1.0455
  198MOL   H18036034   2.524   6.081   5.183 -1.1379  3.3296 -1.2931
  198MOL   H18136035   2.345   6.088   5.139 -1.2679 -0.8461  1.6026
  198MOL   H18236036   2.592   5.982   4.783  2.4268 -0.9976  2.4401
  199MOL     C136037   0.728   4.965   0.311  0.2610  0.7149 -0.2683
  199MOL     C236038   0.723   4.924   0.158  0.6237  0.7806  0.2694
  199MOL     C336039   0.778   4.862   0.411  0.1060 -0.5780  0.1911
  199MOL     O436040   0.707   4.770   0.451  0.0560  0.5279  0.1794
  199MOL     O536041   0.908   4.880   0.434  0.7765  0.6148  0.3026
  199MOL     H636042   0.788   5.054   0.327  0.3787  0.5721  0.0955
  199MOL     H736043   0.651   4.844   0.145 -1.6806  2.7089  0.9179
  199MOL     H836044   0.682   5.004   0.096  1.2081  0.2308 -0.8447
  199MOL     H936045   0.826   4.903   0.129  0.8482  1.3917  0.5984
  199MOL    H1036046   0.627   4.988   0.347  0.5094  0.2896  0.7274
  199MOL    C1136047   0.985   4.772   0.492  0.7686 -0.5160  0.0556
  199MOL    C1236048   0.978   4.781   0.646 -0.1375 -0.3024 -0.1089
  199MOL    C1336049   1.135   4.779   0.441  0.2950  0.1889 -0.6897
  199MOL    O1436050   1.234   4.788   0.514  0.0167 -0.5869 -0.0218
  199MOL    O1536051   1.141   4.782   0.300 -0.5566 -0.6647  0.1443
  199MOL    H1636052   0.937   4.676   0.475 -0.9458  0.1684  0.8458
  199MOL    H1736053   0.873   4.763   0.670 -0.1851 -0.9691 -0.7979
  199MOL    H1836054   1.038   4.698   0.684 -0.6829 -0.0800  1.2740
  199MOL    H1936055   1.023   4.873   0.685  1.2946 -0.3941 -1.5112
  199MOL    C2036056   1.263   4.775   0.220 -0.1601 -0.7323 -0.1543
  199MOL    C2136057   1.307   4.625   0.212 -0.2523  0.2416  0.5541
  199MOL    C2236058   1.375   4.867   0.274  0.3747 -0.2388  0.2497
  199MOL    O2336059   1.351   4.980   0.311  0.2461 -0.6233 -0.6330
  199MOL    O2436060   1.498   4.813   0.281  0.2221  0.3533 -0.6712
  199MOL    H2536061   1.236   4.814   0.122 -1.5380 -1.1775  0.0269
  199MOL    H2636062   1.397   4.615   0.151  1.9084  0.0691  3.6085
  199MOL    H2736063   1.337   4.585   0.309  1.5683  0.1152 -0.0273
  199MOL    H2836064   1.222   4.568   0.176  0.3095 -0.6504  0.6028
  199MOL    C2936065   1.609   4.891   0.311 -0.0289  0.0839  0.2965
  199MOL    C3036066   1.714   4.871   0.205 -0.4953 -0.2738  0.2556
  199MOL    C3136067   1.675   4.844   0.443  0.9078 -0.4563  0.2756
  199MOL    O3236068   1.683   4.922   0.533  0.5918  0.1390 -0.5532
  199MOL    O3336069   1.725   4.716   0.433 -0.0630 -0.2918 -0.5129
  199MOL    H3436070   1.588   4.996   0.329  0.0449 -0.6607  5.4114
  199MOL    H3536071   1.792   4.947   0.211 -0.7269 -0.1885  2.3943
  199MOL    H3636072   1.756   4.771   0.210  0.3612  0.0797  0.2633
  199MOL    H3736073   1.679   4.881   0.102  0.1575  0.4756  0.1026
  199MOL    C3836074   1.778   4.655   0.549 -0.3690  0.3161 -0.2501
  199MOL    C3936075   1.834   4.516   0.510  0.1572 -0.1140 -0.1471
  199MOL    C4036076   1.679   4.644   0.675 -0.7441 -0.0592  0.5572
  199MOL    O4136077   1.559   4.620   0.666  0.1328 -0.2135 -0.5005
  199MOL    O4236078   1.747   4.663   0.792  0.9864 -0.0502  0.4755
  199MOL    H4336079   1.870   4.709   0.575  1.6204 -2.3306 -1.5728
  199MOL    H4436080   1.871   4.521   0.407 -2.5832  0.2499 -1.1455
  199MOL    H4536081   1.918   4.486   0.573 -0.5053 -0.8690  0.3823
  199MOL    H4636082   1.754   4.442   0.498  1.6953 -2.0336  1.1528
  199MOL    C4736083   1.695   4.639   0.926 -0.0787  0.5609  0.3695
  199MOL    C4836084   1.707   4.486   0.964 -0.4519  0.2269  0.0778
  199MOL    C4936085   1.555   4.692   0.957  0.7400  0.2633  0.1369
  199MOL    O5036086   1.472   4.626   1.020  0.4649 -0.8643  0.5729
  199MOL    O5136087   1.548   4.816   0.925  0.3374  0.1529 -0.5223
  199MOL    H5236088   1.771   4.690   0.986  0.1822  1.3455 -0.6157
  199MOL    H5336089   1.634   4.419   0.917  0.8575 -1.1774 -0.0077
  199MOL    H5436090   1.804   4.445   0.937  0.2727  1.8134  0.2408
  199MOL    H5536091   1.695   4.476   1.072  1.3549  0.0465  0.2743
  199MOL    C5636092   1.443   4.901   0.975 -0.0996 -0.2659  0.5457
  199MOL    C5736093   1.383   4.960   0.846 -0.1957 -0.0987 -0.1741
  199MOL    C5836094   1.502   4.994   1.080 -0.2031 -0.7253 -0.4370
  199MOL    O5936095   1.614   5.044   1.071 -0.4871 -0.6307 -0.2098
  199MOL    O6036096   1.417   5.013   1.183  0.0225  0.0153  0.0626
  199MOL    H6136097   1.349   4.861   1.011  0.7780 -2.4977  0.4173
  199MOL    H6236098   1.450   5.028   0.793  1.3691 -1.4396  0.0779
  199MOL    H6336099   1.354   4.882   0.775 -1.2157 -0.1915  0.3365
  199MOL    H6436100   1.291   5.013   0.874  0.5723  0.2121  1.7956
  199MOL    C6536101   1.448   5.084   1.306 -0.3730  0.4055  0.8621
  199MOL    C6636102   1.455   5.234   1.281 -0.5645 -0.0841 -0.7280
  199MOL    C6736103   1.571   5.021   1.377 -0.0464  0.1707 -0.0987
  199MOL    O6836104   1.653   5.088   1.429 -0.5268  0.4949  0.1519
  199MOL    O6936105   1.570   4.879   1.371  0.2391 -0.1080 -0.5510
  199MOL    H7036106   1.360   5.077   1.370  0.1712 -2.0725  1.3873
  199MOL    H7136107   1.363   5.256   1.227  0.2341  0.7716 -1.7624
  199MOL    H7236108   1.455   5.283   1.379  1.4151 -3.5548  1.1081
  199MOL    H7336109   1.538   5.257   1.214 -2.8277  1.4653 -3.0720
  199MOL    C7436110   1.679   4.802   1.413  0.2573  0.7947  0.3395
  199MOL    C7536111   1.674   4.676   1.323 -0.3835  0.0326 -0.2398
  199MOL    C7636112   1.665   4.756   1.560 -0.0857 -0.2898 -0.2438
  199MOL    O7736113   1.562   4.784   1.624 -0.7048 -0.1931 -0.6661
  199MOL    O7836114   1.774   4.687   1.597 -0.1761  0.2882 -0.2587
  199MOL    H7936115   1.770   4.862   1.411 -0.3869  1.8860  2.4004
  199MOL    H8036116   1.747   4.595   1.327 -2.2601 -1.5757  2.3050
  199MOL    H8136117   1.577   4.627   1.328 -0.4185  0.0250 -0.9616
  199MOL    H8236118   1.669   4.705   1.218  1.0051 -2.0156 -0.9044
  199MOL    C8336119   1.781   4.621   1.723  0.4295 -0.1853  1.3689
  199MOL    C8436120   1.897   4.684   1.782  0.1012 -0.0502  0.3472
  199MOL    C8536121   1.805   4.472   1.694  0.0518  0.0832 -0.0576
  199MOL    O8636122   1.841   4.439   1.580 -0.1809  0.1787 -0.2849
  199MOL    O8736123   1.790   4.387   1.795  0.3450 -0.6832  0.1014
  199MOL    H8836124   1.681   4.636   1.765 -0.3636 -0.8984 -0.2047
  199MOL    H8936125   1.986   4.640   1.737 -0.6775 -0.5329 -0.7567
  199MOL    H9036126   1.899   4.793   1.784 -1.7798 -0.0172  3.0587
  199MOL    H9136127   1.895   4.658   1.888 -2.0750  0.2721  0.4111
  199MOL    C9236128   1.775   4.250   1.783  0.0935  0.2699  0.1186
  199MOL    C9336129   1.739   4.194   1.924  0.1604 -0.0083 -0.0043
  199MOL    C9436130   1.905   4.176   1.740 -0.3759 -0.3735 -0.2513
  199MOL    O9536131   1.906   4.082   1.664  0.0718  0.8242 -0.2083
  199MOL    O9636132   2.020   4.232   1.801  0.2152  0.5931  0.2759
  199MOL    H9736133   1.696   4.238   1.710  0.8478  0.2709 -0.7067
  199MOL    H9836134   1.650   4.235   1.972  1.3903  0.7282  1.6650
  199MOL    H9936135   1.720   4.087   1.917  1.1102 -0.3490  2.1095
  199MOL   H10036136   1.824   4.194   1.992 -1.0478 -1.1566  1.5343
  199MOL   C10136137   2.150   4.179   1.774  0.1542 -0.2361 -0.5294
  199MOL   C10236138   2.253   4.218   1.885  0.0661  0.6348  0.2064
  199MOL   C10336139   2.200   4.211   1.630 -0.2818  0.0400  0.0929
  199MOL   O10436140   2.135   4.292   1.568 -0.6541 -0.5838  0.0559
  199MOL   O10536141   2.320   4.163   1.590  0.0702  0.5005 -0.0836
  199MOL   H10636142   2.143   4.070   1.777 -1.2498 -0.1225  1.0496
  199MOL   H10736143   2.356   4.201   1.853  0.5261  0.4110  1.7763
  199MOL   H10836144   2.250   4.319   1.924  1.3811  1.2972 -1.3342
  199MOL   H10936145   2.219   4.149   1.962  1.2711 -2.2040 -1.7107
  199MOL   C11036146   2.387   4.221   1.479 -0.2649 -0.1317  0.2634
  199MOL   C11136147   2.528   4.155   1.458  0.2880  0.2567 -0.2500
  199MOL   C11236148   2.410   4.370   1.504  0.3515 -0.7484 -0.6309
  199MOL   O11336149   2.466   4.409   1.605 -0.2856  1.1187  0.2098
  199MOL   O11436150   2.341   4.447   1.428 -0.0335 -0.3793 -0.2484
  199MOL   H11536151   2.325   4.211   1.390  0.2562 -0.7382 -0.0316
  199MOL   H11636152   2.598   4.219   1.403  1.4459 -1.1898 -0.5015
  199MOL   H11736153   2.575   4.126   1.552  0.3286  2.0704  0.3038
  199MOL   H11836154   2.523   4.061   1.402  1.9882  0.4651 -0.8086
  199MOL   C11936155   2.311   4.585   1.456 -0.4510 -0.4070 -0.4815
  199MOL   C12036156   2.181   4.631   1.382  0.2940 -0.3835  0.3368
  199MOL   C12136157   2.437   4.676   1.427  0.8112  0.4876  0.1436
  199MOL   O12236158   2.480   4.681   1.311  0.4756  0.1457 -0.2066
  199MOL   O12336159   2.480   4.741   1.538 -0.0042  0.2846 -0.0158
  199MOL   H12436160   2.291   4.587   1.563  0.7943  0.8155 -0.2567
  199MOL   H12536161   2.096   4.591   1.437 -0.1696  1.8434  1.3240
  199MOL   H12636162   2.167   4.739   1.379  1.3857 -0.2821 -1.8200
  199MOL   H12736163   2.168   4.586   1.284  1.2894  2.2680 -1.0869
  199MOL   C12836164   2.570   4.859   1.541  0.0221 -0.6497 -0.2914
  199MOL   C12936165   2.545   4.917   1.687 -0.2672 -0.4043 -0.3892
  199MOL   C13036166   2.537   4.973   1.439 -0.4285  0.4083 -0.0278
  199MOL   O13136167   2.628   5.007   1.360 -0.3045 -0.2373 -0.2092
  199MOL   O13236168   2.410   5.019   1.448  0.3780  0.0634 -0.0737
  199MOL   H13336169   2.674   4.834   1.524  0.0169 -0.4697 -0.5821
  199MOL   H13436170   2.437   4.929   1.699 -0.3149  0.0211 -1.2331
  199MOL   H13536171   2.602   4.860   1.760  2.5164  0.9942 -1.4044
  199MOL   H13636172   2.573   5.020   1.708 -3.7953  0.3197  1.1763
  199MOL   C13736173   2.370   5.135   1.384  0.6793 -0.1592 -0.0653
  199MOL   C13836174   2.283   5.214   1.472 -0.6362  0.5026 -0.3571
  199MOL   C13936175   2.294   5.109   1.251 -0.1027  0.2191  0.4211
  199MOL   O14036176   2.324   5.161   1.143 -0.3158  0.1322  0.0673
  199MOL   O14136177   2.180   5.040   1.269  0.0854  0.0312 -0.1453
  199MOL   H14236178   2.447   5.209   1.360 -0.3501  0.9132 -0.0955
  199MOL   H14336179   2.188   5.165   1.496 -1.2949  1.3974 -1.0867
  199MOL   H14436180   2.331   5.227   1.568 -0.5861  0.2461 -0.3478
  199MOL   H14536181   2.267   5.316   1.436 -0.3583  1.2139  1.5009
  199MOL   C14636182   2.089   5.005   1.159 -0.5832  0.2845  0.8692
  199MOL   C14736183   1.954   4.968   1.226 -0.1651  0.3608  0.0754
  199MOL   C14836184   2.143   4.878   1.073 -0.5037  0.3393 -0.7207
  199MOL   O14936185   2.090   4.766   1.088  0.2905 -0.7062  0.2138
  199MOL   O15036186   2.231   4.914   0.984 -0.3855  0.2182  0.2810
  199MOL   H15136187   2.074   5.093   1.096  1.1224 -0.5045 -0.7065
  199MOL   H15236188   1.872   4.953   1.156 -0.4637  2.6050 -0.1006
  199MOL   H15336189   1.957   4.881   1.292 -1.4236 -0.1415 -0.5280
  199MOL   H15436190   1.914   5.045   1.292  0.3350  0.0162  0.7868
  199MOL   C15536191   2.302   4.821   0.899  0.6469  0.2613  0.1724
  199MOL   C15636192   2.449   4.845   0.911  0.1459  0.0003 -0.3190
  199MOL   C15736193   2.266   4.828   0.748 -0.2876  0.3605 -0.1700
  199MOL   O15836194   2.221   4.738   0.678 -0.2855 -0.1680 -0.3596
  199MOL   O15936195   2.277   4.955   0.705  0.0860 -0.2063 -1.0438
  199MOL   H16036196   2.294   4.718   0.935  2.3097  0.2458  0.5447
  199MOL   H16136197   2.494   4.788   0.993 -1.2167 -1.0825 -0.3058
  199MOL   H16236198   2.507   4.829   0.820  1.0400 -0.7866  0.3766
  199MOL   H16336199   2.460   4.951   0.929 -0.9622  0.1610 -0.5400
  199MOL   C16436200   2.227   4.992   0.577 -0.1258  0.2404  0.2786
  199MOL   C16536201   2.311   5.113   0.534 -0.3137  0.3474 -0.1349
  199MOL   C16636202   2.072   5.027   0.576 -0.6199  0.6733  0.0952
  199MOL   O16736203   2.016   4.969   0.486  0.4906  0.1241  0.1189
  199MOL   O16836204   2.035   5.111   0.667 -0.1171 -0.1374 -0.5081
  199MOL   H16936205   2.247   4.915   0.501 -0.9522  0.2405  0.0620
  199MOL   H17036206   2.309   5.200   0.600  0.5997 -0.0884  0.4784
  199MOL   H17136207   2.418   5.091   0.529  0.1350  2.1345  0.8117
  199MOL   H17236208   2.276   5.151   0.438  0.2307  1.0647 -0.0592
  199MOL   C17336209   1.892   5.141   0.679  0.1596 -0.0113 -0.0701
  199MOL   C17436210   1.886   5.299   0.677  0.1246 -0.3700  0.0928
  199MOL   C17536211   1.838   5.078   0.806  0.0058  0.2096 -0.0993
  199MOL   O17636212   1.908   4.990   0.870  0.3350  1.0165  0.0080
  199MOL   O17736213   1.714   5.120   0.845  0.1330 -0.6042  0.1472
  199MOL   H17836214   1.843   5.094   0.594 -3.3222  0.9695  1.3390
  199MOL   H17936215   1.891   5.348   0.580 -2.5365 -0.9699 -0.3943
  199MOL   H18036216   1.782   5.325   0.696 -0.8659 -2.9047 -1.6706
  199MOL   H18136217   1.949   5.356   0.745  1.1504 -0.7886 -0.4941
  199MOL   H18236218   1.688   5.079   0.926 -0.3305  1.3610  1.0430
  200MOL     C136219   4.571   5.810   2.363 -0.1841  0.6029 -0.1862
  200MOL     C236220   4.712   5.812   2.424 -0.3744 -0.1273  0.6461
  200MOL     C336221   4.480   5.716   2.439  0.0232  0.1638 -0.6642
  200MOL     O436222   4.427   5.757   2.544  0.1055  0.1007 -0.7305
  200MOL     O536223   4.474   5.597   2.386  0.4686  0.3419  0.9597
  200MOL     H636224   4.517   5.902   2.384  0.0420  0.6288  0.2994
  200MOL     H736225   4.778   5.753   2.361  0.3936  0.6532  0.7048
  200MOL     H836226   4.761   5.909   2.424  0.4971 -0.5590  1.7104
  200MOL     H936227   4.711   5.780   2.528 -0.0419 -0.3117  0.5905
  200MOL    H1036228   4.565   5.789   2.256  1.7286 -0.8362 -0.0331
  200MOL    C1136229   4.418   5.487   2.451  0.2832 -0.4475 -0.4755
  200MOL    C1236230   4.439   5.368   2.364 -0.5686  0.1479 -0.3877
  200MOL    C1336231   4.267   5.493   2.481  0.4398 -1.1866  0.1865
  200MOL    O1436232   4.196   5.552   2.403  0.0026  0.4552  0.2064
  200MOL    O1536233   4.220   5.421   2.584 -0.1764  0.1135  0.2345
  200MOL    H1636234   4.466   5.464   2.545 -1.1340 -1.7216 -0.0436
  200MOL    H1736235   4.391   5.389   2.268 -0.7556  1.1851 -0.0763
  200MOL    H1836236   4.546   5.355   2.355 -0.7654 -1.7979 -0.0910
  200MOL    H1936237   4.390   5.284   2.415  2.4835 -1.4254  0.0692
  200MOL    C2036238   4.077   5.412   2.609 -0.1346  0.1144 -0.0593
  200MOL    C2136239   4.066   5.399   2.763 -0.5826  0.2548  0.1511
  200MOL    C2236240   4.021   5.284   2.546 -0.6646  0.0028 -0.1352
  200MOL    O2336241   4.093   5.199   2.502  0.4773 -0.1700  0.0107
  200MOL    O2436242   3.895   5.284   2.551 -0.5182  0.2741  0.2321
  200MOL    H2536243   4.031   5.507   2.580 -0.0304  0.5391  1.1440
  200MOL    H2636244   4.038   5.297   2.788  0.9844  0.1278  1.4991
  200MOL    H2736245   4.166   5.403   2.807 -0.4883 -0.5937  0.0221
  200MOL    H2836246   3.986   5.465   2.795 -0.6403 -0.5596  1.7320
  200MOL    C2936247   3.823   5.178   2.481 -0.1086  0.9111  0.6696
  200MOL    C3036248   3.699   5.250   2.419 -0.2718 -0.3635 -0.1738
  200MOL    C3136249   3.797   5.058   2.577  0.1593 -0.1698 -0.5717
  200MOL    O3236250   3.869   5.027   2.673  0.1064 -0.1792  0.1907
  200MOL    O3336251   3.670   5.003   2.552  0.1350  0.0587  0.2799
  200MOL    H3436252   3.879   5.144   2.394 -1.5607  0.8628 -0.2669
  200MOL    H3536253   3.635   5.280   2.502  0.6664 -0.5751  0.6249
  200MOL    H3636254   3.719   5.340   2.360 -1.0312 -0.7028 -0.9589
  200MOL    H3736255   3.636   5.185   2.358 -1.8308  0.0373  0.9711
  200MOL    C3836256   3.606   4.920   2.644  0.0796 -0.7324  0.0789
  200MOL    C3936257   3.484   4.859   2.572  0.1234  0.4697  0.6816
  200MOL    C4036258   3.574   5.004   2.775  0.4405 -0.0746  0.2801
  200MOL    O4136259   3.576   4.952   2.885  0.4642  0.5175 -0.1110
  200MOL    O4236260   3.550   5.131   2.747 -0.3485 -0.2736 -0.6532
  200MOL    H4336261   3.673   4.841   2.677  0.7166  0.3346  1.3920
  200MOL    H4436262   3.426   4.800   2.644 -0.2752 -0.3181 -0.2684
  200MOL    H4536263   3.423   4.937   2.527  1.9376  0.7285 -1.4248
  200MOL    H4636264   3.510   4.784   2.497  1.2494  1.4469  0.0719
  200MOL    C4736265   3.531   5.223   2.858 -0.4782 -0.5428 -0.3074
  200MOL    C4836266   3.432   5.330   2.816  0.8925  0.2962 -0.0749
  200MOL    C4936267   3.668   5.289   2.883  1.1627 -0.2479  0.4939
  200MOL    O5036268   3.734   5.331   2.793 -0.0504 -0.8585  0.6139
  200MOL    O5136269   3.707   5.283   3.013 -0.2415  0.0825  0.2245
  200MOL    H5236270   3.492   5.173   2.947 -1.4171 -1.7810 -1.3909
  200MOL    H5336271   3.469   5.409   2.750  0.7764 -0.3917 -0.9687
  200MOL    H5436272   3.344   5.286   2.770  0.5892  1.5630 -0.7418
  200MOL    H5536273   3.392   5.378   2.905 -2.3941 -2.6360  0.1027
  200MOL    C5636274   3.844   5.317   3.052  0.7625 -0.4016  0.5864
  200MOL    C5736275   3.877   5.227   3.168 -0.2435  0.1909 -0.2547
  200MOL    C5836276   3.854   5.471   3.093 -0.5958  0.4175  0.3917
  200MOL    O5936277   3.965   5.529   3.090 -0.2078 -0.2817  0.3275
  200MOL    O6036278   3.739   5.520   3.132 -0.2989  0.3158 -0.1611
  200MOL    H6136279   3.917   5.292   2.974  1.2746 -1.1431  1.2968
  200MOL    H6236280   3.884   5.126   3.127  2.2071 -0.2650  1.1906
  200MOL    H6336281   3.979   5.246   3.199  0.6793 -2.3069 -1.5552
  200MOL    H6436282   3.805   5.225   3.249 -0.8878  2.2787 -0.7654
  200MOL    C6536283   3.719   5.662   3.164 -0.0963 -0.3479  0.1283
  200MOL    C6636284   3.596   5.676   3.252 -0.4365  0.3407  0.0229
  200MOL    C6736285   3.706   5.748   3.036 -0.6301  0.4210 -0.0546
  200MOL    O6836286   3.724   5.698   2.925 -0.5116  0.0264  0.0394
  200MOL    O6936287   3.688   5.881   3.064  0.1774  0.1307 -0.1318
  200MOL    H7036288   3.804   5.701   3.220  1.0858 -2.9182  0.1879
  200MOL    H7136289   3.620   5.632   3.348 -1.6303 -2.1513 -0.7825
  200MOL    H7236290   3.566   5.778   3.277 -0.8504 -0.0395  1.0830
  200MOL    H7336291   3.514   5.626   3.199 -0.9533 -0.9002  1.9331
  200MOL    C7436292   3.702   5.987   2.963  0.2210  0.4241 -0.1805
  200MOL    C7536293   3.572   5.983   2.883 -0.0298  0.2388 -0.6970
  200MOL    C7636294   3.831   5.994   2.884 -0.0856  0.4722 -0.0590
  200MOL    O7736295   3.821   6.004   2.765 -0.0513 -0.1190 -0.1095
  200MOL    O7836296   3.949   5.995   2.960  0.3041 -0.3826 -0.1718
  200MOL    H7936297   3.705   6.079   3.022  2.5243 -0.2151  0.7660
  200MOL    H8036298   3.572   6.061   2.806  0.0488  0.7878 -0.1514
  200MOL    H8136299   3.566   5.883   2.840 -0.1117  0.6229 -1.5837
  200MOL    H8236300   3.481   6.000   2.940  0.4992 -1.2988  0.6431
  200MOL    C8336301   4.072   5.978   2.899 -0.2468  0.7623  0.0829
  200MOL    C8436302   4.125   5.837   2.886 -0.3861  0.5880 -0.4309
  200MOL    C8536303   4.168   6.071   2.980  0.1808 -0.2592  0.0030
  200MOL    O8636304   4.279   6.034   3.021 -0.9809 -0.2336 -0.2788
  200MOL    O8736305   4.118   6.195   2.999  0.4126 -0.0461  0.0622
  200MOL    H8836306   4.074   6.022   2.799  0.6567  2.4145  0.7917
  200MOL    H8936307   4.116   5.785   2.982  2.7606 -0.1247 -0.4801
  200MOL    H9036308   4.064   5.775   2.819  1.1072  0.1293 -1.3910
  200MOL    H9136309   4.227   5.828   2.848 -0.2550 -0.6009  0.1615
  200MOL    C9236310   4.191   6.299   3.067  0.8004  0.3898 -0.4146
  200MOL    C9336311   4.098   6.361   3.180 -0.5081 -0.2972  0.1346
  200MOL    C9436312   4.219   6.412   2.966 -0.1117  0.5037 -0.6263
  200MOL    O9536313   4.236   6.531   3.002 -0.0665  0.1635 -0.2234
  200MOL    O9636314   4.201   6.367   2.838  0.2631  0.1584 -0.0086
  200MOL    H9736315   4.287   6.268   3.107  1.1613  2.2163  0.1839
  200MOL    H9836316   4.145   6.403   3.269  0.8656 -1.7687  0.1240
  200MOL    H9936317   4.047   6.448   3.137  0.5497 -0.1730 -0.8805
  200MOL   H10036318   4.018   6.295   3.216  0.1435 -1.4269 -0.4505
  200MOL   C10136319   4.234   6.450   2.728 -0.9567 -0.0166  0.6758
  200MOL   C10236320   4.121   6.548   2.684  0.0330 -1.0290 -0.2516
  200MOL   C10336321   4.270   6.352   2.619 -0.0608  0.6451  0.3810
  200MOL   O10436322   4.244   6.364   2.501  0.3350  0.0680  0.2163
  200MOL   O10536323   4.365   6.255   2.661 -0.7346 -0.2650 -0.2430
  200MOL   H10636324   4.329   6.501   2.744 -0.6277 -0.1137 -0.8897
  200MOL   H10736325   4.152   6.607   2.597  1.2340  1.4843  1.8153
  200MOL   H10836326   4.027   6.501   2.653  0.2124 -0.3506 -1.9152
  200MOL   H10936327   4.095   6.612   2.768  1.7950 -0.8534  0.1831
  200MOL   C11036328   4.395   6.143   2.583  0.0397  0.4862 -0.4666
  200MOL   C11136329   4.506   6.074   2.656  0.1291  0.5118 -0.5570
  200MOL   C11236330   4.448   6.181   2.443  0.3851 -0.4784  0.4370
  200MOL   O11336331   4.405   6.114   2.347  0.6305 -0.8085 -0.0104
  200MOL   O11436332   4.543   6.275   2.442 -0.3622 -0.1241 -0.1759
  200MOL   H11536333   4.309   6.076   2.576  1.2291 -1.1251 -0.0985
  200MOL   H11636334   4.478   6.044   2.757 -2.0016 -0.0705 -1.3015
  200MOL   H11736335   4.543   5.986   2.602  0.6218 -0.1213  0.7809
  200MOL   H11836336   4.590   6.141   2.672  2.8800 -2.5883 -1.2926
  200MOL   C11936337   4.597   6.302   2.320  0.3597  0.7854  0.1892
  200MOL   C12036338   4.742   6.329   2.330 -0.1857  0.2981 -0.0479
  200MOL   C12136339   4.528   6.426   2.266 -0.0025  0.2296 -0.5046
  200MOL   O12236340   4.451   6.491   2.335  1.4546 -0.4007  0.4016
  200MOL   O12336341   4.563   6.453   2.134 -0.5388 -0.3397  0.3589
  200MOL   H12436342   4.599   6.219   2.249 -1.5116  2.5466 -2.0340
  200MOL   H12536343   4.805   6.240   2.327  0.8421  0.9752  1.0516
  200MOL   H12636344   4.779   6.394   2.252  0.1320  4.2657  3.2713
  200MOL   H12736345   4.766   6.383   2.422  0.3640  0.6346 -0.3934
  200MOL   C12836346   4.519   6.580   2.071 -0.0432  0.7872 -0.4442
  200MOL   C12936347   4.492   6.552   1.923  0.1064  0.1461  0.5399
  200MOL   C13036348   4.636   6.678   2.079 -0.0847 -0.4484  1.0396
  200MOL   O13136349   4.746   6.649   2.133 -0.3382  0.1073 -1.0611
  200MOL   O13236350   4.603   6.797   2.023  0.1700 -0.3823  0.6881
  200MOL   H13336351   4.439   6.622   2.131 -0.6527  0.8552 -1.2875
  200MOL   H13436352   4.425   6.467   1.909 -0.4917  0.8697 -1.0481
  200MOL   H13536353   4.447   6.638   1.874 -3.0648 -1.3678  0.6921
  200MOL   H13636354   4.584   6.514   1.877  0.5577  0.0244  1.5262
  200MOL   C13736355   4.694   6.899   2.009 -0.0574 -0.1508  0.0681
  200MOL   C13836356   4.636   7.037   1.975  0.3228 -0.4220  0.5037
  200MOL   C13936357   4.806   6.863   1.914  0.2821 -0.1293  0.2558
  200MOL   O14036358   4.917   6.869   1.958 -0.1051 -0.2688 -0.2304
  200MOL   O14136359   4.770   6.802   1.797 -0.2231  0.3031  0.1777
  200MOL   H14236360   4.731   6.918   2.110  1.6116 -1.2473 -0.3072
  200MOL   H14336361   4.576   7.075   2.057 -1.0464 -0.0334 -0.6485
  200MOL   H14436362   4.715   7.111   1.960 -0.0786  0.1934  1.3718
  200MOL   H14536363   4.578   7.022   1.884  0.1351  0.7094  0.4340
  200MOL   C14636364   4.872   6.741   1.722  0.5427 -0.3784 -0.8240
  200MOL   C14736365   4.812   6.723   1.583  0.2373 -0.0967 -0.2007
  200MOL   C14836366   4.935   6.615   1.785 -0.0308 -0.4338  0.1476
  200MOL   O14936367   4.879   6.534   1.853  0.4813 -0.0326 -0.1266
  200MOL   O15036368   5.062   6.612   1.751  0.2343 -0.3246  0.8047
  200MOL   H15136369   4.956   6.808   1.705 -0.2518  0.3923 -1.8461
  200MOL   H15236370   4.786   6.823   1.549  0.0234 -0.0400  0.1224
  200MOL   H15336371   4.889   6.675   1.522  0.1077 -1.8035  0.9557
  200MOL   H15436372   4.716   6.671   1.578  0.9657 -1.2663 -3.4160
  200MOL   C15536373   5.139   6.492   1.772 -0.7212 -0.1744 -0.2442
  200MOL   C15636374   5.281   6.522   1.716  0.4456 -0.2352 -0.3874
  200MOL   C15736375   5.069   6.361   1.714 -0.1177 -0.1931 -0.1332
  200MOL   O15836376   5.085   6.249   1.768 -0.1096 -0.7109  0.2161
  200MOL   O15936377   4.996   6.379   1.600  0.5353 -0.0127  0.1025
  200MOL   H16036378   5.145   6.474   1.879 -1.1329  0.5315 -0.1004
  200MOL   H16136379   5.272   6.551   1.611  0.4032 -1.8666 -0.8534
  200MOL   H16236380   5.319   6.606   1.775 -3.8060  1.3781  0.2760
  200MOL   H16336381   5.352   6.440   1.724  0.9282  0.0810 -1.4444
  200MOL   C16436382   4.932   6.281   1.522  0.5797  0.2898 -0.8113
  200MOL   C16536383   5.016   6.242   1.400 -0.0143 -0.4172  0.5565
  200MOL   C16636384   4.790   6.324   1.466 -0.5525 -0.0348  0.0656
  200MOL   O16736385   4.760   6.446   1.453  0.1779 -0.2425  0.3469
  200MOL   O16836386   4.718   6.218   1.436  0.0237  0.4282 -0.6544
  200MOL   H16936387   4.909   6.192   1.581 -1.4820  1.9755  0.9969
  200MOL   H17036388   5.117   6.211   1.428  0.6992  0.2091 -1.2329
  200MOL   H17136389   4.977   6.151   1.353 -0.7856  0.2023 -0.0091
  200MOL   H17236390   5.017   6.310   1.315 -0.9218  0.7852  1.4924
  200MOL   C17336391   4.587   6.235   1.370 -0.1792 -0.2760  0.0108
  200MOL   C17436392   4.535   6.095   1.346 -0.0556  0.1657 -0.0329
  200MOL   C17536393   4.588   6.320   1.239  0.9364  0.6195  0.5395
  200MOL   O17636394   4.530   6.431   1.222  0.2610  0.1924 -0.0200
  200MOL   O17736395   4.663   6.264   1.140  0.2329  0.5816  0.0031
  200MOL   H17836396   4.517   6.278   1.441 -1.2890  1.2192 -1.9292
  200MOL   H17936397   4.426   6.101   1.346 -0.3017 -3.3268  0.8581
  200MOL   H18036398   4.571   6.057   1.250 -0.6755  0.3122 -0.3253
  200MOL   H18136399   4.560   6.028   1.428  0.6110  1.7297  1.0687
  200MOL   H18236400   4.673   6.321   1.066  0.7527 -0.0473 -0.4158
  201MOL     C136401   1.744   7.043   5.396 -0.9872 -0.0236  0.1358
  201MOL     C236402   1.765   6.892   5.414  0.3186 -0.1472 -0.7098
  201MOL     C336403   1.819   7.131   5.500  0.3773  0.5091  0.8445
  201MOL     O436404   1.764   7.212   5.575  0.0827  0.5034 -0.2042
  201MOL     O536405   1.947   7.104   5.499  0.0932  0.2231  0.1581
  201MOL     H636406   1.792   7.054   5.299 -1.2134  0.2602  0.0554
  201MOL     H736407   1.854   6.869   5.472 -1.5290  0.2949  2.4190
  201MOL     H836408   1.683   6.863   5.479 -1.0842  1.8903 -1.5259
  201MOL     H936409   1.752   6.842   5.317 -0.4065 -1.2704 -0.0427
  201MOL    H1036410   1.638   7.062   5.381 -0.8880  0.9505  0.6430
  201MOL    C1136411   2.034   7.136   5.601 -0.5081 -0.0798  0.2411
  201MOL    C1236412   2.169   7.060   5.567  0.8503  0.5281 -0.1231
  201MOL    C1336413   1.982   7.099   5.740 -0.2797  0.4250  0.3292
  201MOL    O1436414   1.969   7.186   5.832  0.1101 -0.1646  0.0047
  201MOL    O1536415   1.964   6.958   5.763  0.2421  0.4328  0.0693
  201MOL    H1636416   2.042   7.244   5.611 -1.7909  0.0252  0.2930
  201MOL    H1736417   2.238   7.060   5.651  1.6959  2.6922 -0.7846
  201MOL    H1836418   2.146   6.959   5.534  0.3708  0.6571 -0.1945
  201MOL    H1936419   2.223   7.115   5.490  2.2186 -0.7448 -0.0842
  201MOL    C2036420   1.902   6.917   5.885  0.3729 -0.0886  0.4447
  201MOL    C2136421   1.997   6.822   5.958 -0.3605 -0.3755  0.4370
  201MOL    C2236422   1.775   6.842   5.850 -0.0027 -0.6015  0.0399
  201MOL    O2336423   1.768   6.722   5.866  0.7070  0.3861  0.6335
  201MOL    O2436424   1.675   6.921   5.811  0.6049 -0.3254  0.1276
  201MOL    H2536425   1.874   6.999   5.952  1.0219  0.9378 -0.5278
  201MOL    H2636426   1.946   6.784   6.047  1.2417 -1.7356  0.7931
  201MOL    H2736427   2.012   6.740   5.888 -3.8188 -0.0090 -0.8505
  201MOL    H2836428   2.088   6.875   5.985 -0.6160 -0.2051  0.9810
  201MOL    C2936429   1.542   6.868   5.789 -0.0583  0.9534 -0.8004
  201MOL    C3036430   1.455   6.982   5.734 -0.2500 -0.7702  0.2367
  201MOL    C3136431   1.476   6.827   5.921  0.0063 -0.0072  0.3223
  201MOL    O3236432   1.405   6.722   5.923  0.1552  0.1866 -0.5495
  201MOL    O3336433   1.517   6.904   6.027 -0.0997  0.2081 -0.0008
  201MOL    H3436434   1.544   6.788   5.715 -0.9345 -0.0414  0.2325
  201MOL    H3536435   1.470   7.078   5.784  0.1235 -1.8947  2.3447
  201MOL    H3636436   1.494   7.000   5.634 -0.9114  2.4116  0.5012
  201MOL    H3736437   1.349   6.958   5.736 -0.8020  1.5098 -1.0036
  201MOL    C3836438   1.497   6.868   6.169  0.2184 -0.1728 -0.1644
  201MOL    C3936439   1.366   6.928   6.214 -0.3928  0.2500  0.5306
  201MOL    C4036440   1.608   6.918   6.259  0.1064  0.6816  0.4284
  201MOL    O4136441   1.699   6.843   6.295 -0.9698  0.0016  0.2200
  201MOL    O4236442   1.596   7.053   6.288 -0.6491  0.3571  0.1253
  201MOL    H4336443   1.487   6.762   6.191 -1.1646  0.3866  2.0062
  201MOL    H4436444   1.349   7.033   6.192  2.4456  0.6084 -0.1232
  201MOL    H4536445   1.288   6.863   6.174 -0.6044  1.3740 -0.9114
  201MOL    H4636446   1.354   6.922   6.322  1.4360 -0.0509  0.7351
  201MOL    C4736447   1.664   7.106   6.398 -0.4246 -0.2004 -0.1228
  201MOL    C4836448   1.598   7.240   6.426 -0.0218 -0.2216  0.3038
  201MOL    C4936449   1.812   7.127   6.373 -0.8454 -0.0842 -0.8271
  201MOL    O5036450   1.859   7.149   6.264  0.2044 -0.7706  0.0019
  201MOL    O5136451   1.886   7.122   6.486 -0.1392  0.3758 -1.0755
  201MOL    H5236452   1.652   7.046   6.488  0.0403  2.7103  1.9246
  201MOL    H5336453   1.491   7.220   6.430  0.1722 -1.3279  0.2139
  201MOL    H5436454   1.616   7.289   6.522 -0.6301  0.2170  0.1924
  201MOL    H5536455   1.620   7.309   6.345 -1.9059 -0.8742 -0.7830
  201MOL    C5636456   2.022   7.154   6.494 -0.7699 -0.6235 -0.3556
  201MOL    C5736457   2.073   7.130   6.629 -0.0080  0.1019 -0.2243
  201MOL    C5836458   2.048   7.306   6.461 -0.2844  0.3227  0.1342
  201MOL    O5936459   2.149   7.340   6.397  0.6191 -0.3359 -0.4379
  201MOL    O6036460   1.952   7.395   6.512 -0.2753  0.1765 -0.7234
  201MOL    H6136461   2.075   7.096   6.419  1.0980 -1.3449  1.4983
  201MOL    H6236462   2.181   7.134   6.641 -0.0727  1.9889 -0.1945
  201MOL    H6336463   2.011   7.187   6.698  0.0235 -1.9865  1.6043
  201MOL    H6436464   2.047   7.029   6.663 -0.9547 -0.0109 -1.2555
  201MOL    C6536465   1.970   7.535   6.499 -0.5453 -0.3755  0.3440
  201MOL    C6636466   1.932   7.620   6.621  0.2262 -0.5895  0.6497
  201MOL    C6736467   1.894   7.591   6.373 -0.0715  0.2006  0.0677
  201MOL    O6836468   1.777   7.566   6.359  0.0859  0.0688 -0.3468
  201MOL    O6936469   1.980   7.635   6.270  0.8936  0.3279 -0.1294
  201MOL    H7036470   2.076   7.553   6.480 -0.2230  0.3490  2.6340
  201MOL    H7136471   1.951   7.727   6.611 -0.5204 -0.4777  0.3671
  201MOL    H7236472   1.828   7.616   6.654 -0.4171 -0.3756 -1.2992
  201MOL    H7336473   1.992   7.585   6.705  2.0387  0.4958 -0.1510
  201MOL    C7436474   1.937   7.662   6.140  0.1169 -0.1184  0.2007
  201MOL    C7536475   2.003   7.553   6.049 -0.2807 -0.1086  0.2447
  201MOL    C7636476   1.982   7.809   6.099 -0.1001 -0.7689 -0.5639
  201MOL    O7736477   1.919   7.875   6.017 -0.2415  0.0862  0.3909
  201MOL    O7836478   2.101   7.853   6.160 -0.5885  0.2608 -0.2331
  201MOL    H7936479   1.829   7.647   6.134  0.0591  0.2666  0.2630
  201MOL    H8036480   1.980   7.580   5.945 -1.2308  1.8619  0.9434
  201MOL    H8136481   2.111   7.558   6.066 -0.2609 -0.3983  0.2073
  201MOL    H8236482   1.963   7.452   6.060  0.6046 -0.3654  1.2072
  201MOL    C8336483   2.123   7.993   6.158  0.1969 -0.4768 -0.5329
  201MOL    C8436484   2.269   8.034   6.191  0.2243 -0.8551 -0.3308
  201MOL    C8536485   2.036   8.067   6.260 -0.0708  0.3421  0.8163
  201MOL    O8636486   1.983   0.023   6.232  0.4166 -1.4279  0.5706
  201MOL    O8736487   2.017   8.001   6.376 -0.3692 -0.2318  0.2312
  201MOL    H8836488   2.100   8.029   6.058  2.1639  4.8020  0.6905
  201MOL    H8936489   2.332   7.969   6.130 -0.0534 -0.9158 -0.5583
  201MOL    H9036490   2.285   8.137   6.161 -2.5531 -0.1091  0.5291
  201MOL    H9136491   2.296   8.022   6.296  0.3461 -0.9097 -0.3695
  201MOL    C9236492   1.920   8.050   6.474 -0.0473  0.1654  0.3957
  201MOL    C9336493   1.993   8.036   6.610 -0.7964 -0.2426 -0.5169
  201MOL    C9436494   1.782   7.982   6.461 -0.0543 -0.7994 -1.0382
  201MOL    O9536495   1.752   7.911   6.366  0.3703 -0.2762 -0.6403
  201MOL    O9636496   1.701   8.007   6.563 -0.0693 -0.7469 -0.5407
  201MOL    H9736497   1.911   0.010   6.458 -0.5414  0.2344  1.1476
  201MOL    H9836498   1.927   8.057   6.694  1.2963 -0.1532  1.1409
  201MOL    H9936499   2.039   7.938   6.626  0.7392  0.1232 -2.5173
  201MOL   H10036500   2.069   8.114   6.609  0.1077 -1.0867  0.4439
  201MOL   C10136501   1.572   7.962   6.584 -0.4191 -0.4453 -0.1768
  201MOL   C10236502   1.496   8.047   6.689  0.0534  0.0107 -0.0361
  201MOL   C10336503   1.582   7.812   6.621 -0.3878 -0.0480 -0.2810
  201MOL   O10436504   1.626   7.761   6.737 -0.1046  0.2005  0.1519
  201MOL   O10536505   1.523   7.738   6.525 -0.1069  0.1151 -0.2348
  201MOL   H10636506   1.527   7.981   6.487  1.7944  1.5186 -0.8843
  201MOL   H10736507   1.410   7.984   6.715 -1.1446  1.3405 -0.6676
  201MOL   H10836508   1.555   8.056   6.780  0.6701 -1.9836 -0.2160
  201MOL   H10936509   1.459   8.143   6.654  2.2258  0.4482 -1.1910
  201MOL   C11036510   1.462   7.611   6.558  0.3593  0.7005  0.5196
  201MOL   C11136511   1.425   7.556   6.423 -0.5130  0.6546 -0.3354
  201MOL   C11236512   1.336   7.623   6.657 -0.5045  0.0641  0.2548
  201MOL   O11336513   1.292   7.729   6.700  0.1381 -0.2941 -0.2857
  201MOL   O11436514   1.304   7.508   6.708  0.2214 -0.1686  0.4280
  201MOL   H11536515   1.539   7.546   6.600  1.1879  1.6450  0.5194
  201MOL   H11636516   1.512   7.500   6.388 -2.0627 -1.1154 -1.5005
  201MOL   H11736517   1.342   7.485   6.425 -0.2579  0.3376 -0.9291
  201MOL   H11836518   1.402   7.635   6.351 -3.4361 -1.4284 -1.7994
  201MOL   C11936519   1.175   7.493   6.759  0.8833  0.6968  0.1041
  201MOL   C12036520   1.187   7.379   6.870  0.4111  0.3523  0.1365
  201MOL   C12136521   1.070   7.473   6.648 -0.3475 -1.1071 -0.6548
  201MOL   O12236522   1.096   7.464   6.528  0.4253  0.3616  0.1534
  201MOL   O12336523   0.951   7.491   6.706  0.0450 -0.2716  0.0506
  201MOL   H12436524   1.144   7.582   6.813 -0.5164  0.4842 -0.3299
  201MOL   H12536525   1.254   7.306   6.824  2.1370  1.6471  0.5429
  201MOL   H12636526   1.205   7.423   6.968  0.8930  0.5288 -0.0294
  201MOL   H12736527   1.092   7.327   6.881  0.2193  0.8307  0.7549
  201MOL   C12836528   0.827   7.496   6.628 -0.0440  0.7985 -0.1830
  201MOL   C12936529   0.722   7.570   6.716 -0.0144  0.7928  0.2888
  201MOL   C13036530   0.768   7.354   6.595 -1.0226 -0.3359 -0.1395
  201MOL   O13136531   0.719   7.336   6.486  0.3608  0.6549  0.2623
  201MOL   O13236532   0.767   7.273   6.697  0.0058  0.0102 -0.1059
  201MOL   H13336533   0.841   7.551   6.534  0.2816 -2.2491 -1.9962
  201MOL   H13436534   0.642   7.599   6.648  0.4034  2.2830  0.4087
  201MOL   H13536535   0.684   7.500   6.790  1.7752 -0.0600  0.4281
  201MOL   H13636536   0.764   7.662   6.757  1.1970  0.5305 -0.3196
  201MOL   C13736537   0.736   7.134   6.694 -0.2147  0.6803  0.6133
  201MOL   C13836538   0.647   7.088   6.813  0.7245 -0.4387  0.5871
  201MOL   C13936539   0.864   7.048   6.681 -0.0925 -0.1361 -0.6529
  201MOL   O14036540   0.907   6.983   6.769 -0.4353  0.2843 -1.1356
  201MOL   O14136541   0.913   7.048   6.555  0.4169  0.1078  0.6758
  201MOL   H14236542   0.674   7.107   6.608 -0.0668  1.8334  0.1332
  201MOL   H14336543   0.699   7.080   6.908  1.1904  1.0698  0.4662
  201MOL   H14436544   0.566   7.157   6.839  0.3751 -0.2523 -0.9407
  201MOL   H14536545   0.585   6.999   6.804 -0.7913  0.4741  1.6301
  201MOL   C14636546   1.015   6.958   6.520 -0.4220 -0.7369 -0.1993
  201MOL   C14736547   1.121   7.047   6.450  0.0316 -0.1395 -0.9101
  201MOL   C14836548   0.959   6.860   6.415 -0.7084 -0.0428  0.1293
  201MOL   O14936549   1.016   6.830   6.312 -0.1859 -0.1805 -1.0085
  201MOL   O15036550   0.830   6.824   6.451 -0.1220 -0.1630 -0.4647
  201MOL   H15136551   1.063   6.911   6.605 -0.7302 -1.7134 -0.5643
  201MOL   H15236552   1.080   7.079   6.354  0.2324  0.7878 -0.6940
  201MOL   H15336553   1.146   7.134   6.511 -3.8360 -0.4189  1.2511
  201MOL   H15436554   1.213   6.989   6.442 -0.7336 -1.6625  0.9102
  201MOL   C15536555   0.737   6.754   6.366  0.5337  0.2786 -0.3596
  201MOL   C15636556   0.691   6.853   6.253 -0.4744 -0.1928 -0.6841
  201MOL   C15736557   0.622   6.688   6.450  0.7064  0.3163  0.2433
  201MOL   O15836558   0.586   6.729   6.558 -0.3640 -0.1144 -0.3165
  201MOL   O15936559   0.578   6.571   6.384  0.6473  0.2009 -0.7799
  201MOL   H16036560   0.784   6.664   6.327  0.2265 -1.3693  2.9120
  201MOL   H16136561   0.619   6.926   6.292 -0.9532 -0.2826 -1.3937
  201MOL   H16236562   0.772   6.913   6.211 -3.0091  2.7700 -1.4972
  201MOL   H16336563   0.646   6.797   6.171 -0.5967  0.0684 -0.7979
  201MOL   C16436564   0.476   6.499   6.447  0.1449  0.3942  0.3227
  201MOL   C16536565   0.468   6.360   6.378 -0.3019 -0.5761 -0.7053
  201MOL   C16636566   0.343   6.574   6.446 -0.9930 -0.1068  1.5936
  201MOL   O16736567   0.289   6.599   6.550  0.2878 -0.2382  0.2902
  201MOL   O16836568   0.296   6.591   6.320 -0.7699  0.1836  0.3436
  201MOL   H16936569   0.511   6.481   6.549 -0.7830 -2.7694  0.1546
  201MOL   H17036570   0.418   6.350   6.283  1.4844  0.8734 -1.8385
  201MOL   H17136571   0.560   6.301   6.379 -1.3799 -2.3081  0.0903
  201MOL   H17236572   0.410   6.300   6.448 -0.2223  2.7874  2.3983
  201MOL   C17336573   0.184   6.671   6.286  0.0151  0.1352 -0.3047
  201MOL   C17436574   0.084   6.583   6.216 -0.5112  0.6946 -0.9294
  201MOL   C17536575   0.236   6.797   6.205 -0.0626  0.4479  0.2893
  201MOL   O17636576   0.181   6.828   6.096 -1.5998  0.0762 -0.0312
  201MOL   O17736577   0.344   6.851   6.264 -0.5860 -0.1469 -0.0661
  201MOL   H17836578   0.144   6.701   6.383  0.0095 -0.9136  0.0273
  201MOL   H17936579   8.139   6.638   6.199 -1.6219 -0.6423  0.5929
  201MOL   H18036580   0.130   6.544   6.125 -0.3231 -1.5155  0.0707
  201MOL   H18136581   0.060   6.495   6.277  1.5807  0.0447 -0.9736
  201MOL   H18236582   0.369   6.928   6.216 -0.3374 -0.0821  0.1695
  202MOL     C136583   3.417   4.068   7.483 -0.0920  0.3359 -0.4328
  202MOL     C236584   3.373   4.004   7.618 -0.3046 -0.1199 -0.4523
  202MOL     C336585   3.441   4.217   7.486  0.6393 -0.5144  0.3277
  202MOL     O436586   3.557   4.255   7.476  0.3015 -0.4682 -0.4952
  202MOL     O536587   3.340   4.289   7.517 -0.8978 -0.4307  0.6985
  202MOL     H636588   3.498   4.019   7.430  1.6001 -0.5629  2.8372
  202MOL     H736589   3.423   4.045   7.706 -2.1927  1.1070  0.0786
  202MOL     H836590   3.267   4.012   7.637 -0.0788 -1.2788  1.3858
  202MOL     H936591   3.388   3.896   7.616  1.5901  0.1059  0.3901
  202MOL    H1036592   3.332   4.066   7.415 -1.3909 -0.7674  1.1960
  202MOL    C1136593   3.359   4.434   7.533 -0.8275  0.2188  0.3217
  202MOL    C1236594   3.383   4.472   7.683  0.1749 -0.7776 -0.9819
  202MOL    C1336595   3.237   4.493   7.461 -0.3633  0.1048 -0.3194
  202MOL    O1436596   3.172   4.589   7.500  0.2513  0.7849  0.2681
  202MOL    O1536597   3.209   4.436   7.334  0.2526  0.0180 -0.7557
  202MOL    H1636598   3.437   4.472   7.467  0.2002 -1.0437  0.7861
  202MOL    H1736599   3.441   4.401   7.743  1.8020  0.9046 -0.5344
  202MOL    H1836600   3.428   4.571   7.690  2.2903 -1.6514 -1.8163
  202MOL    H1936601   3.283   4.467   7.728  0.4541  1.1105 -0.1223
  202MOL    C2036602   3.117   4.494   7.240  0.2615 -0.1391 -0.2230
  202MOL    C2136603   3.071   4.371   7.150 -0.8015 -0.1462 -0.1749
  202MOL    C2236604   3.185   4.609   7.154 -0.1600  0.0674 -0.5527
  202MOL    O2336605   3.223   4.585   7.043  0.1220  0.4381  0.0205
  202MOL    O2436606   3.210   4.724   7.221  0.1277  0.3392 -0.6602
  202MOL    H2536607   3.029   4.532   7.292  0.4438 -0.5321  0.3741
  202MOL    H2636608   2.997   4.308   7.200  0.4612  0.2061  2.2293
  202MOL    H2736609   3.027   4.410   7.058  0.5112  1.0842 -0.2883
  202MOL    H2836610   3.155   4.308   7.121 -1.3596 -0.8837 -0.2060
  202MOL    C2936611   3.256   4.844   7.153 -0.1110 -0.8402 -0.4930
  202MOL    C3036612   3.282   4.961   7.257 -0.5378 -0.0496  0.1088
  202MOL    C3136613   3.150   4.888   7.052  0.4315  0.1107 -0.2471
  202MOL    O3236614   3.027   4.892   7.086 -0.4110  0.2224  0.3690
  202MOL    O3336615   3.194   4.916   6.931  0.2855 -0.3169 -0.3001
  202MOL    H3436616   3.349   4.813   7.105 -0.7210 -0.5055 -1.8945
  202MOL    H3536617   3.351   4.929   7.335 -0.7592 -1.4856 -0.2685
  202MOL    H3636618   3.327   5.049   7.211 -0.1421 -0.5411 -0.4522
  202MOL    H3736619   3.184   4.988   7.296 -0.9500 -1.5011  0.1351
  202MOL    C3836620   3.103   4.962   6.829  0.4496 -0.3689 -0.2719
  202MOL    C3936621   3.178   4.979   6.699  0.1418 -0.0171  0.6223
  202MOL    C4036622   3.035   5.097   6.868 -0.1263  0.7832 -0.0791
  202MOL    O4136623   2.914   5.111   6.870 -0.4164  0.0391 -0.6352
  202MOL    O4236624   3.119   5.189   6.895  0.9148  0.5246  0.2974
  202MOL    H4336625   3.030   4.885   6.803 -0.1151  0.3339 -0.7717
  202MOL    H4436626   3.243   5.066   6.710 -0.3554  0.2355  1.5935
  202MOL    H4536627   3.243   4.891   6.692 -0.9711 -0.7682 -0.5424
  202MOL    H4636628   3.113   4.983   6.612 -0.0706  0.9388  0.8188
  202MOL    C4736629   3.084   5.313   6.960  0.0864 -0.4993 -0.6067
  202MOL    C4836630   3.206   5.409   6.943  0.3291 -0.3099 -0.4475
  202MOL    C4936631   3.049   5.293   7.110 -0.3728 -0.2172 -0.2695
  202MOL    O5036632   3.139   5.307   7.200 -0.0128 -0.3313  0.2161
  202MOL    O5136633   2.921   5.253   7.142  0.8622  0.3523 -0.1477
  202MOL    H5236634   2.996   5.353   6.911 -1.3026 -0.7419  1.6080
  202MOL    H5336635   3.219   5.428   6.836 -1.6726  0.7507 -0.5196
  202MOL    H5436636   3.177   5.503   6.988  0.0587 -0.0590 -1.1328
  202MOL    H5536637   3.298   5.376   6.992  1.4362  0.2977 -2.0566
  202MOL    C5636638   2.895   5.193   7.276  0.4741  0.0682 -0.0118
  202MOL    C5736639   2.753   5.137   7.269  0.2915  0.1347  0.2300
  202MOL    C5836640   2.902   5.300   7.388 -0.1012  0.7013 -0.0793
  202MOL    O5936641   2.919   5.416   7.356  0.6109 -0.0043  0.4904
  202MOL    O6036642   2.895   5.255   7.518  0.7360  0.4400 -0.1028
  202MOL    H6136643   2.962   5.114   7.310 -0.9461 -0.3611  1.8428
  202MOL    H6236644   2.754   5.046   7.208 -0.7489  0.1936  0.1192
  202MOL    H6336645   2.728   5.107   7.370  0.5689  2.3420  0.9736
  202MOL    H6436646   2.678   5.209   7.235  0.5716  0.6706  0.7343
  202MOL    C6536647   2.883   5.335   7.632  0.4998 -0.6910 -0.5276
  202MOL    C6636648   2.936   5.246   7.747 -0.0491  0.2919  0.0523
  202MOL    C6736649   2.734   5.370   7.665 -0.4161 -0.3737 -0.2592
  202MOL    O6836650   2.691   5.340   7.771 -0.4507 -0.2267  0.8449
  202MOL    O6936651   2.668   5.432   7.563 -0.5374  0.5591  0.1067
  202MOL    H7036652   2.935   5.431   7.631 -0.8357  0.1352  2.0533
  202MOL    H7136653   2.909   5.141   7.736  0.0293  0.3295 -0.5295
  202MOL    H7236654   3.044   5.253   7.758  0.0465  1.1229 -1.2338
  202MOL    H7336655   2.893   5.255   7.846  1.5598  0.2815  0.7602
  202MOL    C7436656   2.543   5.499   7.586  0.8702  0.4004 -0.1359
  202MOL    C7536657   2.479   5.494   7.446  0.3956  0.9060  0.1675
  202MOL    C7636658   2.573   5.643   7.626 -0.2120 -0.8184  0.2776
  202MOL    O7736659   2.684   5.681   7.665  0.2733  0.7007 -0.2347
  202MOL    O7836660   2.465   5.731   7.621 -0.1372 -0.4834 -0.3468
  202MOL    H7936661   2.473   5.454   7.657  1.0912 -0.6999 -0.6062
  202MOL    H8036662   2.497   5.401   7.392  0.5313  1.0786 -0.0855
  202MOL    H8136663   2.371   5.508   7.458 -0.3035 -1.6901 -2.4462
  202MOL    H8236664   2.506   5.579   7.383 -0.5774  0.9439 -0.2210
  202MOL    C8336665   2.487   5.870   7.647  0.3796  0.7023 -0.8776
  202MOL    C8436666   2.349   5.933   7.651  0.0597 -0.6374  0.7930
  202MOL    C8536667   2.574   5.941   7.539  0.5562  0.2961 -0.2643
  202MOL    O8636668   2.655   6.027   7.567 -0.0159  0.0313 -0.5743
  202MOL    O8736669   2.539   5.908   7.419  0.1051 -0.3567  0.1133
  202MOL    H8836670   2.538   5.870   7.743  0.4662  2.9758 -0.9154
  202MOL    H8936671   2.300   5.912   7.556  0.5581  3.5836 -0.5208
  202MOL    H9036672   2.280   5.894   7.727  0.4222  0.1747  1.5509
  202MOL    H9136673   2.359   6.042   7.650 -1.2962 -0.4925  0.9526
  202MOL    C9236674   2.627   5.939   7.314  0.0366  0.6534  0.3395
  202MOL    C9336675   2.555   5.939   7.180  0.7246 -0.6077  0.1596
  202MOL    C9436676   2.752   5.847   7.303  0.3633 -0.3597 -0.3338
  202MOL    O9536677   2.740   5.727   7.324  0.1908  0.2998 -0.1339
  202MOL    O9636678   2.870   5.914   7.274 -0.0017  0.5449  0.4793
  202MOL    H9736679   2.661   6.042   7.321  0.5186  0.5381 -0.2689
  202MOL    H9836680   2.465   5.877   7.189 -1.0119  2.0367  1.7056
  202MOL    H9936681   2.512   6.038   7.160 -1.4466 -1.0609  2.3922
  202MOL   H10036682   2.608   5.900   7.093 -0.0691  1.0950 -1.1413
  202MOL   C10136683   2.992   5.838   7.265 -0.1386  0.5471 -0.3550
  202MOL   C10236684   3.111   5.933   7.266  0.7093  0.6880  0.3447
  202MOL   C10336685   2.997   5.760   7.133 -0.1398  0.6963  0.0737
  202MOL   O10436686   3.042   5.646   7.118 -0.2350 -0.7039  0.6117
  202MOL   O10536687   2.940   5.831   7.032  0.1156  0.2965 -0.0757
  202MOL   H10636688   3.014   5.767   7.344  0.0355  0.6627 -0.3003
  202MOL   H10736689   3.087   6.014   7.197 -0.6232 -0.5372 -0.6387
  202MOL   H10836690   3.121   5.980   7.364 -0.8131  1.6414  0.0571
  202MOL   H10936691   3.204   5.880   7.243 -0.5420 -0.8575 -1.1992
  202MOL   C11036692   2.899   5.784   6.908 -0.0702  0.0855  0.1409
  202MOL   C11136693   2.928   5.897   6.800  0.1542  0.0014  0.5133
  202MOL   C11236694   2.751   5.735   6.923  0.1145  0.3056 -0.1573
  202MOL   O11336695   2.661   5.809   6.884  0.0547 -0.3568  0.3936
  202MOL   O11436696   2.741   5.620   6.984 -0.2472  0.0772  0.7061
  202MOL   H11536697   2.965   5.699   6.890  2.0509  1.6645  0.3177
  202MOL   H11636698   2.871   5.989   6.813 -1.9444 -1.1296 -0.3558
  202MOL   H11736699   3.032   5.931   6.798  0.7279 -1.7087  0.4814
  202MOL   H11836700   2.904   5.878   6.695  0.9461  0.9353  0.1532
  202MOL   C11936701   2.623   5.567   7.022 -0.3186 -0.4083 -0.5989
  202MOL   C12036702   2.653   5.449   7.111  0.6914 -0.5061 -0.3158
  202MOL   C12136703   2.534   5.522   6.901 -0.0988  1.0716 -0.7583
  202MOL   O12236704   2.414   5.558   6.888  0.0216 -0.6056 -0.2014
  202MOL   O12336705   2.595   5.429   6.825 -0.2604 -0.2822  0.5012
  202MOL   H12436706   2.562   5.639   7.076 -0.7126  0.3572 -2.0170
  202MOL   H12536707   2.558   5.406   7.142  0.8593  0.1955  1.2097
  202MOL   H12636708   2.721   5.381   7.059  0.8763  0.2896 -1.1229
  202MOL   H12736709   2.698   5.493   7.200  1.2176  1.7383 -1.6413
  202MOL   C12836710   2.538   5.354   6.712  0.1840 -0.2898 -0.5136
  202MOL   C12936711   2.604   5.215   6.686 -0.1693 -0.3417 -0.4693
  202MOL   C13036712   2.525   5.438   6.586 -0.2162 -0.0592  0.0898
  202MOL   O13136713   2.566   5.553   6.577 -0.0414  0.0178 -0.6668
  202MOL   O13236714   2.459   5.371   6.488  0.3708  0.0957 -0.4147
  202MOL   H13336715   2.437   5.322   6.740  0.1716  1.6867  1.9539
  202MOL   H13436716   2.711   5.230   6.701 -0.5320  1.9760 -0.0439
  202MOL   H13536717   2.581   5.145   6.766  1.9274  1.0493  1.4251
  202MOL   H13636718   2.571   5.161   6.597  0.4504 -0.3290 -0.7106
  202MOL   C13736719   2.409   5.434   6.369  0.1778  0.3673  0.5535
  202MOL   C13836720   2.528   5.480   6.281  0.0312 -0.0185 -0.0217
  202MOL   C13936721   2.309   5.553   6.410 -0.3879 -0.2085 -0.3283
  202MOL   O14036722   2.308   5.663   6.356  0.6422 -0.3350  0.3287
  202MOL   O14136723   2.235   5.519   6.520 -0.5156 -0.2130  0.0349
  202MOL   H14236724   2.353   5.356   6.318 -0.1301  0.6843  0.4028
  202MOL   H14336725   2.610   5.411   6.299 -0.8666 -1.3199 -0.8506
  202MOL   H14436726   2.510   5.480   6.173 -0.3148  0.7621  0.0300
  202MOL   H14536727   2.550   5.584   6.305 -1.0332  0.8426 -2.6049
  202MOL   C14636728   2.133   5.602   6.573  0.4300  0.3534  0.6652
  202MOL   C14736729   2.123   5.586   6.724  0.2525  0.4906 -0.4394
  202MOL   C14836730   1.999   5.595   6.489 -0.3246  0.1047 -0.3741
  202MOL   O14936731   1.988   5.508   6.409 -0.0390  0.2161  0.1142
  202MOL   O15036732   1.912   5.688   6.515  0.2510 -0.3224  0.1716
  202MOL   H15136733   2.170   5.704   6.568  2.7229 -0.5648 -2.5278
  202MOL   H15236734   2.043   5.653   6.756  0.6866  1.6151 -1.6870
  202MOL   H15336735   2.091   5.485   6.746  0.4474  0.8719  1.7118
  202MOL   H15436736   2.219   5.613   6.770  0.5952  1.2033 -1.5516
  202MOL   C15536737   1.773   5.673   6.479 -0.1818  1.0596  0.1148
  202MOL   C15636738   1.702   5.805   6.478 -0.0572 -0.0929  0.4778
  202MOL   C15736739   1.706   5.564   6.566 -0.3728 -0.0264  0.8091
  202MOL   O15836740   1.626   5.477   6.526  0.1260  0.0367 -0.2293
  202MOL   O15936741   1.742   5.577   6.695  0.2203  0.2297 -0.5737
  202MOL   H16036742   1.783   5.636   6.377 -0.2997  2.2674 -0.3449
  202MOL   H16136743   1.736   5.870   6.559 -0.9504 -0.4057  1.1078
  202MOL   H16236744   1.721   5.855   6.383  3.4124 -0.0875  1.0860
  202MOL   H16336745   1.594   5.799   6.470 -0.0143  1.6099 -2.2638
  202MOL   C16436746   1.732   5.468   6.787 -0.1454 -0.4791 -0.1669
  202MOL   C16536747   1.797   5.501   6.926  0.7272 -0.5701 -0.0292
  202MOL   C16636748   1.789   5.337   6.729  0.1430  0.3237 -0.7498
  202MOL   O16736749   1.884   5.325   6.648 -0.1963 -1.0847  0.2731
  202MOL   O16836750   1.731   5.227   6.775 -0.3621  0.1245  0.4208
  202MOL   H16936751   1.628   5.439   6.800 -0.8313  0.2686 -3.3861
  202MOL   H17036752   1.724   5.557   6.985 -0.0671 -0.7605 -0.8241
  202MOL   H17136753   1.836   5.417   6.983  0.9660 -0.5538 -0.1702
  202MOL   H17236754   1.882   5.565   6.901  0.0235  0.5207  0.3315
  202MOL   C17336755   1.782   5.093   6.767 -0.3818 -0.5045  0.4746
  202MOL   C17436756   1.673   4.985   6.790 -0.7916 -0.1919 -0.0719
  202MOL   C17536757   1.893   5.085   6.870  0.2387 -0.4324  0.2498
  202MOL   O17636758   1.912   5.166   6.961  0.3789 -0.1532  0.0636
  202MOL   O17736759   1.960   4.969   6.865 -0.0926  0.4418  0.5617
  202MOL   H17836760   1.801   5.083   6.660 -1.7217  2.0211 -0.0431
  202MOL   H17936761   1.673   4.954   6.895  3.2215 -0.0100  0.0376
  202MOL   H18036762   1.579   5.023   6.750 -0.1560  2.9470  1.2954
  202MOL   H18136763   1.704   4.895   6.738 -1.0521  0.7732 -1.9512
  202MOL   H18236764   2.025   4.944   6.929  1.6557  2.1780 -0.4615
  203MOL     C136765   6.500   0.777   1.049 -0.2304 -0.2287 -0.7433
  203MOL     C236766   6.538   0.865   0.927 -0.0117 -0.2737 -0.0085
  203MOL     C336767   6.522   0.631   1.047  0.2599  0.4697  0.4324
  203MOL     O436768   6.489   0.566   1.146 -0.5610  0.0185  0.4138
  203MOL     O536769   6.569   0.578   0.931 -0.2636  0.3277 -0.5901
  203MOL     H636770   6.577   0.810   1.118 -2.4869  1.9877  0.7902
  203MOL     H736771   6.482   0.829   0.841 -0.7321  2.8045 -0.8787
  203MOL     H836772   6.518   0.969   0.954 -0.4570  0.0773 -1.6340
  203MOL     H936773   6.645   0.860   0.904 -0.0235  1.4687 -0.5325
  203MOL    H1036774   6.405   0.808   1.092  0.8199  1.1792  0.5905
  203MOL    C1136775   6.612   0.437   0.911 -0.1735 -0.1916 -0.7892
  203MOL    C1236776   6.488   0.351   0.881 -0.4495  0.3514 -0.4619
  203MOL    C1336777   6.709   0.382   1.024  0.0413  0.2940  0.0104
  203MOL    O1436778   6.810   0.445   1.055  0.1951 -0.6988 -0.2452
  203MOL    O1536779   6.665   0.274   1.084 -0.3727  0.4927  0.3144
  203MOL    H1636780   6.675   0.449   0.824  1.0420 -0.9502 -0.0365
  203MOL    H1736781   6.435   0.323   0.972 -0.7358 -2.7381 -1.5303
  203MOL    H1836782   6.423   0.395   0.805 -2.0522  0.9943  1.2714
  203MOL    H1936783   6.527   0.261   0.833  1.9140  1.6190 -1.0383
  203MOL    C2036784   6.740   0.195   1.178  0.3954 -0.3035 -0.0701
  203MOL    C2136785   6.784   0.270   1.306 -0.1742 -0.0833  0.2400
  203MOL    C2236786   6.855   0.134   1.107 -0.6482 -0.0011 -0.3358
  203MOL    O2336787   6.974   0.158   1.140 -0.1908  0.4140 -0.2628
  203MOL    O2436788   6.823   0.057   1.002  0.2472 -0.3789 -0.8005
  203MOL    H2536789   6.683   0.106   1.206  3.3275 -2.3534 -0.4191
  203MOL    H2636790   6.818   0.372   1.288  0.4313 -0.4939 -1.0059
  203MOL    H2736791   6.708   0.273   1.384 -0.0417  1.0706  0.3240
  203MOL    H2836792   6.862   0.217   1.362 -2.3416 -0.6453  2.7797
  203MOL    C2936793   6.922   8.133   0.929 -0.0179 -0.4333 -0.0678
  203MOL    C3036794   6.842   8.096   0.800  0.2091 -0.2643  0.4953
  203MOL    C3136795   6.983   8.016   0.994 -0.1196 -0.0666  0.0034
  203MOL    O3236796   6.963   7.978   1.110  0.2501  0.5381 -0.0611
  203MOL    O3336797   7.054   7.944   0.907 -0.2317 -0.8385 -0.4144
  203MOL    H3436798   6.995   0.060   0.899 -0.7892  1.5138  2.7576
  203MOL    H3536799   6.910   8.098   0.715  1.8361  1.6721  1.8280
  203MOL    H3636800   6.805   7.994   0.790  2.2447 -0.8990 -0.9520
  203MOL    H3736801   6.763   0.016   0.766  2.1961  2.4876  1.1962
  203MOL    C3836802   7.112   7.822   0.944  0.7162  0.3401  0.0186
  203MOL    C3936803   7.256   7.833   0.986  0.5149 -0.3269 -0.6001
  203MOL    C4036804   7.094   7.724   0.829  0.1409  0.5675 -0.4831
  203MOL    O4136805   7.056   7.756   0.713  0.3737 -0.1644  0.8289
  203MOL    O4236806   7.141   7.600   0.862 -0.0365 -0.0509  0.0067
  203MOL    H4336807   7.045   7.781   1.019  0.5729  0.9029  0.1956
  203MOL    H4436808   7.265   7.827   1.094 -2.1470 -1.6952 -0.4015
  203MOL    H4536809   7.310   7.745   0.952  0.6280 -0.0631 -1.1164
  203MOL    H4636810   7.303   7.927   0.955 -0.5298 -0.1018 -1.5693
  203MOL    C4736811   7.120   7.484   0.782 -0.5487  0.5241 -0.4942
  203MOL    C4836812   7.182   7.374   0.865 -0.2166 -0.0009 -0.5638
  203MOL    C4936813   7.192   7.496   0.648  0.6884  0.4510 -0.1859
  203MOL    O5036814   7.303   7.550   0.639 -0.0023  0.4141  0.1988
  203MOL    O5136815   7.121   7.443   0.549  0.2586 -0.2138  0.3799
  203MOL    H5236816   7.013   7.467   0.771 -0.6219 -0.1169  1.0937
  203MOL    H5336817   7.285   7.395   0.894 -0.6814 -0.8600  1.8674
  203MOL    H5436818   7.122   7.361   0.956  2.3149 -1.9380  0.9029
  203MOL    H5536819   7.168   7.277   0.817  0.6867 -0.5890  0.3469
  203MOL    C5636820   7.172   7.434   0.414 -0.7494 -0.8909  0.1841
  203MOL    C5736821   7.294   7.346   0.398 -0.1448  0.3639  0.1081
  203MOL    C5836822   7.201   7.581   0.358 -0.4730  0.2936  0.0286
  203MOL    O5936823   7.306   7.614   0.310  0.5292  0.1405  0.1206
  203MOL    O6036824   7.088   7.664   0.367 -0.2775  0.0850 -0.2217
  203MOL    H6136825   7.099   7.388   0.348  0.1758 -1.7633 -0.2428
  203MOL    H6236826   7.312   7.337   0.291  0.9078  2.2723  0.1051
  203MOL    H6336827   7.380   7.391   0.447  0.0554 -3.1904  3.2543
  203MOL    H6436828   7.271   7.245   0.431 -0.1621 -0.8626 -3.5035
  203MOL    C6536829   7.080   7.793   0.311 -0.8350  0.0115 -0.1006
  203MOL    C6636830   6.991   7.886   0.398 -0.1463  0.2638 -0.2444
  203MOL    C6736831   7.032   7.783   0.164  0.7284 -0.7425  1.0368
  203MOL    O6836832   7.112   7.795   0.070 -0.2706  0.2577 -0.2129
  203MOL    O6936833   6.907   7.745   0.149 -0.1283  0.3733  0.4518
  203MOL    H7036834   7.182   7.831   0.310 -0.5829 -0.6600 -0.0837
  203MOL    H7136835   6.930   7.944   0.329 -0.9860  1.0432  1.1394
  203MOL    H7236836   6.915   7.832   0.456  0.8390 -1.2642 -0.3327
  203MOL    H7336837   7.039   7.940   0.479  1.6034 -2.8438  0.9042
  203MOL    C7436838   6.856   7.694   0.030  0.5124  0.1246 -0.1715
  203MOL    C7536839   6.698   7.725   8.147 -0.1362 -0.1898 -0.0816
  203MOL    C7636840   6.904   7.546   0.012 -0.9073  0.0856  0.3107
  203MOL    O7736841   6.977   7.484   0.094  0.0747  0.0925  0.4738
  203MOL    O7836842   6.870   7.501   8.035  0.5443 -0.9572 -0.2609
  203MOL    H7936843   6.904   7.741   8.092  1.9345 -0.0480  0.5252
  203MOL    H8036844   6.646   7.642   8.099  1.5522 -0.7562 -0.9665
  203MOL    H8136845   6.644   7.741   0.093 -0.6258 -1.6159 -0.1035
  203MOL    H8236846   6.681   7.814   8.087 -2.0313 -0.0474  0.6208
  203MOL    C8336847   6.896   7.365   7.993 -0.4603  0.6829  0.8587
  203MOL    C8436848   6.914   7.378   7.845  0.1743  0.2416  0.1056
  203MOL    C8536849   6.792   7.269   8.042  0.6519  0.7301  0.0356
  203MOL    O8636850   6.820   7.166   8.107  0.0935  0.5866  0.0097
  203MOL    O8736851   6.668   7.301   8.009  0.1994  0.0386  0.2367
  203MOL    H8836852   6.992   7.330   8.031 -0.5813 -1.0826 -0.3886
  203MOL    H8936853   6.981   7.304   7.801 -0.5632  0.0233 -0.6579
  203MOL    H9036854   6.814   7.370   7.803 -0.6169  0.4749  1.8795
  203MOL    H9136855   6.952   7.475   7.816 -0.5939  0.7007  0.6125
  203MOL    C9236856   6.558   7.227   8.060 -0.6513  0.3238  0.3799
  203MOL    C9336857   6.427   7.274   7.985 -0.0956  0.7780 -0.2262
  203MOL    C9436858   6.532   7.257   0.060 -0.4558 -0.7910 -0.5165
  203MOL    O9536859   6.590   7.351   0.116  0.3026 -0.1545 -0.3860
  203MOL    O9636860   6.436   7.174   0.122 -0.6236  0.0005  0.1186
  203MOL    H9736861   6.577   7.122   8.038 -1.6255  0.0684  0.7085
  203MOL    H9836862   6.337   7.235   8.032  0.0862  0.1870 -0.3557
  203MOL    H9936863   6.424   7.383   7.984 -2.0758  0.7906 -3.7476
  203MOL   H10036864   6.425   7.242   7.880 -2.4014 -2.4960  0.7473
  203MOL   C10136865   6.378   7.198   0.251 -1.1533 -0.1069  1.2358
  203MOL   C10236866   6.287   7.084   0.296 -0.1372  0.2296  0.3026
  203MOL   C10336867   6.308   7.335   0.245  0.2974  0.1948  0.6484
  203MOL   O10436868   6.281   7.402   0.141 -0.0387 -0.4187 -0.2929
  203MOL   O10536869   6.281   7.374   0.372 -0.8172 -0.2931  0.2311
  203MOL   H10636870   6.456   7.197   0.327 -1.7675 -1.3348  1.8787
  203MOL   H10736871   6.234   7.117   0.385 -0.6351  2.8282 -0.9339
  203MOL   H10836872   6.203   7.064   0.230 -1.4945  1.7357  1.5412
  203MOL   H10936873   6.348   6.995   0.313  0.9545  0.6216 -1.4899
  203MOL   C11036874   6.216   7.501   0.393  0.4974 -0.0518 -0.4368
  203MOL   C11136875   6.332   7.598   0.444  1.1508  0.7787 -0.1907
  203MOL   C11236876   6.101   7.479   0.498  0.6039 -0.1011 -0.4626
  203MOL   O11336877   6.114   7.386   0.577 -0.4398  0.1928  0.1844
  203MOL   O11436878   5.993   7.552   0.478 -0.0863 -0.1143  0.2969
  203MOL   H11536879   6.161   7.540   0.308 -0.9409 -0.3712  0.3437
  203MOL   H11636880   6.365   7.573   0.545 -0.3820  2.0189  0.6293
  203MOL   H11736881   6.419   7.608   0.379  0.4362 -0.0106 -1.3081
  203MOL   H11836882   6.271   7.687   0.451  0.7418  0.4741  0.1596
  203MOL   C11936883   5.879   7.561   0.566  0.4161  0.0960 -0.0972
  203MOL   C12036884   5.755   7.564   0.471 -0.3172  0.1884 -0.6183
  203MOL   C12136885   5.894   7.688   0.648 -0.1569  0.1406 -0.2720
  203MOL   O12236886   5.905   7.679   0.769  0.1485 -0.8002 -0.2263
  203MOL   O12336887   5.895   7.798   0.578 -0.0770  0.0109 -0.3694
  203MOL   H12436888   5.872   7.484   0.642 -0.1955  1.7012  1.5253
  203MOL   H12536889   5.739   7.659   0.421 -1.2130  0.0406 -0.6183
  203MOL   H12636890   5.743   7.493   0.390  2.6501 -0.7432 -0.3184
  203MOL   H12736891   5.664   7.553   0.530 -0.0222  2.0036  0.2341
  203MOL   C12836892   5.905   7.925   0.645 -1.1933 -0.0742 -0.4347
  203MOL   C12936893   5.761   7.970   0.682  0.0567 -0.0345  0.0358
  203MOL   C13036894   5.962   8.021   0.541  0.2754  0.4062 -0.1713
  203MOL   O13136895   5.903   8.126   0.522 -0.5175 -0.0257 -0.0422
  203MOL   O13236896   6.079   7.982   0.476 -0.4350 -0.5875 -0.5346
  203MOL   H13336897   5.972   7.916   0.730 -0.7427  1.8258 -0.5705
  203MOL   H13436898   5.698   8.004   0.600  0.5121  3.5680  1.0597
  203MOL   H13536899   5.709   7.887   0.730  1.2071 -0.9029 -0.2266
  203MOL   H13636900   5.778   8.057   0.745 -0.9752  0.2566 -0.0765
  203MOL   C13736901   6.153   8.083   0.397 -0.3784 -0.4755  0.0578
  203MOL   C13836902   6.227   8.006   0.288 -0.4168  0.1256 -0.2501
  203MOL   C13936903   6.240   0.026   0.479  0.2331  0.2468 -0.7172
  203MOL   O14036904   6.264   0.007   0.598  0.5138  0.3635 -0.7086
  203MOL   O14136905   6.300   0.127   0.405  0.4998  0.2136  0.0388
  203MOL   H14236906   6.083   8.141   0.337  0.6657 -0.7994 -1.4852
  203MOL   H14336907   6.336   7.999   0.292 -0.4167  0.8376  1.9738
  203MOL   H14436908   6.195   7.903   0.277 -1.2930  0.0352  2.6453
  203MOL   H14536909   6.205   8.057   0.194 -0.6869 -0.4573 -0.5010
  203MOL   C14636910   6.407   0.202   0.458  0.1500 -0.2735  0.4634
  203MOL   C14736911   6.440   0.305   0.352 -0.3636  0.2978 -0.2770
  203MOL   C14836912   6.523   0.113   0.492 -0.1994  1.1370 -0.2853
  203MOL   O14936913   6.602   0.136   0.581 -0.4524 -0.1342 -0.0817
  203MOL   O15036914   6.523   0.005   0.412  0.0682 -0.2910  0.8117
  203MOL   H15136915   6.378   0.253   0.550  1.8281  0.7349  0.4657
  203MOL   H15236916   6.363   0.365   0.304  0.7854  4.3339  2.7479
  203MOL   H15336917   6.507   0.376   0.401 -0.2027  0.5183 -0.8113
  203MOL   H15436918   6.494   0.242   0.281 -0.7660 -0.3164 -0.0442
  203MOL   C15536919   6.643   8.081   0.380 -0.1200  0.1703  0.3201
  203MOL   C15636920   6.654   8.056   0.232  0.1220  0.2721 -0.3249
  203MOL   C15736921   6.615   7.950   0.453 -0.0198  0.7573  0.3535
  203MOL   O15836922   6.599   7.846   0.390 -0.0998  0.6468  0.1973
  203MOL   O15936923   6.586   7.960   0.587  0.0569  0.0050  0.3847
  203MOL   H16036924   6.729   8.126   0.430 -0.4626  0.0583  1.0174
  203MOL   H16136925   6.671   0.006   0.186 -2.5908  0.7548 -0.4151
  203MOL   H16236926   6.733   7.985   0.208  1.3510  1.0599  1.3093
  203MOL   H16336927   6.559   8.020   0.193 -0.0497  0.0524  0.2962
  203MOL   C16436928   6.556   7.848   0.673  0.1171 -1.0338 -0.1890
  203MOL   C16536929   6.515   7.907   0.809  0.6377 -0.6607 -0.0719
  203MOL   C16636930   6.672   7.746   0.672 -0.4620  0.6874  0.7995
  203MOL   O16736931   6.757   7.745   0.762  0.3339 -0.1130  0.1648
  203MOL   O16836932   6.667   7.649   0.579 -0.0324  0.2962 -0.0882
  203MOL   H16936933   6.472   7.805   0.618  2.3551 -2.6838 -2.4302
  203MOL   H17036934   6.435   7.850   0.858  0.6020  1.0733  1.9609
  203MOL   H17136935   6.596   7.928   0.879  1.4035 -1.5088 -0.6877
  203MOL   H17236936   6.471   8.006   0.794  0.2225 -1.0204 -1.3276
  203MOL   C17336937   6.777   7.553   0.562  0.0103 -0.3214  0.3998
  203MOL   C17436938   6.784   7.517   0.403 -0.2809 -0.7039  0.1666
  203MOL   C17536939   6.742   7.436   0.649 -0.1064  0.0048  0.2580
  203MOL   O17636940   6.708   7.330   0.598  0.5679 -0.2871  0.1423
  203MOL   O17736941   6.751   7.462   0.782  0.1196 -0.2389 -0.3094
  203MOL   H17836942   6.876   7.581   0.600 -0.2884 -1.2369  1.8786
  203MOL   H17936943   6.877   7.468   0.376 -0.1296  0.4475 -1.4136
  203MOL   H18036944   6.708   7.446   0.371 -0.6345 -0.5400  0.6292
  203MOL   H18136945   6.768   7.605   0.342 -1.3749 -2.0601 -1.5440
  203MOL   H18236946   6.738   7.379   0.826 -0.9364 -0.5867 -1.2672
  204MOL     C136947   6.840   5.948   6.971 -0.3939  0.1968 -0.6642
  204MOL     C236948   6.900   5.894   7.105  0.0450 -0.2561 -0.0299
  204MOL     C336949   6.766   6.075   6.986 -0.2450  1.0306  0.3550
  204MOL     O436950   6.646   6.077   6.953 -0.1273  0.5035  0.0115
  204MOL     O536951   6.841   6.177   7.029  0.1432 -0.4079  0.0429
  204MOL     H636952   6.908   5.945   6.886 -2.2945 -0.2246 -2.1921
  204MOL     H736953   6.821   5.879   7.178 -0.0968 -0.6481 -0.2629
  204MOL     H836954   6.942   5.795   7.086 -0.2184 -0.3352 -0.1945
  204MOL     H936955   6.975   5.965   7.140  0.9014 -0.8531 -0.6119
  204MOL    H1036956   6.757   5.880   6.952  0.1954 -1.1090  1.3038
  204MOL    C1136957   6.793   6.309   7.048 -0.7614 -0.2323 -0.3464
  204MOL    C1236958   6.909   6.406   7.060  0.3813 -0.4575  0.2912
  204MOL    C1336959   6.707   6.321   7.174  0.5623  0.0025  0.2563
  204MOL    O1436960   6.601   6.378   7.183 -0.0687 -0.2475 -0.3260
  204MOL    O1536961   6.764   6.249   7.272  0.1069  0.6254 -0.1464
  204MOL    H1636962   6.733   6.340   6.963  2.0676 -1.0177 -2.6869
  204MOL    H1736963   6.876   6.510   7.055  0.9442 -0.2160  1.3710
  204MOL    H1836964   6.972   6.389   7.148  1.2759  0.3259 -0.1888
  204MOL    H1936965   6.972   6.390   6.973 -0.1715 -0.1226 -0.1708
  204MOL    C2036966   6.712   6.238   7.406  0.4016  0.6710 -0.6331
  204MOL    C2136967   6.579   6.159   7.431  0.0887 -0.1779  0.0003
  204MOL    C2236968   6.712   6.371   7.478  0.4387 -0.2147  0.4479
  204MOL    O2336969   6.649   6.393   7.579  0.1765  0.8779 -0.3464
  204MOL    O2436970   6.801   6.456   7.419  0.3433  0.1755 -0.3483
  204MOL    H2536971   6.788   6.180   7.459 -1.3502 -0.7829  0.3534
  204MOL    H2636972   6.576   6.117   7.531 -0.9428  0.3301  0.1780
  204MOL    H2736973   6.487   6.214   7.411  0.3438  0.0977 -0.4419
  204MOL    H2836974   6.570   6.082   7.354 -0.0369  0.0159 -0.1800
  204MOL    C2936975   6.840   6.577   7.479 -0.4012 -0.2590 -0.1489
  204MOL    C3036976   6.844   6.681   7.358  0.1801  0.2303 -0.4156
  204MOL    C3136977   6.977   6.555   7.556  0.3184 -0.0955 -0.3667
  204MOL    O3236978   7.073   6.633   7.548  0.1125  0.0153  0.3131
  204MOL    O3336979   6.977   6.452   7.641 -0.0304  0.2754  0.5569
  204MOL    H3436980   6.766   6.624   7.544 -1.0420  0.7737 -1.5834
  204MOL    H3536981   6.743   6.691   7.318  0.7358  2.1501 -1.3997
  204MOL    H3636982   6.885   6.781   7.374 -1.6851  1.0259 -0.5419
  204MOL    H3736983   6.904   6.642   7.275  2.2773  2.1680  0.1492
  204MOL    C3836984   7.096   6.404   7.706  0.3569 -0.0327  0.2823
  204MOL    C3936985   7.090   6.253   7.680  0.0323 -0.2113  0.4212
  204MOL    C4036986   7.098   6.456   7.855  0.1177  0.0769  0.2938
  204MOL    O4136987   7.021   6.541   7.895 -0.1194 -0.0500 -0.4378
  204MOL    O4236988   7.189   6.392   7.922 -0.2799 -0.3817 -0.3208
  204MOL    H4336989   7.180   6.455   7.659  1.3984 -1.8080  0.1864
  204MOL    H4436990   7.084   6.236   7.572  1.3759 -5.3645  1.0198
  204MOL    H4536991   7.168   6.190   7.721  1.2138  2.4284  2.3664
  204MOL    H4636992   6.994   6.219   7.717 -0.4838 -0.0286 -0.7256
  204MOL    C4736993   7.215   6.425   8.059  0.2105 -0.0395 -1.1185
  204MOL    C4836994   7.359   6.386   8.088 -0.6585  0.4357  0.2172
  204MOL    C4936995   7.127   6.341   0.008  0.5991  0.2864  0.5752
  204MOL    O5036996   7.027   6.392   0.062  0.2660  0.2515 -0.0920
  204MOL    O5136997   7.160   6.206   0.015  0.4196 -0.0708  0.4998
  204MOL    H5236998   7.207   6.531   8.085 -3.5495 -0.7631  1.0081
  204MOL    H5336999   7.423   6.464   8.047  0.4884 -0.9563 -0.6925
  204MOL    H5437000   7.372   6.381   0.049 -0.0855 -1.0868  0.0911
  204MOL    H5537001   7.401   6.299   8.037  3.8051  2.0254  0.9594
  204MOL    C5637002   7.115   6.118   0.118  0.1099 -0.1409  0.1267
  204MOL    C5737003   6.965   6.073   0.100  0.6539  0.0932 -0.8019
  204MOL    C5837004   7.149   6.178   0.255  0.5735  0.4775  0.3066
  204MOL    O5937005   7.246   6.258   0.264 -0.0957  0.1204 -0.6457
  204MOL    O6037006   7.072   6.134   0.357  0.4807 -0.1068 -0.1944
  204MOL    H6137007   7.176   6.029   0.103  1.3968  0.7909 -0.2707
  204MOL    H6237008   6.929   6.005   0.178 -0.6012  0.9582 -0.6089
  204MOL    H6337009   6.894   6.154   0.085  1.3324  0.9543  0.4659
  204MOL    H6437010   6.960   6.020   0.005 -0.2808  0.4085 -0.9301
  204MOL    C6537011   7.108   6.167   0.491 -0.0189  0.7599  0.5984
  204MOL    C6637012   7.134   6.034   0.559 -0.1548 -0.2746  0.2166
  204MOL    C6737013   6.995   6.255   0.559 -0.3300  0.1577 -0.0388
  204MOL    O6837014   6.882   6.237   0.526 -0.3260  0.8649  0.5142
  204MOL    O6937015   7.033   6.329   0.670 -0.3486 -0.6723 -0.3657
  204MOL    H7037016   7.191   6.238   0.494  1.4149 -0.8163 -0.4316
  204MOL    H7137017   7.205   6.042   0.642 -2.1388  0.3846  1.8755
  204MOL    H7237018   7.044   5.982   0.591  0.8565 -1.8300  0.6068
  204MOL    H7337019   7.165   5.971   0.476  0.1665  1.3519 -0.9378
  204MOL    C7437020   6.940   6.399   0.749 -0.7989 -0.8641 -0.6246
  204MOL    C7537021   7.029   6.508   0.803 -0.3843 -0.0472  0.8949
  204MOL    C7637022   6.875   6.306   0.846 -0.5825  0.0826  0.4257
  204MOL    O7737023   6.911   6.190   0.860 -0.2931 -0.0574 -0.0401
  204MOL    O7837024   6.792   6.369   0.928  0.0106 -0.0868  0.1053
  204MOL    H7937025   6.859   6.445   0.692 -0.8343 -2.0842 -1.5929
  204MOL    H8037026   7.112   6.464   0.858 -0.9205 -0.6189  1.2500
  204MOL    H8137027   7.075   6.561   0.719  0.0925  2.0971  2.4855
  204MOL    H8237028   6.988   6.581   0.872  1.8685  0.6821  1.5198
  204MOL    C8337029   6.751   6.309   1.047 -0.4800 -0.2906  0.1478
  204MOL    C8437030   6.625   6.388   1.090  0.4284  0.8383 -0.1494
  204MOL    C8537031   6.855   6.308   1.154  0.3537 -0.2463  0.5768
  204MOL    O8637032   6.967   6.369   1.142 -0.0829  0.0229  0.6073
  204MOL    O8737033   6.816   6.256   1.271  1.0460  0.0354 -0.7276
  204MOL    H8837034   6.715   6.206   1.039 -2.5282  0.2118  2.1296
  204MOL    H8937035   6.553   6.387   1.009  0.4683 -1.3949 -0.1947
  204MOL    H9037036   6.579   6.337   1.176 -0.5209 -0.1772 -1.2430
  204MOL    H9137037   6.635   6.495   1.104 -1.7648  1.0337  0.1563
  204MOL    C9237038   6.915   6.254   1.372 -0.6802 -0.0918  0.0338
  204MOL    C9337039   6.885   6.125   1.445 -0.2023  0.2344  0.5185
  204MOL    C9437040   6.885   6.384   1.456  0.3628  0.0327  1.0235
  204MOL    O9537041   6.804   6.396   1.544 -0.4770 -0.2835  0.4503
  204MOL    O9637042   6.955   6.489   1.416  0.3653 -0.2912  0.3083
  204MOL    H9737043   7.023   6.248   1.358 -0.3053 -0.3788  2.6641
  204MOL    H9837044   6.779   6.098   1.451 -0.6003  1.7884  0.7097
  204MOL    H9937045   6.922   6.052   1.373  0.7717  0.7436  0.4919
  204MOL   H10037046   6.940   6.100   1.536 -1.0784 -1.5792  0.5635
  204MOL   C10137047   6.915   6.628   1.455  0.1225 -0.0204 -0.6146
  204MOL   C10237048   6.953   6.733   1.349  0.1504 -0.1120 -0.4181
  204MOL   C10337049   6.947   6.653   1.605  0.0968  1.0744  0.0987
  204MOL   O10437050   7.012   6.572   1.667  0.1943  0.4791 -0.0867
  204MOL   O10537051   6.894   6.771   1.655 -0.0008  0.4458 -0.1925
  204MOL   H10637052   6.807   6.635   1.439 -0.2631 -0.8155  1.5634
  204MOL   H10737053   6.910   6.704   1.253 -1.4504  1.9121 -0.3447
  204MOL   H10837054   6.920   6.832   1.377  1.4911  0.4334 -0.7419
  204MOL   H10937055   7.062   6.730   1.337 -0.0153 -3.8114 -1.8764
  204MOL   C11037056   6.919   6.811   1.785  0.7228  0.0347  0.2017
  204MOL   C11137057   6.794   6.893   1.819  0.7026  0.0931  0.2975
  204MOL   C11237058   7.047   6.890   1.787  0.2368 -0.0381 -0.2639
  204MOL   O11337059   7.097   6.921   1.684 -0.1974 -0.2470  0.4620
  204MOL   O11437060   7.084   6.930   1.908  0.0437  0.2007  0.0930
  204MOL   H11537061   6.921   6.732   1.861  0.6722 -0.3012 -0.1461
  204MOL   H11637062   6.801   6.923   1.924 -1.8726  0.8717  0.2917
  204MOL   H11737063   6.786   6.984   1.760  1.4560 -0.7465 -1.1124
  204MOL   H11837064   6.702   6.836   1.813  1.5097 -1.0043 -2.2212
  204MOL   C11937065   7.182   7.034   1.924  1.0643  0.2854 -0.3439
  204MOL   C12037066   7.319   6.973   1.981  0.4507 -0.9313  0.4143
  204MOL   C12137067   7.113   7.142   2.006 -0.1036 -0.1598 -0.4962
  204MOL   O12237068   7.169   7.204   2.101 -0.1540 -0.0571  0.0052
  204MOL   O12337069   6.989   7.170   1.964  0.2435  0.1727 -0.1099
  204MOL   H12437070   7.216   7.092   1.838  0.9225  1.6495  0.5001
  204MOL   H12537071   7.288   6.922   2.073 -0.5532 -0.1820  0.4995
  204MOL   H12637072   7.348   6.889   1.917  1.1149  0.4413 -1.1027
  204MOL   H12737073   7.402   7.043   1.986 -0.5877  0.2533  1.3032
  204MOL   C12837074   6.906   7.277   2.005  0.8368  0.5356 -0.5528
  204MOL   C12937075   6.793   7.287   1.909 -0.2479 -0.1602 -0.4347
  204MOL   C13037076   6.974   7.416   2.008 -0.2449 -0.1447 -0.1231
  204MOL   O13137077   6.940   7.501   2.091 -0.7680 -0.4129 -0.3994
  204MOL   O13237078   7.061   7.438   1.900  0.4667 -0.1298 -0.0310
  204MOL   H13337079   6.867   7.257   2.105 -1.3822  1.8070 -1.1187
  204MOL   H13437080   6.822   7.341   1.819 -0.6011 -0.0389 -0.4740
  204MOL   H13537081   6.764   7.187   1.879 -1.6712  0.0169  0.3013
  204MOL   H13637082   6.704   7.334   1.949  1.6237  2.7286  0.5266
  204MOL   C13737083   7.157   7.545   1.915 -0.5246  0.4660 -0.1078
  204MOL   C13837084   7.132   7.655   1.804 -0.3518  0.7117 -0.3226
  204MOL   C13937085   7.296   7.482   1.899  0.0219  0.6216  0.0535
  204MOL   O14037086   7.317   7.374   1.846  0.0043 -0.3120 -0.2939
  204MOL   O14137087   7.395   7.567   1.941  0.1248 -0.1723  0.3311
  204MOL   H14237088   7.147   7.584   2.016  0.1232 -0.0642  0.1682
  204MOL   H14337089   7.026   7.675   1.788 -0.5472  0.9431  1.1177
  204MOL   H14437090   7.189   7.747   1.817 -0.7128  1.0438 -1.1152
  204MOL   H14537091   7.165   7.612   1.710 -0.8828 -0.7267  0.1250
  204MOL   C14637092   7.529   7.518   1.937  0.2463  0.0239  0.4699
  204MOL   C14737093   7.613   7.598   2.038  0.0173  0.2815  0.3394
  204MOL   C14837094   7.582   7.530   1.794 -0.9012 -0.0359  0.2115
  204MOL   O14937095   7.661   7.446   1.744  0.0779  0.3980 -0.0947
  204MOL   O15037096   7.533   7.644   1.729  0.1006 -0.1235 -0.0016
  204MOL   H15137097   7.528   7.415   1.972 -1.7307  0.5043  1.9233
  204MOL   H15237098   7.709   7.547   2.042 -0.7842 -1.3745 -0.8185
  204MOL   H15337099   7.622   7.703   2.010  0.4027 -0.0107 -0.6481
  204MOL   H15437100   7.576   7.590   2.140  1.6268 -0.9145  0.8567
  204MOL   C15537101   7.559   7.657   1.589 -0.9380  0.1387 -0.0960
  204MOL   C15637102   7.586   7.800   1.547  0.6665 -0.3601 -0.2881
  204MOL   C15737103   7.458   7.581   1.505  0.0421  0.0056 -0.2391
  204MOL   O15837104   7.339   7.591   1.539  0.2687  0.2727 -0.2837
  204MOL   O15937105   7.499   7.516   1.402 -0.6582 -0.4539 -0.2386
  204MOL   H16037106   7.655   7.610   1.568 -1.3531 -0.4364 -0.7029
  204MOL   H16137107   7.694   7.807   1.533  0.6825 -2.3459 -1.3761
  204MOL   H16237108   7.562   7.815   1.442 -1.0022 -0.7295  0.0202
  204MOL   H16337109   7.536   7.880   1.602 -1.0583 -1.0490 -0.8140
  204MOL   C16437110   7.408   7.434   1.319  1.2891 -0.1269 -0.1306
  204MOL   C16537111   7.304   7.527   1.248 -0.7502 -0.0755 -0.0083
  204MOL   C16637112   7.333   7.321   1.396 -0.1285 -0.0620  0.0691
  204MOL   O16737113   7.369   7.282   1.507  0.8396 -0.4397  0.2806
  204MOL   O16837114   7.225   7.282   1.346  0.1925  0.1031  0.0571
  204MOL   H16937115   7.456   7.380   1.237  0.3739 -1.5785  0.2824
  204MOL   H17037116   7.251   7.587   1.321 -3.0012 -3.0768  0.9317
  204MOL   H17137117   7.351   7.606   1.189  0.1643  0.1645  1.0058
  204MOL   H17237118   7.241   7.475   1.175 -0.0485  0.1076 -0.7589
  204MOL   C17337119   7.150   7.171   1.402 -0.1179 -0.0542 -0.2131
  204MOL   C17437120   7.078   7.089   1.290 -0.2015 -0.1390  0.4546
  204MOL   C17537121   7.060   7.227   1.513  0.0456 -0.6144  0.4507
  204MOL   O17637122   6.940   7.217   1.507  0.5605  0.7024 -0.4013
  204MOL   O17737123   7.118   7.294   1.619 -0.5489  0.0087  0.0209
  204MOL   H17837124   7.216   7.095   1.444 -0.9023  0.2822  1.6968
  204MOL   H17937125   7.148   7.025   1.235 -1.5425 -0.2819 -1.1336
  204MOL   H18037126   6.999   7.027   1.332  0.6322 -0.7971  1.0579
  204MOL   H18137127   7.033   7.143   1.207  1.2285 -2.0612 -1.6420
  204MOL   H18237128   7.212   7.298   1.613 -0.6327  0.4481 -1.2103
  205MOL     C137129   6.552   2.328   0.832  0.4539 -0.8835  0.0544
  205MOL     C237130   6.458   2.436   0.783  0.1483  0.1305 -0.0196
  205MOL     C337131   6.702   2.366   0.814 -0.1630 -0.0748  0.2080
  205MOL     O437132   6.737   2.459   0.735 -0.5136  0.2419 -0.3017
  205MOL     O537133   6.780   2.276   0.874  0.7268 -0.0292  0.5954
  205MOL     H637134   6.542   2.314   0.940  1.4530 -0.4347  0.2168
  205MOL     H737135   6.356   2.401   0.796  1.1703 -3.9115 -2.0969
  205MOL     H837136   6.470   2.526   0.843  0.9006 -0.7558  1.1775
  205MOL     H937137   6.466   2.459   0.677  0.2887 -1.8719 -0.4659
  205MOL    H1037138   6.528   2.238   0.777 -2.9056 -1.0906  1.7377
  205MOL    C1137139   6.925   2.281   0.886 -0.0771 -0.0663 -0.4697
  205MOL    C1237140   7.000   2.169   0.816 -0.3826  0.0783 -0.1621
  205MOL    C1337141   6.965   2.287   1.029  0.1244  0.0389  0.4378
  205MOL    O1437142   6.876   2.289   1.112  0.4298 -0.3394  0.0870
  205MOL    O1537143   7.102   2.305   1.051  0.5442 -0.8145  0.9895
  205MOL    H1637144   6.944   2.380   0.843 -0.7428 -0.4183 -1.6001
  205MOL    H1737145   6.996   2.077   0.873 -2.8000  0.7379  0.7791
  205MOL    H1837146   6.962   2.129   0.722 -0.0002  0.2695 -0.4024
  205MOL    H1937147   7.105   2.193   0.797 -0.6220  1.0477 -0.3403
  205MOL    C2037148   7.152   2.311   1.184 -0.5912 -0.1542  0.1131
  205MOL    C2137149   7.306   2.337   1.182  0.4857 -0.1411 -0.2546
  205MOL    C2237150   7.118   2.185   1.262  0.3461  0.0337  0.3385
  205MOL    O2337151   7.094   2.079   1.205 -0.1577 -0.1810 -0.4753
  205MOL    O2437152   7.127   2.205   1.392  0.2834  0.3191 -0.3609
  205MOL    H2537153   7.114   2.404   1.226  1.1241  1.2912 -1.4418
  205MOL    H2637154   7.331   2.440   1.156  2.1154 -0.8477 -1.5747
  205MOL    H2737155   7.353   2.316   1.278 -1.6742 -0.1624  0.8207
  205MOL    H2837156   7.349   2.258   1.121 -0.8944 -1.0990 -0.0122
  205MOL    C2937157   7.094   2.110   1.493 -0.0810  0.2594  0.0036
  205MOL    C3037158   7.035   2.181   1.616  0.2217 -0.2722 -0.6406
  205MOL    C3137159   7.209   2.019   1.528  0.4774  0.0591  0.1335
  205MOL    O3237160   7.195   1.896   1.516 -0.1050  0.4203  0.2215
  205MOL    O3337161   7.331   2.081   1.561 -0.3116  0.1186  0.2198
  205MOL    H3437162   7.015   2.040   1.466  1.0831 -2.0887  2.4982
  205MOL    H3537163   7.069   2.284   1.623  1.3844 -0.7239  0.6543
  205MOL    H3637164   6.927   2.191   1.618  0.2311 -0.3549  0.5526
  205MOL    H3737165   7.065   2.138   1.712 -0.1596 -2.2904 -1.4159
  205MOL    C3837166   7.449   2.005   1.567 -0.0228 -0.1540 -0.2203
  205MOL    C3937167   7.547   2.073   1.664  0.1926 -0.7133 -0.0003
  205MOL    C4037168   7.511   1.992   1.424 -0.6719  0.4237 -0.0149
  205MOL    O4137169   7.493   2.074   1.335 -0.4999 -0.4025  0.0679
  205MOL    O4237170   7.595   1.883   1.417  0.1583  0.5628 -0.0461
  205MOL    H4337171   7.422   1.906   1.603  1.4145  0.4768  2.7723
  205MOL    H4437172   7.505   2.078   1.764  0.6319  0.0171  0.1450
  205MOL    H4537173   7.644   2.024   1.671  0.9951  1.2274  3.4940
  205MOL    H4637174   7.582   2.171   1.632  0.9709 -1.2884 -0.9359
  205MOL    C4737175   7.659   1.848   1.294  0.4754 -0.5702 -0.1427
  205MOL    C4837176   7.646   1.696   1.282 -0.0812  0.0512  0.3452
  205MOL    C4937177   7.803   1.902   1.297 -0.4527  0.3410  0.0899
  205MOL    O5037178   7.830   2.010   1.342 -0.0689  0.1902  0.2638
  205MOL    O5137179   7.899   1.817   1.250  0.4218  0.2117  0.0590
  205MOL    H5237180   7.615   1.897   1.207 -1.7547 -0.0588  1.2474
  205MOL    H5337181   7.705   1.652   1.202 -1.3792 -1.0391 -0.0246
  205MOL    H5437182   7.681   1.648   1.374  1.3298  0.6821  0.1602
  205MOL    H5537183   7.545   1.661   1.262 -0.1314  0.8008 -0.7643
  205MOL    C5637184   8.019   1.861   1.190 -0.0892  0.4099  0.4975
  205MOL    C5737185   8.118   1.908   1.291  0.2311  0.5120  0.3366
  205MOL    C5837186   8.003   1.963   1.074  0.1435 -0.2640 -0.0396
  205MOL    O5937187   7.895   1.993   1.023 -0.2177  0.5668 -0.0995
  205MOL    O6037188   8.119   2.009   1.027 -0.3792  0.4974 -0.2947
  205MOL    H6137189   8.059   1.768   1.150 -1.9236 -0.1279 -0.1124
  205MOL    H6237190   0.000   1.824   1.354 -1.1914 -0.8917 -0.8283
  205MOL    H6337191   0.067   1.932   1.245  2.0930 -2.9712  2.2215
  205MOL    H6437192   8.090   1.989   1.358  1.0176  0.5892  0.5749
  205MOL    C6537193   8.133   2.052   0.892  0.3756  0.0464  1.3520
  205MOL    C6637194   0.117   1.999   0.839 -0.9525  0.4042  0.4083
  205MOL    C6737195   8.112   2.204   0.877  0.3076 -0.0038  0.1548
  205MOL    O6837196   8.092   2.280   0.976  0.2797  0.4933  0.2905
  205MOL    O6937197   8.120   2.245   0.752 -0.1989 -0.1695  0.0321
  205MOL    H7037198   8.051   2.010   0.834  0.8940  2.5653 -1.2928
  205MOL    H7137199   0.119   2.019   0.732 -0.2919  1.7356  0.6633
  205MOL    H7237200   0.202   2.050   0.883 -0.2301 -0.1808 -0.2659
  205MOL    H7337201   0.133   1.891   0.845 -0.1528  0.4669 -0.3846
  205MOL    C7437202   8.126   2.387   0.727 -0.0728 -0.6546 -0.6037
  205MOL    C7537203   8.086   2.406   0.585  0.5798  0.6298  0.4762
  205MOL    C7637204   0.126   2.432   0.737 -0.3404 -0.1622 -0.1473
  205MOL    O7737205   0.166   2.525   0.806  0.1848 -0.2481  0.3140
  205MOL    O7837206   0.213   2.356   0.665  0.6206 -0.3917  0.5151
  205MOL    H7937207   8.074   2.458   0.791  1.0494  0.4184 -0.8680
  205MOL    H8037208   8.100   2.504   0.541  0.4315 -0.0986 -1.2458
  205MOL    H8137209   8.133   2.331   0.521 -1.3449 -0.4179  0.2255
  205MOL    H8237210   7.981   2.383   0.565  0.9272  0.3068 -1.0720
  205MOL    C8337211   0.351   2.407   0.633 -0.1065  0.2223 -1.2742
  205MOL    C8437212   0.384   2.333   0.505  0.2985 -0.7654 -0.3214
  205MOL    C8537213   0.447   2.360   0.747  0.7932 -0.1212 -0.5336
  205MOL    O8637214   0.411   2.285   0.840 -0.1555  0.1554 -0.4167
  205MOL    O8737215   0.574   2.403   0.721 -0.7806  0.1002  0.5444
  205MOL    H8837216   0.349   2.515   0.616 -1.0060  0.3585 -0.3288
  205MOL    H8937217   0.352   2.230   0.521  2.0005 -0.7927  3.5262
  205MOL    H9037218   0.334   2.381   0.421 -0.6010  2.1741  1.8365
  205MOL    H9137219   0.489   2.329   0.475  0.5511  1.2404  0.2232
  205MOL    C9237220   0.683   2.375   0.811  0.0196  0.4521 -0.1951
  205MOL    C9337221   0.801   2.459   0.773  0.4153 -0.3691 -0.3781
  205MOL    C9437222   0.722   2.225   0.820 -0.5311  0.1823  0.2298
  205MOL    O9537223   0.705   2.148   0.729 -0.6737 -0.0604  0.5511
  205MOL    O9637224   0.770   2.192   0.947  0.5873 -0.0874 -0.0788
  205MOL    H9737225   0.643   2.397   0.910  1.3962 -1.3606  0.8030
  205MOL    H9837226   0.833   2.449   0.669 -1.1263  0.8895 -0.9988
  205MOL    H9937227   0.780   2.564   0.791 -1.5971 -0.4131 -2.2171
  205MOL   H10037228   0.884   2.426   0.835  1.4823  0.6633 -1.2285
  205MOL   C10137229   0.824   2.068   0.985 -0.2851 -0.4021  0.8708
  205MOL   C10237230   0.844   2.070   1.142  0.1152  0.0335  0.6120
  205MOL   C10337231   0.955   2.062   0.913 -0.9833 -0.5128  0.0995
  205MOL   O10437232   0.995   1.958   0.870  0.1016  0.0012  1.1975
  205MOL   O10537233   1.019   2.180   0.935 -0.4218  0.2069  0.1898
  205MOL   H10637234   0.757   1.986   0.959 -0.0577 -0.3329  0.0469
  205MOL   H10737235   0.863   1.969   1.177  2.0603  0.6084  1.2845
  205MOL   H10837236   0.929   2.135   1.166  0.8953 -0.4886 -0.6736
  205MOL   H10937237   0.757   2.118   1.186  0.5622  0.4258  1.0748
  205MOL   C11037238   1.154   2.194   0.888  0.7726  0.0316  0.3077
  205MOL   C11137239   1.219   2.313   0.959  0.1338 -0.2261 -0.1556
  205MOL   C11237240   1.155   2.229   0.733  0.0194  0.0158  0.3745
  205MOL   O11337241   1.054   2.260   0.676  0.3583  0.0754 -0.1388
  205MOL   O11437242   1.275   2.224   0.674  0.2381 -0.1935  0.0876
  205MOL   H11537243   1.214   2.104   0.902 -1.5566 -1.8378 -1.3317
  205MOL   H11637244   1.149   2.396   0.972  0.1809  0.2119 -2.4817
  205MOL   H11737245   1.258   2.279   1.055 -0.0959  0.1583  0.0756
  205MOL   H11837246   1.297   2.352   0.894  1.7243 -1.8003  0.7707
  205MOL   C11937247   1.304   2.291   0.550  0.0465  0.5469  0.2305
  205MOL   C12037248   1.452   2.271   0.513 -0.4553 -0.2082 -0.2641
  205MOL   C12137249   1.274   2.441   0.560 -0.9230  0.7951 -0.2656
  205MOL   O12237250   1.296   2.501   0.664 -0.1432 -0.1358  0.2346
  205MOL   O12337251   1.222   2.492   0.446  0.4747  0.2896  0.1568
  205MOL   H12437252   1.244   2.249   0.469  0.2357 -0.6092  0.6840
  205MOL   H12537253   1.517   2.330   0.577 -0.0443 -0.2544 -0.6379
  205MOL   H12637254   1.484   2.169   0.535  1.6208  0.6341  0.6696
  205MOL   H12737255   1.476   2.290   0.408 -0.1481 -4.1807 -1.0253
  205MOL   C12837256   1.185   2.629   0.435  0.2571  0.7938  0.4397
  205MOL   C12937257   1.144   2.649   0.288 -0.0389  0.0298 -0.6540
  205MOL   C13037258   1.295   2.730   0.475 -0.0973  0.0693 -0.9973
  205MOL   O13137259   1.267   2.823   0.550  0.5098 -0.2141  0.1169
  205MOL   O13237260   1.423   2.703   0.420 -0.5686 -0.3547 -0.0222
  205MOL   H13337261   1.106   2.626   0.511 -0.5768  1.0563 -0.4195
  205MOL   H13437262   1.074   2.575   0.250  0.7351 -1.3885  0.6335
  205MOL   H13537263   1.094   2.746   0.291 -0.0283 -0.0133  2.0985
  205MOL   H13637264   1.225   2.640   0.215 -1.0763 -1.7769 -1.6229
  205MOL   C13737265   1.536   2.796   0.437  0.0595 -0.1405 -0.6611
  205MOL   C13837266   1.642   2.776   0.323 -0.1113  0.1937  0.4365
  205MOL   C13937267   1.601   2.782   0.572  0.7472 -0.3002 -0.3129
  205MOL   O14037268   1.718   2.738   0.582  0.1528 -0.0481 -0.3743
  205MOL   O14137269   1.522   2.830   0.673  0.7169 -0.2007 -0.3543
  205MOL   H14237270   1.493   2.896   0.431 -0.3929 -0.2510  0.4500
  205MOL   H14337271   1.598   2.807   0.229 -2.7296 -0.4301  1.4062
  205MOL   H14437272   1.733   2.833   0.340  1.0755 -0.8279 -2.3099
  205MOL   H14537273   1.678   2.673   0.322 -0.4255  0.0918 -0.9511
  205MOL   C14637274   1.584   2.868   0.802  0.5168 -0.1604  0.7673
  205MOL   C14737275   1.467   2.902   0.888  0.1326 -0.4634  0.4239
  205MOL   C14837276   1.676   2.986   0.788  0.1763 -0.1662 -0.0669
  205MOL   O14937277   1.776   2.991   0.855  0.2474 -0.1106  0.3158
  205MOL   O15037278   1.634   3.084   0.703  0.0809 -0.1771 -0.2173
  205MOL   H15137279   1.640   2.788   0.849  1.9700 -0.6539 -1.6874
  205MOL   H15237280   1.380   2.848   0.852  0.8531 -0.0273 -2.0709
  205MOL   H15337281   1.495   2.866   0.987 -0.4657  2.2527  1.6340
  205MOL   H15437282   1.443   3.008   0.898  1.2101 -0.1638 -0.1875
  205MOL   C15537283   1.706   3.206   0.687  0.3782  0.1437 -0.4623
  205MOL   C15637284   1.615   3.326   0.654  0.3543  0.8102 -0.6154
  205MOL   C15737285   1.823   3.193   0.585  0.3957 -0.5098  0.1709
  205MOL   O15837286   1.849   3.281   0.504  0.3857  0.5240  0.3730
  205MOL   O15937287   1.884   3.084   0.605  0.0923 -0.9560 -0.1600
  205MOL   H16037288   1.764   3.231   0.776  1.0297 -0.1547 -0.7956
  205MOL   H16137289   1.532   3.296   0.589  0.0180 -0.4442  0.3608
  205MOL   H16237290   1.563   3.362   0.742  1.3212  1.3158 -0.2531
  205MOL   H16337291   1.670   3.413   0.620  1.3524  0.5927  0.4058
  205MOL   C16437292   2.014   3.067   0.552  0.1597  0.7481 -0.2343
  205MOL   C16537293   2.043   2.919   0.544  0.5267  0.5347 -0.5869
  205MOL   C16637294   2.118   3.138   0.646  0.3437  0.2960 -0.2293
  205MOL   O16737295   2.084   3.203   0.747 -0.2897  0.2896 -0.1667
  205MOL   O16837296   2.244   3.134   0.591 -0.4372 -0.3020  0.4856
  205MOL   H16937297   2.017   3.104   0.449  1.2226 -0.0357 -0.5037
  205MOL   H17037298   1.956   2.865   0.505  0.0256  1.3145 -0.5663
  205MOL   H17137299   2.128   2.898   0.480  0.1070 -0.3410 -0.8662
  205MOL   H17237300   2.061   2.886   0.647 -0.6211  0.8974 -0.2584
  205MOL   C17337301   2.354   3.209   0.649 -0.6743  0.0265  0.0700
  205MOL   C17437302   2.426   3.274   0.532 -0.1484 -0.3295 -0.7229
  205MOL   C17537303   2.440   3.123   0.746 -0.9489 -0.6548  0.8751
  205MOL   O17637304   2.462   3.155   0.866  0.1136 -0.3194 -0.8036
  205MOL   O17737305   2.493   3.011   0.689  0.0631  0.0130 -0.6719
  205MOL   H17837306   2.319   3.302   0.693  2.2684  1.4391 -0.4807
  205MOL   H17937307   2.355   3.297   0.452 -1.5172 -0.8360  0.3136
  205MOL   H18037308   2.478   3.366   0.558  0.4357 -0.9223  0.2409
  205MOL   H18137309   2.501   3.207   0.491  2.2324  3.4479 -2.7880
  205MOL   H18237310   2.539   2.965   0.757  2.0769  3.9483  0.7579
  206MOL     C137311   8.049   2.857   5.593  0.9952  0.3468  0.1333
  206MOL     C237312   8.096   2.986   5.515 -0.6824  0.1103  0.2098
  206MOL     C337313   7.896   2.837   5.582 -0.0311 -0.2540 -0.4510
  206MOL     O437314   7.844   2.728   5.574  0.0495 -0.4594  0.3153
  206MOL     O537315   7.833   2.947   5.587 -0.0199 -0.3469  0.0279
  206MOL     H637316   8.099   2.774   5.543 -2.1719 -1.4249 -0.2203
  206MOL     H737317   0.036   2.957   5.457 -1.4107 -0.5667 -0.5800
  206MOL     H837318   8.020   3.030   5.450 -1.8810 -1.6758  0.3605
  206MOL     H937319   8.124   3.059   5.590  0.3463 -0.0366 -0.0162
  206MOL    H1037320   8.078   2.878   5.696  1.8918  0.7442 -0.2006
  206MOL    C1137321   7.695   2.955   5.601 -0.6441  0.6663 -0.8079
  206MOL    C1237322   7.629   2.927   5.464 -0.2771  0.0902  0.2805
  206MOL    C1337323   7.654   3.097   5.652 -0.1832  0.3080 -0.7692
  206MOL    O1437324   7.737   3.183   5.687 -0.5719 -0.3768  0.7653
  206MOL    O1537325   7.524   3.123   5.661  0.2642  0.2337 -0.0486
  206MOL    H1637326   7.659   2.877   5.668  1.2433 -0.0029 -0.5328
  206MOL    H1737327   7.523   2.953   5.469 -0.1805  0.5895 -0.2462
  206MOL    H1837328   7.681   2.989   5.392  0.4730 -0.8794 -0.0324
  206MOL    H1937329   7.630   2.819   5.449 -2.9182 -0.2945  2.5037
  206MOL    C2037330   7.483   3.257   5.698  0.0784 -0.1919  0.6690
  206MOL    C2137331   7.493   3.277   5.851 -0.0973  0.0196 -0.1168
  206MOL    C2237332   7.342   3.281   5.639  0.6344  0.5607 -0.3749
  206MOL    O2337333   7.307   3.393   5.606 -0.6484 -0.6859 -0.2644
  206MOL    O2437334   7.258   3.171   5.650  0.2013 -0.4265  0.0198
  206MOL    H2537335   7.548   3.334   5.657  0.4772 -1.5544 -1.2955
  206MOL    H2637336   7.589   3.326   5.870  0.2055 -0.1000 -1.3085
  206MOL    H2737337   7.413   3.337   5.895 -1.4286 -2.1661  0.5405
  206MOL    H2837338   7.496   3.185   5.909 -2.3602 -1.3003 -2.0092
  206MOL    C2937339   7.116   3.181   5.615  0.6530 -0.1818  0.7030
  206MOL    C3037340   7.051   3.065   5.682 -0.1184 -0.9620 -0.0518
  206MOL    C3137341   7.098   3.185   5.459 -0.0079  0.1028  0.3474
  206MOL    O3237342   7.188   3.143   5.379  0.2579  0.4337 -0.4034
  206MOL    O3337343   6.977   3.242   5.432 -0.8045  0.6854  0.1295
  206MOL    H3437344   7.073   3.273   5.655  0.2702  1.1272 -2.5956
  206MOL    H3537345   7.115   2.978   5.695  0.7529 -0.3444 -0.1651
  206MOL    H3637346   7.030   3.091   5.786 -2.8342 -2.0506 -0.2701
  206MOL    H3737347   6.954   3.042   5.639 -0.7832  0.1550  0.7907
  206MOL    C3837348   6.954   3.284   5.296  0.1505  0.0661  0.1999
  206MOL    C3937349   6.850   3.390   5.296  0.5872 -0.5287 -0.5193
  206MOL    C4037350   6.942   3.169   5.196 -0.5960  0.3868  0.2225
  206MOL    O4137351   6.982   3.175   5.080  0.3154 -0.5249  0.0808
  206MOL    O4237352   6.875   3.071   5.253  0.8093 -1.0538  0.4335
  206MOL    H4337353   7.043   3.331   5.255  1.4375 -0.3861  2.3994
  206MOL    H4437354   6.763   3.331   5.325  0.8450 -1.1294 -0.9687
  206MOL    H4537355   6.867   3.471   5.368  2.8062  0.3793 -2.0290
  206MOL    H4637356   6.826   3.437   5.201  1.8795 -1.2340 -1.2055
  206MOL    C4737357   6.811   2.967   5.181 -0.4945 -0.0534 -0.1399
  206MOL    C4837358   6.895   2.860   5.106 -0.1410  0.4759 -0.2688
  206MOL    C4937359   6.685   3.017   5.112 -0.0665  0.2551  0.0791
  206MOL    O5037360   6.578   3.031   5.176  0.0015  0.2519 -0.1460
  206MOL    O5137361   6.718   3.067   4.991  0.3950  0.1712  0.0599
  206MOL    H5237362   6.775   2.911   5.268  1.1392 -0.7517  0.1111
  206MOL    H5337363   6.830   2.779   5.073 -1.7655  2.0183 -0.9564
  206MOL    H5437364   6.945   2.912   5.025  1.5373  1.8584  1.6075
  206MOL    H5537365   6.979   2.819   5.163 -0.0354 -0.8012 -1.3116
  206MOL    C5637366   6.627   3.141   4.914 -0.1743  0.2188 -0.2197
  206MOL    C5737367   6.677   3.121   4.771  0.4411 -0.0031  0.1738
  206MOL    C5837368   6.618   3.287   4.959  0.1781  0.0514  0.7287
  206MOL    O5937369   6.613   3.320   5.080  0.3620  0.4211  0.4852
  206MOL    O6037370   6.628   3.376   4.855 -0.1771 -0.2243  0.0155
  206MOL    H6137371   6.523   3.107   4.917 -0.7548  1.8530 -0.9835
  206MOL    H6237372   6.623   3.037   4.730  0.8565  0.4313 -1.2831
  206MOL    H6337373   6.664   3.208   4.707  0.3749 -0.4356 -0.4049
  206MOL    H6437374   6.785   3.106   4.767  0.5826  1.1055 -0.2579
  206MOL    C6537375   6.621   3.518   4.865 -0.4478 -0.0019  0.3251
  206MOL    C6637376   6.609   3.564   4.731 -0.0272 -0.4988 -0.3029
  206MOL    C6737377   6.758   3.557   4.927 -0.1362  0.1216 -0.2418
  206MOL    O6837378   6.759   3.646   5.015 -0.5598  0.5880  0.1360
  206MOL    O6937379   6.872   3.501   4.867  0.1506 -0.5462 -0.3573
  206MOL    H7037380   6.541   3.544   4.934 -2.0878 -1.2265 -1.0886
  206MOL    H7137381   6.700   3.571   4.671  1.3884  0.8865  1.9195
  206MOL    H7237382   6.520   3.520   4.688 -0.2942 -0.0319 -0.2277
  206MOL    H7337383   6.573   3.666   4.746  0.1885 -0.7120  1.9005
  206MOL    C7437384   7.000   3.551   4.893  0.5030 -0.5254 -0.1292
  206MOL    C7537385   7.035   3.695   4.852  0.0439  0.7606  0.0344
  206MOL    C7637386   7.115   3.462   4.851 -0.3145 -0.0716  0.6256
  206MOL    O7737387   7.232   3.477   4.884  0.0814  0.5303 -0.9858
  206MOL    O7837388   7.079   3.369   4.763  0.3722  0.0287  0.1777
  206MOL    H7937389   7.009   3.545   5.001 -0.1822 -0.0020 -0.0410
  206MOL    H8037390   7.139   3.724   4.870  0.5234 -0.4066 -0.7366
  206MOL    H8137391   7.026   3.709   4.744 -0.2657 -0.5861 -0.1222
  206MOL    H8237392   6.975   3.772   4.899  0.1893  0.8779  0.0306
  206MOL    C8337393   7.154   3.265   4.698  0.6317  0.1947 -0.4056
  206MOL    C8437394   7.186   3.142   4.789  0.2836 -0.5724  0.1983
  206MOL    C8537395   7.275   3.325   4.629 -0.4985  0.7403 -0.4256
  206MOL    O8637396   7.276   3.445   4.592  0.2303 -0.2667  0.2077
  206MOL    O8737397   7.368   3.238   4.598  0.3350  0.6476  0.4624
  206MOL    H8837398   7.094   3.232   4.613  1.2238  0.8257 -1.0770
  206MOL    H8937399   7.088   3.127   4.834 -0.1502  1.7948  0.0963
  206MOL    H9037400   7.224   3.057   4.732 -2.2605 -0.4906 -1.7042
  206MOL    H9137401   7.262   3.162   4.864  1.5838 -1.3734 -0.8726
  206MOL    C9237402   7.483   3.276   4.522  0.0811  0.4140 -0.2195
  206MOL    C9337403   7.536   3.156   4.445  0.4392  0.5135 -0.7190
  206MOL    C9437404   7.596   3.337   4.607 -0.6415 -0.0932  0.2350
  206MOL    O9537405   7.696   3.271   4.636  0.3786 -0.2867  0.4793
  206MOL    O9637406   7.579   3.461   4.657  0.2601  0.0377  0.4201
  206MOL    H9737407   7.449   3.348   4.447 -0.3527  0.0639 -0.3645
  206MOL    H9837408   7.448   3.109   4.402  0.8881 -0.9935 -0.0092
  206MOL    H9937409   7.601   3.184   4.361  1.6233 -1.0193 -0.3393
  206MOL   H10037410   7.585   3.084   4.510 -0.2876  0.9196  0.2908
  206MOL   C10137411   7.677   3.517   4.740 -0.2312  0.1817 -0.2933
  206MOL   C10237412   7.614   3.636   4.803 -0.4121  0.1255 -0.6765
  206MOL   C10337413   7.809   3.559   4.659 -0.4012 -0.0399 -0.2838
  206MOL   O10437414   7.922   3.560   4.721 -0.1603  0.0214  0.0769
  206MOL   O10537415   7.787   3.602   4.530  0.7666  0.5083  0.6440
  206MOL   H10637416   7.707   3.451   4.821  0.3399 -0.4208 -0.9781
  206MOL   H10737417   7.682   3.668   4.882  0.0661  2.0297 -1.8156
  206MOL   H10837418   7.602   3.720   4.736 -2.0615  1.2467  0.9998
  206MOL   H10937419   7.513   3.618   4.838 -0.3220 -0.0831 -0.5206
  206MOL   C11037420   7.902   3.655   4.457  0.4722 -0.8571 -0.0272
  206MOL   C11137421   7.859   3.748   4.340  0.5831  1.3370  0.2026
  206MOL   C11237422   7.972   3.534   4.396 -0.5755 -0.2979  0.0432
  206MOL   O11337423   7.912   3.431   4.369  0.2327  0.4267 -0.5001
  206MOL   O11437424   8.106   3.547   4.375 -0.0823 -0.4244  0.1624
  206MOL   H11537425   7.972   3.709   4.521 -0.2210  0.6245 -0.4886
  206MOL   H11637426   7.787   3.694   4.279 -1.0455  1.7079  1.7686
  206MOL   H11737427   7.817   3.846   4.361 -2.2012  0.5459 -1.4697
  206MOL   H11837428   7.937   3.756   4.263  1.3654 -2.8269  0.4037
  206MOL   C11937429   0.030   3.451   4.302 -1.2150  0.5429  0.2682
  206MOL   C12037430   8.127   3.418   4.158  0.1729 -0.1508  0.5494
  206MOL   C12137431   0.081   3.330   4.389  0.5597 -0.1939 -0.0917
  206MOL   O12237432   0.076   3.211   4.349  0.3644 -0.4137  0.0601
  206MOL   O12337433   0.138   3.375   4.514 -0.2258 -0.3655 -0.3376
  206MOL   H12437434   0.123   3.503   4.279 -0.5045 -0.2560  1.2619
  206MOL   H12537435   0.062   3.366   4.109  1.5125  1.2466  1.2778
  206MOL   H12637436   8.038   3.355   4.161 -1.0428  1.4220 -1.1709
  206MOL   H12737437   8.115   3.511   4.102 -0.9443 -0.5996  0.0436
  206MOL   C12837438   0.205   3.282   4.593  0.3488 -0.1411  0.0426
  206MOL   C12937439   0.107   3.263   4.710 -0.5868  0.0251  0.1421
  206MOL   C13037440   0.337   3.338   4.631 -0.4300 -0.1197  0.2428
  206MOL   O13137441   0.393   3.435   4.577  0.1163  0.1830  0.3971
  206MOL   O13237442   0.391   3.264   4.736 -0.2070 -0.3481 -0.2451
  206MOL   H13337443   0.210   3.187   4.540  0.6681  0.0716 -0.3128
  206MOL   H13437444   0.103   3.351   4.775  3.4909 -0.1805  0.8154
  206MOL   H13537445   0.003   3.235   4.694 -0.5889  0.0812  0.0625
  206MOL   H13637446   0.149   3.188   4.777 -2.6281 -1.0190  0.2717
  206MOL   C13737447   0.515   3.297   4.790 -0.1128  0.3553 -0.1878
  206MOL   C13837448   0.576   3.172   4.852  0.6957 -0.3200  0.0150
  206MOL   C13937449   0.509   3.411   4.890 -0.0798  0.1763 -0.5982
  206MOL   O14037450   0.608   3.483   4.896 -0.3352  0.2551 -0.6050
  206MOL   O14137451   0.396   3.417   4.959  0.1241 -0.1672  0.2961
  206MOL   H14237452   0.580   3.328   4.708  2.0094 -1.2439  0.8521
  206MOL   H14337453   0.550   3.079   4.802 -3.5009 -0.0136  1.4769
  206MOL   H14437454   0.680   3.195   4.873  0.3740  2.0499 -0.8098
  206MOL   H14537455   0.528   3.162   4.949  0.6091 -1.0324 -0.0989
  206MOL   C14637456   0.364   3.536   5.029  0.4422 -0.5982  0.1103
  206MOL   C14737457   0.375   3.498   5.177 -0.1338  0.0524 -0.5090
  206MOL   C14837458   0.221   3.569   4.987  0.1923 -0.2474  0.6399
  206MOL   O14937459   0.118   3.560   5.062  0.1039  0.2279 -0.0135
  206MOL   O15037460   0.215   3.608   4.859 -0.5047  0.0353  0.2991
  206MOL   H15137461   0.434   3.617   5.012 -2.2492  1.9194  0.6192
  206MOL   H15237462   0.456   3.426   5.187  0.0059  0.3382  0.4647
  206MOL   H15337463   0.392   3.586   5.239 -0.7795  0.1792 -0.5138
  206MOL   H15437464   0.279   3.450   5.195  0.7787 -1.6725 -0.1689
  206MOL   C15537465   0.114   3.690   4.815  0.5039  0.4140 -0.5770
  206MOL   C15637466   0.115   3.701   4.659  0.2704 -0.5011  0.0923
  206MOL   C15737467   0.127   3.824   4.883  0.6448 -0.7079  0.1903
  206MOL   O15837468   0.076   3.863   4.989 -0.3584 -0.3731 -0.1966
  206MOL   O15937469   0.221   3.902   4.830 -0.0184  0.0671  0.2787
  206MOL   H16037470   0.016   3.648   4.834  0.4021 -0.3299 -2.6884
  206MOL   H16137471   0.062   3.789   4.622  1.0055 -0.4281 -0.7855
  206MOL   H16237472   0.214   3.704   4.613 -0.0373 -0.5299 -0.5782
  206MOL   H16337473   0.064   3.611   4.625  1.5272 -0.9686 -0.5682
  206MOL   C16437474   0.272   4.015   4.896 -1.0282 -0.5836 -0.5254
  206MOL   C16537475   0.333   4.093   4.779  0.7056 -0.6689 -0.0528
  206MOL   C16637476   0.375   3.978   5.001  0.2884 -0.2365 -0.0273
  206MOL   O16737477   0.424   3.865   5.011  0.0917  0.1829  1.0166
  206MOL   O16837478   0.418   4.084   5.074  0.0981  0.0490 -0.1632
  206MOL   H16937479   0.192   4.075   4.940 -0.7843 -1.5570  1.2801
  206MOL   H17037480   0.421   4.043   4.739  1.0527  0.8454 -1.2708
  206MOL   H17137481   0.256   4.116   4.705  1.2185  0.0901 -0.3637
  206MOL   H17237482   0.372   4.190   4.810 -0.2596  0.4096 -2.0848
  206MOL   C17337483   0.539   4.082   5.149 -0.4301  1.0312 -0.2483
  206MOL   C17437484   0.527   4.184   5.254 -0.2735  0.1484  0.2941
  206MOL   C17537485   0.655   4.114   5.056  0.0580  0.0963  0.7459
  206MOL   O17637486   0.647   4.159   4.935  0.1492  1.2095 -0.3984
  206MOL   O17737487   0.772   4.077   5.123  0.2473  0.6454  0.9476
  206MOL   H17837488   0.544   3.983   5.195  3.0863  1.3108  0.1428
  206MOL   H17937489   0.431   4.175   5.306  0.0769 -1.8881  0.6451
  206MOL   H18037490   0.604   4.175   5.331  0.3872  0.1228 -0.3718
  206MOL   H18137491   0.519   4.282   5.208  1.5621  1.2763  2.2597
  206MOL   H18237492   0.848   4.101   5.072 -0.2134 -1.7251 -0.9629
  207MOL     C137493   7.171   8.143   2.788  0.5900  0.1396  0.2763
  207MOL     C237494   7.034   8.100   2.847  0.3901  0.2539 -0.3202
  207MOL     C337495   7.153   0.031   2.642  0.2337  0.5576  0.0315
  207MOL     O437496   7.114   8.099   2.553 -0.0780 -0.1774 -0.2320
  207MOL     O537497   7.208   0.141   2.622  0.5806  0.2511 -0.0831
  207MOL     H637498   7.223   0.075   2.841 -0.1754  1.6480 -1.1879
  207MOL     H737499   7.053   8.060   2.946  0.2186  2.0127  0.4363
  207MOL     H837500   6.966   0.038   2.843  0.2102  0.2250  1.8791
  207MOL     H937501   6.987   8.025   2.784  0.9937  0.8822 -1.5475
  207MOL    H1037502   7.238   8.057   2.795  1.3300  0.5465 -1.5318
  207MOL    C1137503   7.225   0.201   2.495  0.5039  0.4381 -0.0984
  207MOL    C1237504   7.330   0.314   2.497  0.2038 -0.2362 -0.0319
  207MOL    C1337505   7.089   0.259   2.441  0.2504  0.5341  0.0143
  207MOL    O1437506   6.993   0.269   2.515 -0.0283  0.2339 -0.2876
  207MOL    O1537507   7.089   0.291   2.312 -0.0369  0.7061  0.3461
  207MOL    H1637508   7.259   0.124   2.426 -2.4737 -1.1356  0.1353
  207MOL    H1737509   7.326   0.382   2.582 -0.7600  0.3900 -0.5738
  207MOL    H1837510   7.433   0.277   2.502 -0.3032 -1.8603 -1.3082
  207MOL    H1937511   7.322   0.375   2.407  1.1866 -1.7001 -1.1503
  207MOL    C2037512   6.982   0.357   2.251  0.2754 -0.2410 -0.5525
  207MOL    C2137513   7.005   0.362   2.099  0.2949  0.0889  0.2250
  207MOL    C2237514   6.957   0.495   2.294  0.2610 -0.1427  0.5894
  207MOL    O2337515   6.847   0.549   2.273 -0.3751 -0.0571  0.3256
  207MOL    O2437516   7.065   0.551   2.355 -0.3818 -0.1125 -0.0828
  207MOL    H2537517   6.893   0.299   2.276  0.0216 -0.3705 -1.7204
  207MOL    H2637518   7.018   0.261   2.060  2.4307 -0.0074  1.0914
  207MOL    H2737519   6.924   0.409   2.043 -1.5158  1.0437  3.5213
  207MOL    H2837520   7.098   0.410   2.070  1.7036 -1.3295  2.2198
  207MOL    C2937521   7.077   0.688   2.402  0.3866 -0.1007 -0.4246
  207MOL    C3037522   7.006   0.714   2.538  0.2372 -0.1659  0.5571
  207MOL    C3137523   7.058   0.795   2.291 -0.4228  0.5197  0.3635
  207MOL    O3237524   7.093   0.764   2.182 -0.3359 -0.0034 -0.1442
  207MOL    O3337525   7.008   0.911   2.333  0.1605  0.4733 -0.2149
  207MOL    H3437526   7.186   0.688   2.400  0.4059  2.1749 -0.8267
  207MOL    H3537527   6.901   0.702   2.513  0.6867 -2.2575 -0.3567
  207MOL    H3637528   7.027   0.633   2.607 -3.0171 -0.1917  1.5839
  207MOL    H3737529   7.035   0.807   2.587  0.3004 -0.9720  2.0695
  207MOL    C3837530   6.979   1.012   2.238  0.0118 -0.6690 -0.2047
  207MOL    C3937531   6.997   1.146   2.312  0.1663  0.3177  0.2318
  207MOL    C4037532   6.840   0.986   2.177 -0.4923 -0.1592  0.5574
  207MOL    O4137533   6.740   1.033   2.227  0.5412  0.0034  0.1217
  207MOL    O4237534   6.846   0.901   2.070 -0.7176  0.3250  0.3141
  207MOL    H4337535   7.054   1.020   2.159 -0.5137 -1.9632 -0.8642
  207MOL    H4437536   7.099   1.183   2.314 -0.2312  1.5173 -0.9549
  207MOL    H4537537   6.944   1.226   2.260 -0.1605  0.0940  0.2162
  207MOL    H4637538   6.957   1.143   2.413  1.4900  0.8163  0.7739
  207MOL    C4737539   6.749   0.805   2.041  0.5460  0.3205  0.4985
  207MOL    C4837540   6.820   0.682   1.980 -0.4407 -0.1110  0.6172
  207MOL    C4937541   6.644   0.862   1.947  0.0162  0.2396 -0.1200
  207MOL    O5037542   6.603   0.795   1.851  0.1886  0.2428  0.2971
  207MOL    O5137543   6.602   0.981   1.979  0.1211 -1.0027  0.3226
  207MOL    H5237544   6.696   0.779   2.133 -0.8061  0.2871 -0.2856
  207MOL    H5337545   6.894   0.639   2.047 -0.9312 -0.4464  0.9456
  207MOL    H5437546   6.747   0.605   1.955  0.1993 -0.5685  0.1462
  207MOL    H5537547   6.875   0.710   1.890 -1.3514  2.4833  0.8387
  207MOL    C5637548   6.493   1.040   1.917 -0.7838 -0.2072  0.7820
  207MOL    C5737549   6.511   1.196   1.923 -0.3540 -0.1622 -0.0877
  207MOL    C5837550   6.364   0.990   1.983  1.1940  0.1450 -0.2439
  207MOL    O5937551   6.300   1.055   2.065 -0.0329  0.2368 -0.1664
  207MOL    O6037552   6.341   0.867   1.943  0.1299  0.2321  0.0520
  207MOL    H6137553   6.491   1.010   1.812  2.3106 -1.5895  1.0656
  207MOL    H6237554   6.606   1.217   1.876 -0.7566  1.9704 -0.0047
  207MOL    H6337555   6.431   1.249   1.871 -0.1623 -0.6623 -0.8961
  207MOL    H6437556   6.493   1.240   2.021 -0.7890  0.4068 -0.4200
  207MOL    C6537557   6.229   0.795   1.994 -0.5856 -0.4477 -0.2735
  207MOL    C6637558   6.100   0.838   1.926  0.0996 -0.1581 -0.1982
  207MOL    C6737559   6.235   0.782   2.152  0.1118 -0.2956  0.1750
  207MOL    O6837560   6.140   0.812   2.215  0.6231  0.1953 -0.0132
  207MOL    O6937561   6.350   0.729   2.190  0.6618 -0.3945 -0.2748
  207MOL    H7037562   6.251   0.695   1.956  0.7292 -0.7138  1.1349
  207MOL    H7137563   6.069   0.938   1.955 -2.3602 -1.2256  1.0328
  207MOL    H7237564   6.104   0.833   1.817  0.1705 -0.3896 -0.1851
  207MOL    H7337565   6.021   0.770   1.957 -0.8075  0.1328 -1.8340
  207MOL    C7437566   6.377   0.715   2.330 -0.0707 -0.2226  0.3610
  207MOL    C7537567   6.504   0.787   2.363 -0.1157  0.5686  0.0276
  207MOL    C7637568   6.371   0.567   2.361 -0.5660  0.1551  0.5828
  207MOL    O7737569   6.473   0.511   2.387  0.3689  0.4089 -0.2796
  207MOL    O7837570   6.248   0.520   2.359 -0.6572  0.3932 -0.1688
  207MOL    H7937571   6.298   0.761   2.389 -0.2362  0.4066 -0.3461
  207MOL    H8037572   6.513   0.809   2.470 -0.4637  1.2342 -0.0756
  207MOL    H8137573   6.591   0.726   2.337  1.2442  3.1969 -1.8204
  207MOL    H8237574   6.516   0.882   2.312 -1.8911  1.1090  0.6066
  207MOL    C8337575   6.218   0.383   2.381 -0.7603 -0.3451  0.2746
  207MOL    C8437576   6.078   0.354   2.329 -1.1488 -0.0302 -0.4316
  207MOL    C8537577   6.238   0.354   2.530  0.2336 -0.2581 -0.0179
  207MOL    O8637578   6.206   0.433   2.619  0.5775 -0.4142 -0.1107
  207MOL    O8737579   6.262   0.226   2.544 -0.5173 -0.1140  0.7852
  207MOL    H8837580   6.293   0.317   2.335 -1.6784 -0.6961 -0.7308
  207MOL    H8937581   6.075   0.352   2.220 -0.8685  1.2192 -0.4771
  207MOL    H9037582   6.032   0.258   2.349 -0.3730 -0.4687 -0.7491
  207MOL    H9137583   6.008   0.427   2.370 -0.7308  0.7129 -1.0363
  207MOL    C9237584   6.310   0.171   2.673  0.4095  1.0375  0.4659
  207MOL    C9337585   6.191   0.132   2.770 -0.5424  0.0756  0.7670
  207MOL    C9437586   6.420   0.252   2.750  0.1701 -0.1758  0.3654
  207MOL    O9537587   6.433   0.251   2.875  0.5330 -0.4744  0.1296
  207MOL    O9637588   6.510   0.317   2.656  0.3566  0.3804 -0.4545
  207MOL    H9737589   6.359   0.076   2.651  0.2097  1.0636 -0.1004
  207MOL    H9837590   6.104   0.088   2.721  0.6114 -0.6810 -0.6177
  207MOL    H9937591   6.219   0.083   2.864  2.0490  0.1485  0.0794
  207MOL   H10037592   6.152   0.226   2.808 -0.7355  0.6487 -0.8428
  207MOL   C10137593   6.644   0.334   2.683  0.2459 -0.1371  0.2540
  207MOL   C10237594   6.685   0.438   2.577  0.1847  0.2642  0.6255
  207MOL   C10337595   6.712   0.200   2.665 -0.0839  0.4412  0.3110
  207MOL   O10437596   6.772   0.159   2.762  0.1041 -0.1406 -0.4412
  207MOL   O10537597   6.700   0.134   2.553  0.3849 -0.3914  0.5532
  207MOL   H10637598   6.656   0.376   2.782 -0.8896 -2.9996  1.6598
  207MOL   H10737599   6.791   0.464   2.578  0.1188  0.6688 -1.0229
  207MOL   H10837600   6.659   0.403   2.477  0.5002 -0.1414  0.6853
  207MOL   H10937601   6.628   0.527   2.606  0.8600  0.0543  2.6586
  207MOL   C11037602   6.754   0.001   2.527 -0.4201 -0.0033  0.2592
  207MOL   C11137603   6.786   8.135   2.374 -0.4006  0.1522 -0.2843
  207MOL   C11237604   6.657   8.038   2.574  0.1441 -0.2271  0.4354
  207MOL   O11337605   6.618   7.944   2.507 -0.7406  0.0473 -0.3868
  207MOL   O11437606   6.626   8.060   2.710 -0.0859 -0.0847  0.0564
  207MOL   H11537607   6.843   8.127   2.587 -0.7119 -0.6092  0.4729
  207MOL   H11637608   6.700   0.000   2.307  0.2933 -3.2234 -1.9086
  207MOL   H11737609   6.867   0.054   2.342  0.2829 -0.4345  0.2338
  207MOL   H11837610   6.816   8.032   2.357  0.3972  0.6469 -2.0139
  207MOL   C11937611   6.544   7.963   2.776  0.1174  0.3437 -0.2206
  207MOL   C12037612   6.490   8.038   2.902  0.9487  0.3913  0.0807
  207MOL   C12137613   6.630   7.844   2.813  0.9036 -0.5976 -0.1714
  207MOL   O12237614   6.632   7.743   2.747  0.6185 -0.2165  0.0220
  207MOL   O12337615   6.709   7.862   2.922 -0.0758 -0.7128 -0.6501
  207MOL   H12437616   6.463   7.932   2.710  0.3235 -1.5666  0.3991
  207MOL   H12537617   6.420   8.119   2.884 -0.6548 -0.5371  1.9544
  207MOL   H12637618   6.436   7.962   2.958 -1.8121  1.5203 -0.9746
  207MOL   H12737619   6.575   8.082   2.953  1.5000  2.3143 -2.3896
  207MOL   C12837620   6.795   7.761   2.981  0.3772 -0.2117  0.2641
  207MOL   C12937621   6.796   7.795   3.132 -0.6046  0.0928 -0.1468
  207MOL   C13037622   6.938   7.777   2.930  0.3327  0.1044  0.7008
  207MOL   O13137623   7.030   7.799   3.003  0.9067  0.1050  0.3972
  207MOL   O13237624   6.944   7.768   2.798 -0.3297 -0.3361  0.0277
  207MOL   H13337625   6.769   7.657   2.962  2.1868 -0.5466 -0.5624
  207MOL   H13437626   6.854   7.726   3.193 -2.6817  0.1357  1.9137
  207MOL   H13537627   6.833   7.895   3.151 -1.5503  0.2942  0.6421
  207MOL   H13637628   6.691   7.787   3.159 -1.1864 -0.8402 -2.4792
  207MOL   C13737629   7.070   7.769   2.729  0.6714 -0.7388  0.7041
  207MOL   C13837630   7.038   7.772   2.572  0.4567 -0.2329 -0.0092
  207MOL   C13937631   7.158   7.654   2.780 -0.5577 -0.3767 -0.2780
  207MOL   O14037632   7.115   7.558   2.851 -0.2961 -0.1408  0.3185
  207MOL   O14137633   7.289   7.667   2.755 -0.3026 -0.3355  0.1995
  207MOL   H14237634   7.131   7.854   2.758  0.7219 -0.6419  0.3100
  207MOL   H14337635   6.981   7.683   2.543 -0.6998  0.6593 -0.5270
  207MOL   H14437636   6.973   7.857   2.550 -1.7327 -1.5228  1.2843
  207MOL   H14537637   7.130   7.766   2.515 -0.6349  0.1300 -1.8592
  207MOL   C14637638   7.386   7.577   2.818  0.1216  0.2199 -0.2827
  207MOL   C14737639   7.527   7.633   2.832 -0.7390 -0.5040  0.4194
  207MOL   C14837640   7.391   7.450   2.736 -0.2124  0.0983 -0.1205
  207MOL   O14937641   7.408   7.344   2.798  0.2840 -0.2851 -0.6471
  207MOL   O15037642   7.379   7.456   2.602  0.0647 -0.2909 -0.0957
  207MOL   H15137643   7.361   7.550   2.921 -3.3320 -0.3168 -1.2019
  207MOL   H15237644   7.534   7.696   2.920  0.7898 -0.9389  0.6136
  207MOL   H15337645   7.607   7.562   2.849  1.2230  1.2034 -1.3084
  207MOL   H15437646   7.562   7.687   2.744  1.7541 -0.8403  1.1801
  207MOL   C15537647   7.372   7.341   2.520  0.7582  0.0523 -0.5043
  207MOL   C15637648   7.377   7.383   2.369 -0.4096  0.2772 -0.3623
  207MOL   C15737649   7.242   7.258   2.553  0.2228 -0.0172 -0.1507
  207MOL   O15837650   7.238   7.138   2.554 -0.6529 -0.0816  0.3583
  207MOL   O15937651   7.134   7.339   2.570  0.4231 -0.3117  0.6060
  207MOL   H16037652   7.454   7.271   2.534 -0.3488 -1.1725 -0.1391
  207MOL   H16137653   7.360   7.304   2.296 -1.4044  0.9455 -0.8651
  207MOL   H16237654   7.296   7.453   2.349 -1.1555 -0.0449  1.3991
  207MOL   H16337655   7.466   7.441   2.343 -1.1258  1.5924  0.0961
  207MOL   C16437656   7.004   7.278   2.582  0.3053 -0.5857  0.2376
  207MOL   C16537657   6.903   7.380   2.550 -1.0728  0.4553 -0.0811
  207MOL   C16637658   6.978   7.217   2.723 -0.6946  0.1633  0.8706
  207MOL   O16737659   7.058   7.222   2.817 -0.8538 -0.1959  0.1244
  207MOL   O16837660   6.861   7.156   2.732 -0.1131  0.1492  0.4081
  207MOL   H16937661   6.985   7.205   2.504  2.1701 -0.2572 -0.5465
  207MOL   H17037662   6.921   7.466   2.615 -0.6703 -0.9389  1.6813
  207MOL   H17137663   6.909   7.429   2.453  2.0054 -1.4473 -0.8978
  207MOL   H17237664   6.803   7.347   2.579 -0.2587 -2.1709 -0.1432
  207MOL   C17337665   6.829   7.093   2.852  0.5386  0.2196 -0.5272
  207MOL   C17437666   6.917   6.972   2.882 -0.1355 -0.4707 -0.6194
  207MOL   C17537667   6.682   7.052   2.851  0.3439  0.0361 -0.2125
  207MOL   O17637668   6.599   7.102   2.920  0.7320 -0.4374 -0.4644
  207MOL   O17737669   6.662   6.957   2.759 -0.6894  0.4047  0.1973
  207MOL   H17837670   6.850   7.163   2.933 -0.1851 -1.5692  1.2505
  207MOL   H17937671   6.859   6.883   2.905 -0.8694 -0.2724 -1.6623
  207MOL   H18037672   6.978   6.939   2.798 -1.3863 -0.5265 -1.5292
  207MOL   H18137673   6.977   6.983   2.972 -1.0833  1.5161 -0.2032
  207MOL   H18237674   6.569   6.939   2.754 -0.6133  0.0148  0.1377
  208MOL     C137675   3.250   7.985   7.806  0.1077 -0.0917 -0.0381
  208MOL     C237676   3.222   7.990   7.954  0.8185  0.5056 -0.4644
  208MOL     C337677   3.131   7.968   7.718 -0.0286 -0.4212  0.4537
  208MOL     O437678   3.061   7.860   7.716  0.0424  0.3296  0.1955
  208MOL     O537679   3.115   8.075   7.638 -0.1970  0.0082 -0.3506
  208MOL     H637680   3.295   8.077   7.768 -0.5694  0.3745  0.2699
  208MOL     H737681   3.121   8.029   7.965  1.2130  1.1332  1.0308
  208MOL     H837682   3.223   7.886   7.989 -0.2662  1.2027  1.7682
  208MOL     H937683   3.297   8.051   8.004  1.5820 -0.4160 -0.4836
  208MOL    H1037684   3.323   7.906   7.791 -2.4436 -2.6160  0.6255
  208MOL    C1137685   3.012   8.086   7.538 -0.1686  0.0170  0.0009
  208MOL    C1237686   2.887   8.147   7.595  0.7267  0.7452  0.1543
  208MOL    C1337687   2.994   7.964   7.453 -1.0162 -0.2315 -0.3647
  208MOL    O1437688   2.894   7.896   7.468 -0.0685  0.2148 -0.0177
  208MOL    O1537689   3.099   7.937   7.364 -0.2393  0.0343 -0.0763
  208MOL    H1637690   3.049   0.007   7.461 -0.6477 -0.6669 -0.8416
  208MOL    H1737691   2.789   8.140   7.546 -0.8934 -1.4533  3.5277
  208MOL    H1837692   2.874   8.107   7.695 -0.8015  0.1023 -0.2754
  208MOL    H1937693   2.891   0.107   7.612 -1.1669  0.8384  0.1306
  208MOL    C2037694   3.086   7.836   7.261  0.5622  0.1270 -0.0911
  208MOL    C2137695   3.213   7.835   7.177 -0.2373  0.2258  0.0012
  208MOL    C2237696   2.973   7.860   7.170 -0.3042 -0.2773 -0.1426
  208MOL    O2337697   2.892   7.769   7.148 -0.4490 -0.1877 -0.2230
  208MOL    O2437698   2.976   7.991   7.118  0.0755 -0.2513  0.0530
  208MOL    H2537699   3.058   7.746   7.315 -1.7887  0.3631 -0.8741
  208MOL    H2637700   3.238   7.933   7.135 -1.2278  0.8220  0.7996
  208MOL    H2737701   3.306   7.813   7.230 -0.1892  0.9084  0.2055
  208MOL    H2837702   3.213   7.761   7.097 -0.0455 -1.3174  1.3950
  208MOL    C2937703   2.864   8.052   7.056 -0.9144  0.4822  0.0218
  208MOL    C3037704   2.915   8.128   6.935 -0.0726  0.4153  0.0502
  208MOL    C3137705   2.794   0.001   7.155  0.5384 -0.0092  0.2482
  208MOL    O3237706   2.852   0.026   7.259 -0.4025 -0.7518  0.0216
  208MOL    O3337707   2.664   0.029   7.115 -0.2792  0.3959  0.0381
  208MOL    H3437708   2.785   7.978   7.044  0.8981 -1.6871  1.1137
  208MOL    H3537709   2.941   8.068   6.848  0.3431  0.3821  0.1963
  208MOL    H3637710   2.832   0.042   6.899 -1.0618  0.2935  2.0549
  208MOL    H3737711   2.996   0.047   6.963  0.3870 -0.2618  0.3287
  208MOL    C3837712   2.574   0.087   7.210 -0.3076  0.2060 -0.2757
  208MOL    C3937713   2.430   0.034   7.187  0.0757 -0.3565  0.6236
  208MOL    C4037714   2.585   0.238   7.210  0.8555  0.4988  0.3981
  208MOL    O4137715   2.608   0.310   7.110  0.3444 -0.3549 -0.1284
  208MOL    O4237716   2.556   0.292   7.331 -0.0438  0.4579  0.3922
  208MOL    H4337717   2.602   0.059   7.311 -1.8303  0.9291  0.3489
  208MOL    H4437718   2.430   8.073   7.178  0.4973 -0.5285  2.5998
  208MOL    H4537719   2.354   0.073   7.255  0.4649  1.5923 -0.0135
  208MOL    H4637720   2.397   0.055   7.085 -0.0110 -0.5077  0.6198
  208MOL    C4737721   2.556   0.433   7.351  0.8380  0.1795 -0.7221
  208MOL    C4837722   2.580   0.460   7.494 -0.1625  0.3762 -0.0647
  208MOL    C4937723   2.414   0.488   7.317  0.4872 -0.6098  0.1012
  208MOL    O5037724   2.317   0.421   7.337 -0.0368  0.4928 -0.9633
  208MOL    O5137725   2.412   0.604   7.248  0.3402 -0.0012 -0.1549
  208MOL    H5237726   2.636   0.482   7.296 -0.2388 -1.5079 -3.9304
  208MOL    H5337727   2.662   0.402   7.537 -0.9996 -1.3148 -0.7075
  208MOL    H5437728   2.598   0.567   7.497  0.4135  0.4425 -3.9489
  208MOL    H5537729   2.491   0.429   7.550 -1.3546  0.0776 -2.0678
  208MOL    C5637730   2.302   0.670   7.190  0.2254 -0.2085  0.5806
  208MOL    C5737731   2.223   0.765   7.285  0.3945  1.0826  0.7043
  208MOL    C5837732   2.210   0.574   7.107 -0.5506 -0.1526  0.7000
  208MOL    O5937733   2.091   0.578   7.127  0.2791 -0.2306 -0.1121
  208MOL    O6037734   2.276   0.488   7.022 -0.0962 -0.2003 -0.5918
  208MOL    H6137735   2.352   0.739   7.122 -2.6324  2.2624  0.8582
  208MOL    H6237736   2.185   0.705   7.368  0.3898  0.9256  0.5872
  208MOL    H6337737   2.282   0.846   7.328  0.8213  1.7215 -1.0499
  208MOL    H6437738   2.141   0.806   7.228 -0.3076 -1.9514 -0.5179
  208MOL    C6537739   2.201   0.400   6.946 -0.1523  0.0938  0.0486
  208MOL    C6637740   2.307   0.310   6.889 -0.2800 -0.0702 -0.4669
  208MOL    C6737741   2.118   0.467   6.835 -0.4332  0.7714  1.0349
  208MOL    O6837742   2.131   0.584   6.805  0.3326 -0.4989  0.4732
  208MOL    O6937743   2.033   0.386   6.776  0.3224  0.4140  1.0775
  208MOL    H7037744   2.129   0.343   7.005  0.9557  0.5905  1.9410
  208MOL    H7137745   2.266   0.219   6.845  0.2778 -0.0422 -1.0592
  208MOL    H7237746   2.364   0.365   6.814  1.0088 -0.0335  0.5277
  208MOL    H7337747   2.374   0.257   6.957  1.8844 -0.0405 -2.4982
  208MOL    C7437748   1.957   0.435   6.664  0.5344  0.5239  0.1808
  208MOL    C7537749   1.847   0.324   6.646 -0.6190 -0.6040 -0.5817
  208MOL    C7637750   2.045   0.459   6.540  0.0282  0.4724 -0.5730
  208MOL    O7737751   2.024   0.555   6.464 -0.2814  0.0221  0.4459
  208MOL    O7837752   2.144   0.365   6.515 -0.0032  0.0632  0.4049
  208MOL    H7937753   1.917   0.535   6.685 -0.2146  0.4889 -1.0652
  208MOL    H8037754   1.774   0.345   6.725  1.0869  2.0569  0.3372
  208MOL    H8137755   1.793   0.322   6.552  0.6459 -2.7666 -1.2957
  208MOL    H8237756   1.887   0.223   6.657 -1.6666 -0.9444  0.1675
  208MOL    C8337757   2.234   0.372   6.397  0.0628 -0.1543 -0.8980
  208MOL    C8437758   2.175   0.297   6.282  0.6827  0.4571 -0.0544
  208MOL    C8537759   2.371   0.322   6.436 -0.3061  0.0259  0.4810
  208MOL    O8637760   2.468   0.389   6.404 -0.1296  0.3530  0.4710
  208MOL    O8737761   2.372   0.198   6.494 -0.1060  0.2593  0.1096
  208MOL    H8837762   2.246   0.476   6.367  0.9254  0.0270  0.0566
  208MOL    H8937763   2.256   0.265   6.217  1.7508  1.3270  0.8467
  208MOL    H9037764   2.096   0.231   6.318  0.2381  1.3567  0.6216
  208MOL    H9137765   2.122   0.378   6.232  0.2879  0.3371  0.1608
  208MOL    C9237766   2.492   0.142   6.533  0.4067  0.1526  0.6502
  208MOL    C9337767   2.562   0.062   6.423  0.0324  0.0233  0.0022
  208MOL    C9437768   2.477   0.064   6.660  0.1990 -0.0285 -0.1046
  208MOL    O9537769   2.532   0.094   6.766  0.1455  0.2111  0.3752
  208MOL    O9637770   2.398   8.106   6.643 -0.0704 -0.2169 -0.3479
  208MOL    H9737771   2.561   0.225   6.551  0.1112  0.3582  0.8483
  208MOL    H9837772   2.500   8.121   6.408 -1.4557  1.1463 -0.5941
  208MOL    H9937773   2.555   0.116   6.329  0.1756 -1.5343 -0.9042
  208MOL   H10037774   2.664   0.027   6.439  0.5960  0.7820 -1.8348
  208MOL   C10137775   2.387   8.007   6.747 -0.3518 -0.9042  0.0983
  208MOL   C10237776   2.380   7.866   6.683  0.3153 -0.2610  0.0027
  208MOL   C10337777   2.278   8.030   6.849 -0.2244  0.2871  0.5951
  208MOL   O10437778   2.200   8.130   6.843  0.0512 -0.1169 -0.5248
  208MOL   O10537779   2.286   7.942   6.953  0.4245  0.1899  0.2087
  208MOL   H10637780   2.471   8.019   6.815  0.2405 -1.7597 -0.4767
  208MOL   H10737781   2.481   7.836   6.655  0.3220 -1.9499  1.6558
  208MOL   H10837782   2.352   7.789   6.756  0.0874 -0.7764 -0.6217
  208MOL   H10937783   2.308   7.858   6.602  0.0307 -0.3906  0.2692
  208MOL   C11037784   2.177   7.934   7.052  0.8010 -0.6552  0.0623
  208MOL   C11137785   2.237   7.850   7.173 -0.4702 -0.9251 -0.4810
  208MOL   C11237786   2.055   7.860   6.991  0.0857 -0.1357 -0.6837
  208MOL   O11337787   2.070   7.779   6.903  0.2260 -0.2287  0.1618
  208MOL   O11437788   1.933   7.877   7.056 -0.2615  0.3608 -0.8668
  208MOL   H11537789   2.140   8.032   7.083 -0.0275 -1.2229  0.9090
  208MOL   H11637790   2.326   7.903   7.208 -0.9999  0.6309 -1.4168
  208MOL   H11737791   2.170   7.857   7.259 -1.0501  1.1018 -1.0626
  208MOL   H11837792   2.252   7.748   7.139 -0.1328 -0.9982 -0.1157
  208MOL   C11937793   1.820   7.790   7.030  0.1730 -0.2886  0.6586
  208MOL   C12037794   1.696   7.875   7.048  0.1535  0.0215 -0.6809
  208MOL   C12137795   1.826   7.668   7.120 -0.0847  0.4597  0.2116
  208MOL   O12237796   1.933   7.627   7.166  0.7397  0.5291 -0.1162
  208MOL   O12337797   1.712   7.606   7.128  0.2448  0.2451  0.2188
  208MOL   H12437798   1.825   7.747   6.930 -1.7149  1.8011 -0.3653
  208MOL   H12537799   1.693   7.936   7.138 -0.4296 -3.4404  1.7333
  208MOL   H12637800   1.694   7.939   6.959 -0.0833  1.3814  0.2818
  208MOL   H12737801   1.605   7.814   7.046  0.2641 -0.1527 -0.4143
  208MOL   C12837802   1.667   7.549   7.249  0.1743 -0.6970  0.3929
  208MOL   C12937803   1.584   7.427   7.220 -0.0519  1.3085 -0.7061
  208MOL   C13037804   1.587   7.654   7.325  0.9445  0.1105 -0.4823
  208MOL   O13137805   1.466   7.639   7.345 -0.0871 -0.0636  0.0575
  208MOL   O13237806   1.664   7.747   7.379 -0.3535  0.5241 -0.0180
  208MOL   H13337807   1.740   7.509   7.319  1.5890  2.2775  0.6875
  208MOL   H13437808   1.518   7.429   7.133  0.4238 -1.4560 -1.1816
  208MOL   H13537809   1.651   7.343   7.201 -1.5148  0.5831 -2.8498
  208MOL   H13637810   1.524   7.395   7.305  2.3826 -2.1145 -0.1407
  208MOL   C13737811   1.615   7.860   7.448  0.4080 -0.0746  0.7751
  208MOL   C13837812   1.714   7.972   7.434  0.4355 -0.4019 -0.3627
  208MOL   C13937813   1.595   7.824   7.593 -0.1937  0.2442 -0.5271
  208MOL   O14037814   1.483   7.812   7.647 -0.4709 -0.1089  0.1291
  208MOL   O14137815   1.720   7.811   7.656 -0.0115 -0.5919 -0.0403
  208MOL   H14237816   1.518   7.895   7.411  1.3128 -0.5590 -2.2592
  208MOL   H14337817   1.812   7.953   7.479  0.0618 -0.3333  0.4786
  208MOL   H14437818   1.743   8.009   7.335 -0.1714 -2.5561 -1.3759
  208MOL   H14537819   1.679   8.054   7.496  1.9971 -0.0693  0.1009
  208MOL   C14637820   1.726   7.767   7.790 -0.0392 -0.5885  0.4244
  208MOL   C14737821   1.869   7.780   7.847  0.0649 -0.5318 -0.3087
  208MOL   C14837822   1.702   7.608   7.796  0.1371 -0.0217  0.4419
  208MOL   O14937823   1.641   7.555   7.892  0.2176  0.4041  0.2910
  208MOL   O15037824   1.761   7.538   7.688  0.3677 -0.7473  0.5000
  208MOL   H15137825   1.648   7.809   7.854  0.0184 -2.5690  1.8563
  208MOL   H15237826   1.948   7.723   7.798 -0.6545 -0.3562 -1.6986
  208MOL   H15337827   1.893   7.886   7.835 -2.7423 -0.0488 -2.0168
  208MOL   H15437828   1.878   7.751   7.952 -0.9553 -1.1533 -0.3812
  208MOL   C15537829   1.758   7.391   7.691  0.1486 -0.6198 -0.1432
  208MOL   C15637830   1.870   7.337   7.598  0.7265 -0.6603 -0.1826
  208MOL   C15737831   1.622   7.339   7.643 -0.2553  0.6767  0.8020
  208MOL   O15837832   1.618   7.253   7.548 -0.0095 -0.0526  0.0460
  208MOL   O15937833   1.523   7.385   7.710 -0.4126 -0.7681  0.5426
  208MOL   H16037834   1.766   7.354   7.793  0.5315  2.8803  1.1859
  208MOL   H16137835   1.863   7.230   7.615  0.1670 -0.3812  1.3987
  208MOL   H16237836   1.841   7.352   7.494 -1.8298 -0.9452  0.4572
  208MOL   H16337837   1.970   7.366   7.631  1.0023 -1.4691 -0.3016
  208MOL   C16437838   1.390   7.350   7.674  1.3424  0.3325 -0.1756
  208MOL   C16537839   1.341   7.442   7.560  0.5986  0.0202 -0.0660
  208MOL   C16637840   1.308   7.390   7.796 -0.4517  0.3754  0.3225
  208MOL   O16737841   1.236   7.307   7.857 -0.0792 -0.6648  0.0928
  208MOL   O16837842   1.322   7.521   7.829 -0.3593 -0.0998 -0.3482
  208MOL   H16937843   1.369   7.246   7.652  1.5685  0.3971 -0.7128
  208MOL   H17037844   1.239   7.422   7.527  0.3367  1.5419 -0.1850
  208MOL   H17137845   1.355   7.548   7.581 -0.8674  0.1876  0.1289
  208MOL   H17237846   1.412   7.407   7.485  3.5671  1.3879  1.9683
  208MOL   C17337847   1.232   7.585   7.920 -0.4274 -0.1248  0.7981
  208MOL   C17437848   1.091   7.598   7.854 -0.0163 -0.0100 -0.4930
  208MOL   C17537849   1.290   7.729   7.937 -0.9336  0.5038  0.0104
  208MOL   O17637850   1.230   7.834   7.931 -0.1866 -0.5807 -0.3367
  208MOL   O17737851   1.418   7.720   7.975 -0.0395  0.1968 -0.1471
  208MOL   H17837852   1.234   7.531   8.015 -1.6068  0.5001  1.1962
  208MOL   H17937853   1.045   7.499   7.845  2.9187 -1.4119 -0.5754
  208MOL   H18037854   1.026   7.651   7.923  0.6251 -1.5507  1.3446
  208MOL   H18137855   1.089   7.651   7.759 -1.0781  0.3365 -0.2841
  208MOL   H18237856   1.448   7.633   7.955 -0.4059  0.2664 -1.0438
  209MOL     C137857   7.263   3.994   5.018  0.6082 -0.5509 -0.6639
  209MOL     C237858   7.315   3.950   4.880  0.9779  0.2058 -1.0113
  209MOL     C337859   7.179   4.119   5.017  0.1995  0.2731 -0.4035
  209MOL     O437860   7.210   4.213   4.946  0.2166  0.3650 -0.0401
  209MOL     O537861   7.069   4.113   5.089  0.0995 -0.2761 -0.2752
  209MOL     H637862   7.194   3.920   5.058  1.3781 -2.2765 -2.4365
  209MOL     H737863   7.378   3.861   4.881  0.2190 -0.3294  0.7905
  209MOL     H837864   7.230   3.925   4.816 -0.6104  0.0551  1.0945
  209MOL     H937865   7.381   4.022   4.832 -0.1047  2.3646  0.6421
  209MOL    H1037866   7.347   3.984   5.086  0.5986 -1.0836 -0.7311
  209MOL    C1137867   6.968   4.207   5.092  0.5229  0.7394  0.1899
  209MOL    C1237868   6.858   4.166   5.201  0.9160 -0.2824  0.4246
  209MOL    C1337869   6.893   4.218   4.959  0.4798 -0.2756 -0.4448
  209MOL    O1437870   6.843   4.322   4.926 -0.0659 -0.1490 -0.2203
  209MOL    O1537871   6.873   4.100   4.903  0.0915 -0.1295 -0.4599
  209MOL    H1637872   7.006   4.305   5.119 -0.3102  1.0727  0.1750
  209MOL    H1737873   6.781   4.093   5.177 -2.0453  2.4038  1.3567
  209MOL    H1837874   6.893   4.145   5.302 -4.0457  2.1382  2.8251
  209MOL    H1937875   6.802   4.259   5.212  0.3023 -0.4730 -0.9867
  209MOL    C2037876   6.798   4.076   4.781 -0.0529 -0.5669 -0.2690
  209MOL    C2137877   6.733   3.941   4.793  0.6653  0.3829 -0.2360
  209MOL    C2237878   6.898   4.091   4.661 -0.3890 -0.6913  0.3664
  209MOL    O2337879   7.015   4.053   4.669  0.1864 -0.4222 -0.4192
  209MOL    O2437880   6.849   4.152   4.551  0.0408  0.1290 -0.0168
  209MOL    H2537881   6.730   4.161   4.772 -0.0246 -0.4147  0.9628
  209MOL    H2637882   6.649   3.935   4.863 -1.8260 -2.1838 -3.2877
  209MOL    H2737883   6.684   3.913   4.699 -2.2012 -2.6314  2.0137
  209MOL    H2837884   6.803   3.861   4.818  0.1946 -0.4264 -1.4462
  209MOL    C2937885   6.920   4.188   4.432 -0.4005  0.0124  0.4591
  209MOL    C3037886   6.864   4.317   4.383 -0.4274 -0.0275  0.3566
  209MOL    C3137887   6.907   4.073   4.333 -0.0194 -0.0750 -0.3019
  209MOL    O3237888   7.010   4.029   4.286 -0.1891 -0.3426 -0.0025
  209MOL    O3337889   6.791   4.015   4.315  0.5376  0.2519 -0.0016
  209MOL    H3437890   7.025   4.198   4.459 -0.6521  0.0216  1.4933
  209MOL    H3537891   6.760   4.295   4.358  0.0622 -1.1758 -0.7626
  209MOL    H3637892   6.857   4.391   4.463 -1.5682 -1.7338  1.8943
  209MOL    H3737893   6.904   4.361   4.292 -0.0943 -0.6567  0.1934
  209MOL    C3837894   6.784   3.900   4.234  0.9040 -0.1592 -0.2932
  209MOL    C3937895   6.648   3.899   4.156 -0.1065 -0.0066  0.0877
  209MOL    C4037896   6.803   3.777   4.330  0.3079  0.1001  0.1074
  209MOL    O4137897   6.752   3.782   4.444  0.3525 -0.3285 -0.3880
  209MOL    O4237898   6.870   3.678   4.276 -0.4674 -0.4868 -0.5038
  209MOL    H4337899   6.858   3.884   4.155 -0.3407 -0.3619 -1.4405
  209MOL    H4437900   6.561   3.871   4.216 -0.6673  1.6141  0.0848
  209MOL    H4537901   6.627   4.001   4.123  0.1516  0.7554  2.1724
  209MOL    H4637902   6.648   3.846   4.061 -1.9529 -1.5801  0.9225
  209MOL    C4737903   6.873   3.558   4.348  0.3515 -0.1227 -0.5744
  209MOL    C4837904   6.952   3.566   4.479 -0.4060 -0.2480 -0.3008
  209MOL    C4937905   6.925   3.445   4.257 -0.7774  0.0185 -0.0635
  209MOL    O5037906   6.852   3.359   4.219  0.7176  0.6212  0.4094
  209MOL    O5137907   7.061   3.454   4.232  0.0870 -0.3254  0.8963
  209MOL    H5237908   6.770   3.535   4.376  0.5361 -0.7477 -0.3925
  209MOL    H5337909   6.916   3.639   4.551 -1.0546 -2.0587  1.2527
  209MOL    H5437910   6.939   3.472   4.533 -3.6982  1.3646  1.9052
  209MOL    H5537911   7.059   3.579   4.462  0.1849  0.0540  3.1922
  209MOL    C5637912   7.129   3.337   4.173 -0.0107 -0.2966  0.2851
  209MOL    C5737913   7.161   3.237   4.286  0.0016 -0.0867 -0.0043
  209MOL    C5837914   7.249   3.382   4.090  0.2407  0.0757  0.4121
  209MOL    O5937915   7.255   3.373   3.965 -0.5992  0.2603  0.2916
  209MOL    O6037916   7.339   3.439   4.173 -0.3994  0.3630 -0.2479
  209MOL    H6137917   7.072   3.280   4.100 -0.3951  1.7818 -1.1045
  209MOL    H6237918   7.079   3.210   4.353  2.0407 -1.5788  1.9616
  209MOL    H6337919   7.188   3.143   4.237 -3.2452  0.0253 -2.1559
  209MOL    H6437920   7.257   3.254   4.335 -0.7972  1.2833  1.1202
  209MOL    C6537921   7.452   3.513   4.125 -0.3738  0.1992 -0.0886
  209MOL    C6637922   7.579   3.424   4.144  0.4199 -0.3380 -0.6350
  209MOL    C6737923   7.463   3.647   4.211  0.1443  0.1598 -0.0593
  209MOL    O6837924   7.566   3.713   4.217  0.0571  0.7374 -0.2939
  209MOL    O6937925   7.343   3.682   4.263  0.0220 -0.5579 -0.2728
  209MOL    H7037926   7.428   3.545   4.024 -0.5081 -1.8468 -0.7251
  209MOL    H7137927   7.578   3.329   4.091 -0.9813 -0.9137  0.3643
  209MOL    H7237928   7.678   3.469   4.142  1.4083 -2.3567  0.8837
  209MOL    H7337929   7.577   3.384   4.246  0.4198  1.7256  0.2019
  209MOL    C7437930   7.331   3.805   4.330  0.1118 -0.4634 -0.0739
  209MOL    C7537931   7.203   3.798   4.406 -0.2299  0.4803 -0.0607
  209MOL    C7637932   7.344   3.926   4.237  0.4673  0.0057  0.6496
  209MOL    O7737933   7.332   3.903   4.119 -0.3216 -0.0011  0.2722
  209MOL    O7837934   7.377   4.046   4.301  0.1218  0.7253  0.8313
  209MOL    H7937935   7.420   3.824   4.390  1.6165 -1.1517 -2.0073
  209MOL    H8037936   7.166   3.894   4.441 -1.3120  1.4213 -3.5281
  209MOL    H8137937   7.124   3.749   4.349 -1.2843  2.4741 -0.3397
  209MOL    H8237938   7.220   3.728   4.488 -0.2569 -1.4884 -1.7024
  209MOL    C8337939   7.405   4.165   4.228  0.5524 -0.7494 -0.3010
  209MOL    C8437940   7.495   4.262   4.290  0.1619  0.1236 -0.1118
  209MOL    C8537941   7.264   4.234   4.200  0.2195  0.0898 -0.1319
  209MOL    O8637942   7.201   4.296   4.288  0.3065  0.0465 -0.8137
  209MOL    O8737943   7.219   4.202   4.070  0.2197  0.0739  0.8040
  209MOL    H8837944   7.450   4.144   4.131 -1.5905  1.9682 -1.9650
  209MOL    H8937945   7.452   4.302   4.382  0.9726  3.8956 -1.2825
  209MOL    H9037946   7.587   4.214   4.321 -0.7265 -1.7584 -0.3009
  209MOL    H9137947   7.529   4.348   4.232 -0.5704 -0.2412 -1.1021
  209MOL    C9237948   7.094   4.262   4.039 -0.0921  0.4419  0.7079
  209MOL    C9337949   7.035   4.189   3.916  0.4624  0.1982  0.3448
  209MOL    C9437950   7.108   4.410   4.016  0.2131  0.7801  0.3253
  209MOL    O9537951   7.012   4.485   4.028  0.0994  0.4633  0.8185
  209MOL    O9637952   7.230   4.448   3.978 -0.3519  0.2690  0.4003
  209MOL    H9737953   7.024   4.246   4.121 -1.6825  1.9989 -0.3067
  209MOL    H9837954   6.927   4.205   3.908  0.5850  0.6142 -0.6807
  209MOL    H9937955   7.075   4.235   3.825 -0.7439  0.6803  0.0394
  209MOL   H10037956   7.044   4.081   3.914  2.5285  0.3595  0.0920
  209MOL   C10137957   7.263   4.588   3.983  0.6074  1.2912 -0.6470
  209MOL   C10237958   7.404   4.615   3.940 -0.1897 -0.4286  1.0513
  209MOL   C10337959   7.244   4.653   4.124  0.0370 -0.0006 -0.2024
  209MOL   O10437960   7.202   4.769   4.130 -0.3398 -0.6512 -0.6340
  209MOL   O10537961   7.272   4.573   4.230 -0.2004 -0.3963  0.1505
  209MOL   H10637962   7.192   4.637   3.916 -1.9954  0.7043  1.5949
  209MOL   H10737963   7.429   4.720   3.928  0.1773 -0.5438  0.8368
  209MOL   H10837964   7.480   4.570   4.003 -0.2269 -2.3192 -0.2063
  209MOL   H10937965   7.429   4.577   3.841 -2.7622 -0.8940  0.5330
  209MOL   C11037966   7.260   4.630   4.360  0.4065 -0.6504 -0.3944
  209MOL   C11137967   7.336   4.554   4.455 -0.3476 -0.3488  0.2126
  209MOL   C11237968   7.117   4.653   4.403  0.0442  0.8487 -0.3706
  209MOL   O11337969   7.034   4.567   4.407  0.1710  0.1121 -0.4326
  209MOL   O11437970   7.102   4.779   4.439 -0.1281  0.5923 -0.3942
  209MOL   H11537971   7.313   4.725   4.356  0.2397 -0.5088  0.6572
  209MOL   H11637972   7.441   4.542   4.432 -0.8339 -1.0507 -1.7118
  209MOL   H11737973   7.334   4.596   4.556  1.6195 -0.5290  0.3299
  209MOL   H11837974   7.307   4.449   4.451  0.0031 -0.4230 -0.3822
  209MOL   C11937975   6.971   4.828   4.465 -0.3135 -0.0545  0.7608
  209MOL   C12037976   6.876   4.808   4.346  0.6035 -0.2722 -0.2816
  209MOL   C12137977   6.969   4.975   4.515 -0.3022  0.0910 -0.0275
  209MOL   O12237978   7.042   5.057   4.452 -0.7495  1.0810 -0.2675
  209MOL   O12337979   6.891   5.000   4.620  0.2381  0.0108 -0.2831
  209MOL   H12437980   6.928   4.770   4.547  0.8318 -0.6878  0.9309
  209MOL   H12537981   6.919   4.832   4.249  1.1548 -0.2088 -0.0215
  209MOL   H12637982   6.861   4.702   4.329  1.6223 -0.6188  0.9065
  209MOL   H12737983   6.780   4.861   4.352  1.6687  1.9129 -1.9741
  209MOL   C12837984   6.865   5.133   4.663  0.2349 -0.3740 -0.6934
  209MOL   C12937985   6.810   5.115   4.810 -0.0105 -0.2442 -0.0033
  209MOL   C13037986   6.759   5.197   4.566  0.3514  0.5685 -0.1985
  209MOL   O13137987   6.678   5.134   4.495 -0.1549  0.1276  0.3779
  209MOL   O13237988   6.775   5.334   4.568 -0.6978  0.3403  0.6455
  209MOL   H13337989   6.959   5.188   4.663 -0.7501  1.3351 -0.5787
  209MOL   H13437990   6.716   5.059   4.818  0.4802 -1.6694 -3.2939
  209MOL   H13537991   6.890   5.068   4.867  0.7429 -1.0721 -1.7231
  209MOL   H13637992   6.804   5.210   4.864  1.0508 -1.0173  1.5168
  209MOL   C13737993   6.699   5.406   4.471  0.2368 -0.4037 -0.0437
  209MOL   C13837994   6.750   5.551   4.472  0.4702  0.3304  0.3634
  209MOL   C13937995   6.551   5.405   4.512  0.3105 -0.2004  0.4649
  209MOL   O14037996   6.518   5.382   4.627  0.6771  0.2592  0.2692
  209MOL   O14137997   6.465   5.433   4.411  0.0794  0.2264  0.4653
  209MOL   H14237998   6.709   5.363   4.371 -0.2270  0.0898 -0.3051
  209MOL   H14337999   6.715   5.609   4.386 -0.4963  0.9504  1.1615
  209MOL   H14438000   6.716   5.600   4.563  0.0326  3.0954 -1.2303
  209MOL   H14538001   6.859   5.558   4.466  0.6066 -1.6756  0.3851
  209MOL   C14638002   6.323   5.463   4.435 -0.4701 -1.2530  0.5035
  209MOL   C14738003   6.250   5.474   4.299  0.3030 -0.0507  0.0685
  209MOL   C14838004   6.314   5.595   4.515 -0.0675  0.4673  0.2020
  209MOL   O14938005   6.391   5.688   4.484  0.0035  0.1492  0.3650
  209MOL   O15038006   6.224   5.596   4.607 -0.0284 -0.2549  0.4808
  209MOL   H15138007   6.278   5.375   4.479 -1.3855 -0.2233  1.6648
  209MOL   H15238008   6.145   5.500   4.310  0.7972  2.2938 -0.4371
  209MOL   H15338009   6.306   5.549   4.243  0.3442 -0.5963 -0.6345
  209MOL   H15438010   6.256   5.388   4.231  1.0116  0.8693 -1.0481
  209MOL   C15538011   6.192   5.712   4.682 -0.8696  0.5658 -0.4992
  209MOL   C15638012   6.264   5.724   4.817 -0.0838  0.0248  0.1169
  209MOL   C15738013   6.040   5.722   4.702  0.4923 -0.3340 -0.0733
  209MOL   O15838014   5.970   5.813   4.656 -0.7955 -0.1152  0.1090
  209MOL   O15938015   5.989   5.627   4.789 -0.3487 -0.3220 -0.2678
  209MOL   H16038016   6.219   5.800   4.623  2.0311 -0.9286 -1.4860
  209MOL   H16138017   6.368   5.734   4.785 -0.6168  0.9450 -1.3724
  209MOL   H16238018   6.245   5.818   4.867 -1.2326  0.0926 -0.4220
  209MOL   H16338019   6.248   5.635   4.878  0.4609 -1.1497 -1.3972
  209MOL   C16438020   5.856   5.629   4.836  0.1225 -0.0305  0.4784
  209MOL   C16538021   5.864   5.576   4.978 -0.6073  0.4281  0.1708
  209MOL   C16638022   5.762   5.544   4.751 -0.2334  0.3842 -0.6209
  209MOL   O16738023   5.799   5.496   4.644  0.0661  0.2566  0.1552
  209MOL   O16838024   5.641   5.521   4.812 -0.7446  0.4744 -0.0528
  209MOL   H16938025   5.820   5.732   4.839 -0.0533 -0.0010 -1.8530
  209MOL   H17038026   5.914   5.653   5.037 -1.0037  0.0079  1.0458
  209MOL   H17138027   5.765   5.559   5.019 -0.1589 -1.1977  0.6024
  209MOL   H17238028   5.911   5.480   4.996  0.8146  0.5702 -2.4533
  209MOL   C17338029   5.541   5.445   4.744  0.6293  0.2337 -0.5532
  209MOL   C17438030   5.421   5.541   4.730 -0.2173 -0.3941  0.2474
  209MOL   C17538031   5.507   5.322   4.833 -0.4091 -0.2246 -0.6565
  209MOL   O17638032   5.393   5.297   4.872 -0.2901 -0.0001 -0.0977
  209MOL   O17738033   5.616   5.243   4.859 -0.1167  0.0035 -0.0299
  209MOL   H17838034   5.573   5.412   4.645 -0.4227  1.6785 -1.4034
  209MOL   H17938035   5.330   5.497   4.691 -1.2750  1.5028  0.5107
  209MOL   H18038036   5.388   5.554   4.833 -0.7722  0.2856 -0.0168
  209MOL   H18138037   5.437   5.638   4.684  0.3777 -1.0154 -0.8836
  209MOL   H18238038   5.586   5.171   4.912 -2.8349  1.5954  0.7317
  210MOL     C138039   4.173   6.889   7.931 -0.2645 -0.2612 -0.5043
  210MOL     C238040   4.217   6.752   7.862 -0.5903 -0.7755 -0.7536
  210MOL     C338041   4.018   6.890   7.953  0.0903  0.3287  1.0056
  210MOL     O438042   3.940   6.798   7.949  0.2089 -0.1637 -0.5444
  210MOL     O538043   3.979   7.021   7.963 -0.1908 -0.1430  0.1932
  210MOL     H638044   4.217   6.897   8.030 -0.5725 -0.2938 -0.3626
  210MOL     H738045   4.325   6.738   7.858 -0.3386  0.7585  0.3146
  210MOL     H838046   4.171   6.668   7.914  0.5391 -0.3425  0.9526
  210MOL     H938047   4.174   6.758   7.762 -0.3978 -1.3901 -0.8744
  210MOL    H1038048   4.203   6.970   7.864  0.3734 -0.9763 -1.0953
  210MOL    C1138049   3.849   7.068   7.983 -0.5914  0.5371 -0.1744
  210MOL    C1238050   3.835   7.176   7.876 -0.2722 -0.4151  0.3320
  210MOL    C1338051   3.819   7.106   8.129  0.3960 -0.6321  0.9169
  210MOL    O1438052   3.894   7.071   0.071  0.0512 -0.5169  0.6017
  210MOL    O1538053   3.705   7.173   8.139  0.6913 -0.3469 -0.3453
  210MOL    H1638054   3.772   7.002   7.943 -0.1037  0.0634 -0.3362
  210MOL    H1738055   3.763   7.254   7.902 -0.5001 -0.4048 -0.3164
  210MOL    H1838056   3.922   7.234   7.846  0.0829 -0.0715  1.9374
  210MOL    H1938057   3.803   7.125   7.785  0.0291 -0.5801  0.3161
  210MOL    C2038058   3.686   7.258   0.108  0.5584  0.0249 -0.1038
  210MOL    C2138059   3.555   7.333   0.091 -0.0715 -0.9876 -0.1676
  210MOL    C2238060   3.792   7.357   0.128  0.6205  0.2910  0.4399
  210MOL    O2338061   3.845   7.367   0.239  0.7679  0.0528 -0.1470
  210MOL    O2438062   3.826   7.422   0.007  0.3794  0.2501 -0.5138
  210MOL    H2538063   3.680   7.187   0.191 -0.9286 -0.7032 -0.8034
  210MOL    H2638064   3.558   7.406   0.010 -2.4178 -1.3480 -0.6096
  210MOL    H2738065   3.476   7.259   0.102  1.4953 -2.6650  0.0239
  210MOL    H2838066   3.539   7.396   0.178  0.8107 -1.2692  0.2110
  210MOL    C2938067   3.955   7.482   8.136  0.0945  0.2670 -0.3423
  210MOL    C3038068   3.915   7.593   8.034 -0.1561 -0.2198  0.1594
  210MOL    C3138069   4.060   7.383   8.082 -0.1934  0.2259 -0.1833
  210MOL    O3238070   4.085   7.360   7.961 -0.2108 -0.0941  0.1665
  210MOL    O3338071   4.114   7.317   0.041 -0.2607 -0.1169 -0.1128
  210MOL    H3438072   3.983   7.528   0.083 -1.6741 -2.4165  1.5785
  210MOL    H3538073   3.838   7.655   8.079  1.3191  2.0452 -0.3600
  210MOL    H3638074   4.000   7.661   8.027  0.3820 -1.0698 -1.9900
  210MOL    H3738075   3.879   7.555   7.938 -1.9376  2.2381 -0.1885
  210MOL    C3838076   4.227   7.231   0.017 -0.7467 -0.2588  0.0752
  210MOL    C3938077   4.246   7.137   0.135  0.3620 -0.3818  0.1808
  210MOL    C4038078   4.359   7.314   8.141  0.5979 -0.2025 -0.4440
  210MOL    O4138079   4.421   7.297   8.035 -0.2140 -0.0232 -0.2508
  210MOL    O4238080   4.379   7.398   0.091  0.2672 -0.1819 -0.2553
  210MOL    H4338081   4.206   7.169   8.078 -1.4400  0.3312 -0.1799
  210MOL    H4438082   4.152   7.085   0.155 -0.3936  0.5634 -0.8284
  210MOL    H4538083   4.311   7.053   0.111 -0.7445 -0.7757 -1.5337
  210MOL    H4638084   4.276   7.188   0.227  1.9928 -2.7653  1.0191
  210MOL    C4738085   4.452   7.513   0.079 -0.2429 -0.4037  0.0341
  210MOL    C4838086   4.485   7.571   0.221 -0.2055 -0.2881  0.4412
  210MOL    C4938087   4.380   7.622   8.138 -0.0514  0.0619  0.5016
  210MOL    O5038088   4.297   7.601   8.052  0.3992 -0.1450 -0.8253
  210MOL    O5138089   4.409   7.744   0.032 -0.2926  0.3243  0.8325
  210MOL    H5238090   4.543   7.492   0.023  1.1634 -1.7807  2.7469
  210MOL    H5338091   4.509   7.482   0.280  0.9550  0.9078  1.8234
  210MOL    H5438092   4.576   7.631   0.217  0.5518 -1.5344 -1.2413
  210MOL    H5538093   4.397   7.618   0.265  2.3566  2.1130  3.2871
  210MOL    C5638094   4.375   7.861   8.111  0.1853 -0.0990 -0.1822
  210MOL    C5738095   4.456   7.980   0.007  0.1844 -0.5332 -0.0744
  210MOL    C5838096   4.229   7.880   8.120  0.6874  0.4853 -0.2448
  210MOL    O5938097   4.159   7.861   0.072  0.2079  0.3710  0.1821
  210MOL    O6038098   4.190   7.929   8.000 -0.0675 -0.3423 -0.5813
  210MOL    H6138099   4.391   7.847   8.005  1.2355 -2.1435  0.2242
  210MOL    H6238100   4.559   7.953   8.128  0.3987 -0.2325  0.4356
  210MOL    H6338101   4.424   8.065   8.095 -0.3549  0.1033  1.1124
  210MOL    H6438102   4.448   8.000   0.114 -0.2069  0.5612 -0.3004
  210MOL    C6538103   4.044   7.942   7.971  0.0385  0.3431  0.3456
  210MOL    C6638104   4.026   7.859   7.844 -0.2506  0.7942 -0.0624
  210MOL    C6738105   4.005   8.084   7.948 -0.1053 -0.2633 -0.2124
  210MOL    O6838106   4.077   0.034   7.971 -0.4480  0.5805  0.4871
  210MOL    O6938107   3.879   8.080   7.904 -0.2010 -0.0862  0.0971
  210MOL    H7038108   3.981   7.895   8.047 -0.6983 -1.7311 -1.4770
  210MOL    H7138109   4.075   7.761   7.842  0.4231  1.1246 -3.5668
  210MOL    H7238110   3.921   7.841   7.823 -0.1364  0.3587 -0.2730
  210MOL    H7338111   4.061   7.916   7.758 -0.0247  0.9493  0.1337
  210MOL    C7438112   3.820   0.056   7.857 -0.0567 -0.4102 -0.3438
  210MOL    C7538113   3.663   0.046   7.855 -0.4204 -0.6962 -0.4178
  210MOL    C7638114   3.882   0.092   7.717  0.7013  0.9282  0.0102
  210MOL    O7738115   3.870   0.210   7.679  0.3850 -0.3618 -0.2974
  210MOL    O7838116   3.922   8.132   7.646 -0.1156 -0.2235  0.1369
  210MOL    H7938117   3.852   0.139   7.920 -1.7094  1.1965 -1.5559
  210MOL    H8038118   3.631   0.137   7.806 -0.2168 -0.4214 -0.0481
  210MOL    H8138119   3.638   8.104   7.798  0.5057 -0.9050 -0.5100
  210MOL    H8238120   3.624   0.044   7.957  2.4859 -1.0873  0.7440
  210MOL    C8338121   3.998   8.147   7.527 -0.3214  0.1107 -0.7254
  210MOL    C8438122   3.995   8.002   7.461 -0.6243 -0.1687 -0.2738
  210MOL    C8538123   4.140   0.032   7.564 -0.6027  0.0228  0.3827
  210MOL    O8638124   4.195   0.136   7.534 -0.4709 -0.0653  0.9145
  210MOL    O8738125   4.205   8.077   7.627  0.3310 -0.5234  0.3269
  210MOL    H8838126   3.956   0.069   7.454 -2.0421 -0.1869 -0.0595
  210MOL    H8938127   4.083   7.994   7.397  0.5419 -1.9244  1.4817
  210MOL    H9038128   4.022   7.924   7.532  0.0961  2.4707  2.4579
  210MOL    H9138129   3.910   7.986   7.395 -0.3669  0.0323 -0.6512
  210MOL    C9238130   4.343   8.088   7.666  0.1839  0.5069  0.0337
  210MOL    C9338131   4.371   0.038   7.779 -1.1675  1.0384 -0.5634
  210MOL    C9438132   4.437   8.097   7.549 -0.2071 -0.3515 -0.1475
  210MOL    O9538133   4.529   0.034   7.534 -0.2026  0.0334 -0.6110
  210MOL    O9638134   4.414   7.998   7.457 -0.5512 -0.5092 -0.3555
  210MOL    H9738135   4.345   7.985   7.701  1.0185  0.9531  1.3089
  210MOL    H9838136   4.375   0.140   7.741 -1.0980  1.8759  1.6347
  210MOL    H9938137   4.300   0.026   7.861  0.7720  2.2352  1.3129
  210MOL   H10038138   4.466   0.008   7.824 -1.1443  0.2080 -1.1382
  210MOL   C10138139   4.487   7.977   7.344 -0.4488 -0.4902  0.1302
  210MOL   C10238140   4.425   7.883   7.249 -0.3537 -0.2575  1.0692
  210MOL   C10338141   4.633   7.944   7.371 -0.0252  0.9382 -0.5157
  210MOL   O10438142   4.675   7.887   7.472  0.6362  0.4239 -0.1082
  210MOL   O10538143   4.710   7.981   7.270 -0.0383 -0.3726  0.3270
  210MOL   H10638144   4.491   8.064   7.280  0.1203 -0.8847 -0.3721
  210MOL   H10738145   4.335   7.921   7.201 -1.6443 -1.5254  2.4431
  210MOL   H10838146   4.488   7.863   7.163 -1.7407 -0.4157  0.0743
  210MOL   H10938147   4.409   7.784   7.292 -0.2134 -1.2089 -0.9895
  210MOL   C11038148   4.849   7.945   7.270 -0.1350  0.1665 -0.6016
  210MOL   C11138149   4.913   8.021   7.150  0.6730  0.1052 -0.2687
  210MOL   C11238150   4.869   7.791   7.271  0.2620 -0.0271 -0.1058
  210MOL   O11338151   4.948   7.731   7.348  0.3602  0.2098 -0.5752
  210MOL   O11438152   4.793   7.722   7.186  0.7753  0.4428  0.0526
  210MOL   H11538153   4.893   7.970   7.367 -1.9855 -0.4205  0.4344
  210MOL   H11638154   5.019   7.997   7.154 -0.1314 -3.5820  1.9986
  210MOL   H11738155   4.869   7.971   7.063  0.8482 -1.2094  0.3881
  210MOL   H11838156   4.896   8.128   7.154 -1.0343 -0.1828  0.7366
  210MOL   C11938157   4.774   7.575   7.185  0.2524  0.4492  0.8120
  210MOL   C12038158   4.857   7.508   7.073  0.7903  0.2712  0.0670
  210MOL   C12138159   4.629   7.537   7.167  0.5251 -0.0437  0.0161
  210MOL   O12238160   4.544   7.617   7.126 -0.1194 -0.0877 -0.2386
  210MOL   O12338161   4.601   7.408   7.206 -0.1839  0.0122  1.1416
  210MOL   H12438162   4.807   7.531   7.279  1.2704 -0.3132  0.1020
  210MOL   H12538163   4.961   7.510   7.104  0.9169  2.6474 -0.4012
  210MOL   H12638164   4.827   7.405   7.056 -0.0528  0.4001  0.7106
  210MOL   H12738165   4.846   7.570   6.984 -1.7281  0.1627  0.2575
  210MOL   C12838166   4.475   7.350   7.177  0.3960 -0.1982 -0.2744
  210MOL   C12938167   4.394   7.349   7.310  0.1398 -0.1837 -0.0241
  210MOL   C13038168   4.515   7.213   7.124 -0.2572 -0.4934 -0.4791
  210MOL   O13138169   4.478   7.109   7.176 -0.7225 -0.2260  0.4211
  210MOL   O13238170   4.589   7.221   7.005  0.7649  0.0160  0.4401
  210MOL   H13338171   4.419   7.412   7.108 -0.0802  0.7450  0.9269
  210MOL   H13438172   4.369   7.454   7.328 -0.9241 -0.3387 -0.5050
  210MOL   H13538173   4.295   7.306   7.293 -0.2955  0.9516 -0.4174
  210MOL   H13638174   4.445   7.308   7.397 -1.3607  2.0971  1.9996
  210MOL   C13738175   4.600   7.114   6.915  0.4849  0.2371  0.3118
  210MOL   C13838176   4.722   7.154   6.817  0.5937  0.2396 -0.0049
  210MOL   C13938177   4.477   7.082   6.823  0.2214 -0.6777 -0.9762
  210MOL   O14038178   4.375   7.147   6.828  0.1152 -0.6581  0.7208
  210MOL   O14138179   4.493   6.982   6.734  0.1963  0.1804 -0.5736
  210MOL   H14238180   4.616   7.018   6.965  2.5871  0.7606  0.6654
  210MOL   H14338181   4.739   7.071   6.749  0.7189  0.6993 -0.5373
  210MOL   H14438182   4.697   7.244   6.760 -0.8230  0.5493  1.0832
  210MOL   H14538183   4.815   7.164   6.872  0.6966 -1.9762  0.2952
  210MOL   C14638184   4.402   6.962   6.624  0.2503  0.3270 -0.4378
  210MOL   C14738185   4.419   6.818   6.571 -0.4511  0.8728 -0.0226
  210MOL   C14838186   4.422   7.063   6.514  0.1924 -0.6878  0.0663
  210MOL   O14938187   4.335   7.082   6.427  0.4704 -0.2545  0.1518
  210MOL   O15038188   4.543   7.130   6.522 -0.7203  0.3556 -0.3836
  210MOL   H15138189   4.299   6.969   6.661  0.4874  0.3682  0.2178
  210MOL   H15238190   4.365   6.817   6.476  0.3134  1.4505 -0.4682
  210MOL   H15338191   4.523   6.792   6.552  0.1879  1.6716  2.1720
  210MOL   H15438192   4.373   6.741   6.633  1.2866 -0.1083  0.0802
  210MOL   C15538193   4.580   7.221   6.421 -0.2074  0.2883  0.0286
  210MOL   C15638194   4.735   7.228   6.403 -0.0357  0.0626 -0.2193
  210MOL   C15738195   4.522   7.363   6.453  0.1533  0.2662  0.0542
  210MOL   O15838196   4.509   7.448   6.364 -0.3680 -0.1808 -1.0529
  210MOL   O15938197   4.499   7.371   6.590  0.0305 -0.1848  0.1741
  210MOL   H16038198   4.545   7.197   6.321  0.6143  3.0602 -0.9818
  210MOL   H16138199   4.795   7.142   6.432  1.8636  0.4947 -2.7117
  210MOL   H16238200   4.757   7.240   6.297  0.4804  0.0905 -0.1116
  210MOL   H16338201   4.773   7.313   6.459 -0.5817 -0.0468  0.3293
  210MOL   C16438202   4.450   7.488   6.646  0.3354  0.7325  0.3548
  210MOL   C16538203   4.499   7.491   6.796  0.2937  0.8886  0.2897
  210MOL   C16638204   4.302   7.500   6.627  0.5606  0.5493 -0.1236
  210MOL   O16738205   4.255   7.606   6.586 -0.4540 -0.3058  0.2770
  210MOL   O16838206   4.237   7.401   6.683 -0.6405 -0.2083 -0.1924
  210MOL   H16938207   4.490   7.574   6.592 -0.5216 -1.0571 -3.2799
  210MOL   H17038208   4.463   7.580   6.848  0.9485  0.7481  0.9942
  210MOL   H17138209   4.464   7.401   6.846 -0.4491  1.5845  1.0593
  210MOL   H17238210   4.607   7.484   6.805  0.1364 -0.1601  1.4983
  210MOL   C17338211   4.093   7.405   6.688  0.2096  0.0576  0.0872
  210MOL   C17438212   4.070   7.446   6.833  0.1377 -0.0198  0.0826
  210MOL   C17538213   4.023   7.271   6.641  0.3802  0.3420  0.0177
  210MOL   O17638214   4.084   7.179   6.580  0.4256 -0.0138 -0.0773
  210MOL   O17738215   3.896   7.262   6.674  0.2724  0.0358  0.4208
  210MOL   H17838216   4.039   7.472   6.621 -0.5348  1.1585  1.7439
  210MOL   H17938217   4.114   7.540   6.865 -1.8222 -0.0114  2.9711
  210MOL   H18038218   3.963   7.455   6.851 -0.0922  0.2539 -1.3659
  210MOL   H18138219   4.116   7.372   6.898  2.5416 -0.0737 -1.6054
  210MOL   H18238220   3.866   7.176   6.651 -1.1525  0.0219  2.2283
  211MOL     C138221   0.780   4.762   8.015 -0.0453 -0.1807 -0.3959
  211MOL     C238222   0.750   4.655   7.908  0.5902 -0.2075  0.3445
  211MOL     C338223   0.882   4.862   7.963 -0.0427 -0.3439 -0.0465
  211MOL     O438224   0.843   4.965   7.909  0.0150 -0.4918  0.1540
  211MOL     O538225   1.004   4.811   7.954  0.3350 -0.6934  0.1312
  211MOL     H638226   0.694   4.821   8.045 -0.9417 -1.9687  0.6115
  211MOL     H738227   0.840   4.604   7.872 -1.0836 -1.9394 -1.5245
  211MOL     H838228   0.696   4.566   7.941 -1.1667 -0.4241 -2.8507
  211MOL     H938229   0.694   4.700   7.826  0.9515 -0.1057  0.1529
  211MOL    H1038230   0.819   4.715   8.106  0.1812  1.0020  0.1348
  211MOL    C1138231   1.110   4.886   7.891 -0.6658  0.4329  0.3203
  211MOL    C1238232   1.196   4.782   7.809 -0.1976 -0.2352 -0.4519
  211MOL    C1338233   1.194   4.948   8.001  0.2384 -0.1182  0.3946
  211MOL    O1438234   1.315   4.925   8.025 -0.8888  0.6820  0.2431
  211MOL    O1538235   1.115   5.028   8.085 -0.6925  0.1382  0.3410
  211MOL    H1638236   1.086   4.963   7.817  1.9782  0.5491 -0.5051
  211MOL    H1738237   1.293   4.816   7.772 -0.8305  0.7355 -1.2439
  211MOL    H1838238   1.216   4.697   7.874  1.7857  0.4614 -0.1049
  211MOL    H1938239   1.138   4.753   7.721 -2.0971 -1.4003  1.1529
  211MOL    C2038240   1.178   5.106   0.040  0.2604  0.0337  0.6200
  211MOL    C2138241   1.076   5.114   0.157  0.2484 -0.0638 -0.3863
  211MOL    C2238242   1.213   5.246   8.135  0.4280 -0.5357 -0.0147
  211MOL    O2338243   1.211   5.268   8.013 -0.2595 -0.0817 -0.3135
  211MOL    O2438244   1.249   5.328   0.086  0.0169  0.0207  0.4051
  211MOL    H2538245   1.274   5.066   0.071 -1.3397 -2.2856  2.8645
  211MOL    H2638246   0.970   5.123   0.132  0.2086  1.0085  0.1427
  211MOL    H2738247   1.093   5.035   0.230  0.2785 -0.4170 -0.7722
  211MOL    H2838248   1.086   5.206   0.215 -0.3931 -0.2706  0.0536
  211MOL    C2938249   1.237   5.469   0.072  0.5152  0.2703 -0.0840
  211MOL    C3038250   1.306   5.535   0.192 -0.3040  0.3130  0.8261
  211MOL    C3138251   1.088   5.512   0.067  0.2461 -0.1087 -0.2421
  211MOL    O3238252   1.006   5.457   0.139 -0.5823 -0.5028 -0.0523
  211MOL    O3338253   1.074   5.628   0.010  0.1139 -0.2685 -0.0027
  211MOL    H3438254   1.280   5.502   8.125  1.8393 -0.1785  0.3539
  211MOL    H3538255   1.414   5.538   0.173 -0.7644  1.3369 -1.8939
  211MOL    H3638256   1.262   5.632   0.213 -1.1176  0.5529 -1.7758
  211MOL    H3738257   1.294   5.471   0.279  0.0258 -2.0269 -0.7915
  211MOL    C3838258   0.950   5.703   8.139 -0.0400  0.4336 -0.4540
  211MOL    C3938259   0.993   5.828   8.060 -0.5085  0.4232 -0.4606
  211MOL    C4038260   0.899   5.751   0.130 -0.0259 -1.0900 -0.2598
  211MOL    O4138261   0.781   5.740   0.157 -0.4393 -0.1335  0.1539
  211MOL    O4238262   0.992   5.804   0.205  0.3092 -1.5012 -0.0251
  211MOL    H4338263   0.873   5.650   8.083  0.4448 -1.0596  0.2565
  211MOL    H4438264   0.904   5.884   8.034 -1.0066 -0.3345 -0.3767
  211MOL    H4538265   1.052   5.906   8.109 -0.6086 -0.2251  0.7122
  211MOL    H4638266   1.041   5.812   7.963 -2.7258 -0.5270 -1.4193
  211MOL    C4738267   0.974   5.842   0.343 -1.0639  0.2086  0.4037
  211MOL    C4838268   1.092   5.924   0.388 -0.4916  0.4788  0.2102
  211MOL    C4938269   0.949   5.722   0.440  0.0579  0.7027  0.4089
  211MOL    O5038270   0.837   5.692   0.482  0.2658 -0.0053 -0.2700
  211MOL    O5138271   1.065   5.666   0.473 -0.7040 -0.2676 -0.0988
  211MOL    H5238272   0.896   5.916   0.361 -0.0848  1.8536 -1.8764
  211MOL    H5338273   1.073   5.942   0.494 -0.1887  1.0564  0.1732
  211MOL    H5438274   1.192   5.881   0.384 -0.7709  0.0525 -4.5421
  211MOL    H5538275   1.092   6.024   0.343 -1.0222  1.7421  2.9422
  211MOL    C5638276   1.049   5.545   0.547  0.5339  0.2641 -0.3903
  211MOL    C5738277   1.019   5.585   0.696 -0.5843  0.6139  0.6429
  211MOL    C5838278   1.180   5.472   0.558 -0.6463  0.5306  1.0253
  211MOL    O5938279   1.269   5.508   0.635  0.0866  0.1502 -0.5834
  211MOL    O6038280   1.183   5.367   0.472  0.3778  0.5680 -0.0386
  211MOL    H6138281   0.969   5.483   0.507 -0.9846  0.9753  1.4770
  211MOL    H6238282   1.090   5.663   0.723 -0.8546  1.3381 -0.7113
  211MOL    H6338283   0.922   5.634   0.705 -0.4626  0.6802  1.6442
  211MOL    H6438284   1.018   5.504   0.770  0.2899 -0.0366 -0.0411
  211MOL    C6538285   1.273   5.255   0.473 -0.1030 -0.4794  0.4733
  211MOL    C6638286   1.232   5.140   0.566 -0.5538 -0.3952  0.4822
  211MOL    C6738287   1.427   5.288   0.499 -0.0715  0.4113 -1.0464
  211MOL    O6838288   1.480   5.278   0.614 -0.0532 -0.3188  0.5142
  211MOL    O6938289   1.485   5.335   0.392 -0.0496  0.0527 -0.4340
  211MOL    H7038290   1.279   5.215   0.372  1.8131 -0.5724  0.5903
  211MOL    H7138291   1.303   5.058   0.557 -2.3522 -2.2019  2.4299
  211MOL    H7238292   1.245   5.177   0.667 -1.4198  1.0200  0.0882
  211MOL    H7338293   1.128   5.109   0.563 -0.9925  1.0937 -0.8241
  211MOL    C7438294   1.601   5.410   0.407 -0.0683 -0.7947  0.2096
  211MOL    C7538295   1.583   5.545   0.475  0.3633  0.2827 -0.1236
  211MOL    C7638296   1.671   5.400   0.265  0.6896  0.2082 -0.6316
  211MOL    O7738297   1.704   5.498   0.205 -0.1888 -0.4482 -0.6981
  211MOL    O7838298   1.696   5.271   0.226  0.7310 -0.3701  0.6188
  211MOL    H7938299   1.664   5.355   0.477 -0.1228 -0.3106  0.6356
  211MOL    H8038300   1.548   5.527   0.576 -1.1629  0.4783 -0.6020
  211MOL    H8138301   1.672   5.607   0.462  0.2450 -0.0699 -3.0131
  211MOL    H8238302   1.503   5.604   0.430  1.1748  1.2695 -0.2861
  211MOL    C8338303   1.724   5.233   0.091  0.9968 -0.4592 -0.2708
  211MOL    C8438304   1.870   5.257   0.058 -0.2335  0.3972 -0.3964
  211MOL    C8538305   1.620   5.280   8.135 -0.5017  0.0907  0.0245
  211MOL    O8638306   1.510   5.217   8.117  0.6307  0.0512 -0.2485
  211MOL    O8738307   1.658   5.390   8.065 -0.6653 -0.1696  0.3917
  211MOL    H8838308   1.708   5.126   0.097 -0.9216 -0.0612  2.1214
  211MOL    H8938309   1.926   5.173   0.101  1.1309  2.3277  1.7508
  211MOL    H9038310   1.876   5.247   8.097  1.9023  1.4865 -0.4086
  211MOL    H9138311   1.903   5.353   0.097  0.7116 -0.6471  1.4627
  211MOL    C9238312   1.558   5.453   7.977 -0.6644  0.1997 -0.6425
  211MOL    C9338313   1.572   5.393   7.832 -0.8864  0.7055 -0.4771
  211MOL    C9438314   1.589   5.604   7.981 -0.1054 -0.2447 -0.3372
  211MOL    O9538315   1.647   5.666   7.885 -0.5361  0.8263  0.2445
  211MOL    O9638316   1.545   5.662   8.094  0.1948 -0.0181 -0.4478
  211MOL    H9738317   1.460   5.449   8.024 -1.3589  1.2342 -1.9715
  211MOL    H9838318   1.550   5.287   7.834 -0.6897  0.6825  0.9928
  211MOL    H9938319   1.495   5.447   7.776 -1.3777  0.0987 -0.3880
  211MOL   H10038320   1.668   5.400   7.780 -0.3901 -0.4165  0.2820
  211MOL   C10138321   1.560   5.802   8.112  0.2314  0.5770 -0.2240
  211MOL   C10238322   1.607   5.827   0.112 -0.4304 -0.1197  0.5208
  211MOL   C10338323   1.427   5.873   8.098 -0.6416  0.5970  0.5225
  211MOL   O10438324   1.325   5.826   8.046  0.4103  0.5192  0.1709
  211MOL   O10538325   1.432   6.003   8.125 -0.0534 -0.0355 -0.1763
  211MOL   H10638326   1.638   5.849   8.052  0.8469  2.8886  2.2548
  211MOL   H10738327   1.695   5.766   0.132  0.7043  1.5573  0.8208
  211MOL   H10838328   1.638   5.930   0.134  2.3809 -0.4576 -1.6037
  211MOL   H10938329   1.529   5.794   0.181 -0.5750  0.7580  0.7971
  211MOL   C11038330   1.321   6.081   0.017 -0.1348 -0.3701  0.0223
  211MOL   C11138331   1.278   6.183   8.052  0.9509 -0.2599 -0.2172
  211MOL   C11238332   1.336   6.148   0.153  0.9924 -0.4273 -0.3151
  211MOL   O11338333   1.309   6.269   0.169 -0.0754  0.5095 -0.1395
  211MOL   O11438334   1.381   6.067   0.249 -0.5864  0.5199 -0.2594
  211MOL   H11538335   1.238   6.012   0.032  1.7227 -2.3580  1.4139
  211MOL   H11638336   1.204   6.259   8.076  1.1997 -0.4638  1.2157
  211MOL   H11738337   1.367   6.242   8.033 -0.1240  1.4876  0.1241
  211MOL   H11838338   1.241   6.135   7.961 -0.0535 -0.7384  0.4437
  211MOL   C11938339   1.443   6.120   0.365  0.2313 -0.8101  0.5172
  211MOL   C12038340   1.489   5.994   0.434 -0.0176 -0.1916 -0.5474
  211MOL   C12138341   1.346   6.203   0.453 -0.2429  0.4562  0.4769
  211MOL   O12238342   1.225   6.208   0.437  0.1726 -0.0883 -0.0225
  211MOL   O12338343   1.409   6.272   0.549  0.0554  0.4697 -0.4449
  211MOL   H12438344   1.527   6.183   0.334 -1.1699  0.9416  0.2209
  211MOL   H12538345   1.408   5.921   0.439  2.2809 -2.8292 -0.1302
  211MOL   H12638346   1.576   5.945   0.389  1.8076  0.3277  2.2327
  211MOL   H12738347   1.513   6.007   0.540 -0.2419 -0.9329 -0.4032
  211MOL   C12838348   1.329   6.343   0.648 -0.5892 -0.7220 -0.0569
  211MOL   C12938349   1.404   6.469   0.695 -0.4109  0.1160  0.7195
  211MOL   C13038350   1.302   6.247   0.764  0.1464 -0.3987  0.3758
  211MOL   O13138351   1.323   6.276   0.883  0.2319 -0.0454 -0.3732
  211MOL   O13238352   1.263   6.128   0.722 -0.4862 -0.0141  0.3373
  211MOL   H13338353   1.233   6.377   0.610 -0.2508 -0.6476 -0.8566
  211MOL   H13438354   1.378   6.514   0.791 -4.8286  1.1233 -0.8441
  211MOL   H13538355   1.507   6.441   0.714  0.5366  1.4885 -2.1461
  211MOL   H13638356   1.401   6.553   0.627 -1.7926 -0.5507 -0.0703
  211MOL   C13738357   1.241   6.015   0.807 -0.6597  0.0412 -0.0464
  211MOL   C13838358   1.288   5.890   0.733  0.3577  0.3085  0.5494
  211MOL   C13938359   1.104   6.014   0.862  0.7643  0.1583  0.1734
  211MOL   O14038360   1.029   5.916   0.855  0.0176  0.4488  0.5348
  211MOL   O14138361   1.068   6.137   0.905 -0.0681  0.2711 -0.7235
  211MOL   H14238362   1.303   6.023   0.897  0.0380  1.3130 -0.6352
  211MOL   H14338363   1.266   5.802   0.795 -0.3167  0.7075  0.8836
  211MOL   H14438364   1.220   5.873   0.649 -2.1653  1.2015  2.3588
  211MOL   H14538365   1.395   5.903   0.715  0.0609  0.2611 -1.2816
  211MOL   C14638366   0.937   6.154   0.949  0.5425  0.2819 -0.6626
  211MOL   C14738367   0.849   6.184   0.827 -0.1308  0.1976 -0.1879
  211MOL   C14838368   0.926   6.263   1.058  0.8104  0.7668  0.5099
  211MOL   O14938369   1.010   6.347   1.078 -0.0210  0.2686  0.4092
  211MOL   O15038370   0.820   6.249   1.140 -0.0001 -1.1654 -0.1364
  211MOL   H15138371   0.903   6.070   1.010 -0.3425  0.7260 -0.5400
  211MOL   H15238372   0.894   6.258   0.761 -0.2216 -0.2200 -0.7256
  211MOL   H15338373   0.842   6.094   0.765  2.2097 -0.7764  0.9162
  211MOL   H15438374   0.748   6.217   0.853 -0.1146 -1.7701  2.5496
  211MOL   C15538375   0.793   6.354   1.233 -0.8854  0.0328  0.0898
  211MOL   C15638376   0.676   6.298   1.322  0.4944 -0.8741  0.0326
  211MOL   C15738377   0.741   6.481   1.174 -0.0551  0.1594  0.2940
  211MOL   O15838378   0.715   6.583   1.241 -0.2391 -0.2138 -0.3221
  211MOL   O15938379   0.709   6.461   1.051  0.2071  0.0813  0.6249
  211MOL   H16038380   0.875   6.378   1.302 -0.0192  0.5485 -1.0946
  211MOL   H16138381   0.706   6.206   1.373  2.8233  0.1114  0.5153
  211MOL   H16238382   0.653   6.361   1.408 -1.8812 -1.3110 -0.2406
  211MOL   H16338383   0.580   6.284   1.272 -0.2944 -0.0560  1.2719
  211MOL   C16438384   0.662   6.571   0.969 -0.3486  0.3604  0.0131
  211MOL   C16538385   0.619   6.501   0.841  0.9315  0.2578 -0.2666
  211MOL   C16638386   0.777   6.669   0.933 -0.5209 -0.0899 -0.7884
  211MOL   O16738387   0.754   6.783   0.926 -0.4903 -0.2113  0.5793
  211MOL   O16838388   0.893   6.610   0.891  0.5274  0.5286  0.0591
  211MOL   H16938389   0.574   6.621   1.011  0.0111  0.7806  0.2711
  211MOL   H17038390   0.573   6.579   0.780  2.0050  0.4483 -0.8622
  211MOL   H17138391   0.698   6.468   0.773  0.9261  0.2452 -0.2664
  211MOL   H17238392   0.545   6.430   0.875  1.0516  1.0242  1.6491
  211MOL   C17338393   1.019   6.683   0.890  0.3321  0.3541 -0.7913
  211MOL   C17438394   1.121   6.609   0.801 -0.6487 -0.2461  0.1373
  211MOL   C17538395   1.072   6.708   1.036  0.2751 -0.6955  0.0627
  211MOL   O17638396   1.112   6.817   1.075  0.1630 -0.7148  0.4997
  211MOL   O17738397   1.070   6.599   1.118 -0.1635 -0.3056  0.1905
  211MOL   H17838398   1.015   6.780   0.841 -0.1721  1.1993  0.8672
  211MOL   H17938399   1.138   6.503   0.824 -2.5675 -0.5303  0.3345
  211MOL   H18038400   1.088   6.616   0.698 -1.4305  0.3828  0.4231
  211MOL   H18138401   1.216   6.662   0.795 -0.7133 -0.4495 -4.7498
  211MOL   H18238402   1.050   6.516   1.077 -0.7480 -0.1586  0.1741
  212MOL     C138403   4.992   0.935   6.805  0.5752  0.5834 -0.6782
  212MOL     C238404   4.893   0.815   6.826 -0.3440 -0.2729 -0.2357
  212MOL     C338405   4.986   1.043   6.913 -0.2986  0.5272  0.3970
  212MOL     O438406   4.982   1.161   6.876  0.7352  0.1210  0.5646
  212MOL     O538407   5.002   1.005   7.040  0.3364  0.1599  0.0339
  212MOL     H638408   5.095   0.899   6.800 -0.0470 -1.3529 -0.1144
  212MOL     H738409   4.943   0.750   6.898 -0.7563  1.0323  1.2305
  212MOL     H838410   4.805   0.857   6.874 -0.5562 -0.5105 -0.4124
  212MOL     H938411   4.869   0.765   6.732 -0.7887  0.4494 -0.5101
  212MOL    H1038412   4.963   0.981   6.711 -1.6007 -0.4202 -0.5370
  212MOL    C1138413   5.035   1.092   7.142 -0.0435 -0.1098 -0.1432
  212MOL    C1238414   5.189   1.095   7.153 -0.6999  0.5752 -0.7964
  212MOL    C1338415   4.978   1.034   7.273 -0.4979  0.1485  0.3801
  212MOL    O1438416   5.056   0.999   7.363  0.3863  0.0228  0.4341
  212MOL    O1538417   4.845   1.035   7.282  0.3997 -0.4499  0.4170
  212MOL    H1638418   4.990   1.191   7.142 -1.7529 -0.8685  0.4532
  212MOL    H1738419   5.236   1.116   7.057 -0.0125  2.0463 -0.1491
  212MOL    H1838420   5.219   1.164   7.232  0.1429  0.5150 -1.0592
  212MOL    H1938421   5.232   0.996   7.169 -0.0100  0.7900 -1.2993
  212MOL    C2038422   4.781   1.007   7.408  0.3425 -0.2178 -1.3747
  212MOL    C2138423   4.636   0.963   7.392 -0.2728  0.0161  0.4198
  212MOL    C2238424   4.798   1.125   7.501 -0.2151  0.5644 -0.2125
  212MOL    O2338425   4.698   1.197   7.522 -0.4609 -0.2381  0.2222
  212MOL    O2438426   4.925   1.151   7.543 -0.0782 -0.5979  0.8770
  212MOL    H2538427   4.834   0.919   7.443  0.0140 -0.5019 -1.5899
  212MOL    H2638428   4.632   0.872   7.331 -0.9684  1.1705 -1.3093
  212MOL    H2738429   4.595   0.940   7.491 -2.8539  2.0197 -0.1184
  212MOL    H2838430   4.570   1.039   7.349  1.8393  1.1788 -0.8452
  212MOL    C2938431   4.955   1.263   7.632 -0.0440 -0.1061  0.0837
  212MOL    C3038432   5.001   1.393   7.558 -0.2345 -0.1257  0.3808
  212MOL    C3138433   5.069   1.232   7.739  0.1578  0.9083  0.9621
  212MOL    O3238434   5.063   1.280   7.850  0.2290  0.3175  0.0919
  212MOL    O3338435   5.159   1.136   7.700 -0.2838 -0.2815  0.1641
  212MOL    H3438436   4.869   1.281   7.696  1.7117 -1.4127  2.9056
  212MOL    H3538437   4.975   1.480   7.620 -1.5716 -0.4580  0.3062
  212MOL    H3638438   5.109   1.397   7.548 -0.3698 -0.6938 -1.5204
  212MOL    H3738439   4.952   1.407   7.462  0.1160 -0.8871  0.0946
  212MOL    C3838440   5.226   1.049   7.792  0.4065  0.2096  0.3707
  212MOL    C3938441   5.335   0.974   7.712  0.6274 -0.0965  0.3271
  212MOL    C4038442   5.130   0.950   7.855  0.5272 -0.7484 -0.3812
  212MOL    O4138443   5.136   0.916   7.974 -0.9341 -0.1767 -0.1332
  212MOL    O4238444   5.053   0.887   7.766  0.6855 -0.0123  0.1820
  212MOL    H4338445   5.276   1.109   7.868  0.8252 -1.4212  1.4039
  212MOL    H4438446   5.355   0.883   7.768 -3.5754 -0.9848  0.5301
  212MOL    H4538447   5.287   0.940   7.620 -0.0463  0.3363  0.5204
  212MOL    H4638448   5.431   1.025   7.707  0.6744 -0.2151  0.0066
  212MOL    C4738449   4.954   0.798   7.799 -0.5634  0.5082 -0.1555
  212MOL    C4838450   4.937   0.711   7.679  0.7921  0.0141 -0.5609
  212MOL    C4938451   4.822   0.877   7.839  0.3126 -0.2552 -0.3024
  212MOL    O5038452   4.789   0.981   7.781 -0.0757 -0.2802  0.3273
  212MOL    O5138453   4.755   0.806   7.919  0.1635  0.6083  0.2994
  212MOL    H5238454   4.980   0.726   7.877 -1.0990  0.2835 -0.1817
  212MOL    H5338455   4.946   0.772   7.589 -2.8566  0.7750 -0.5131
  212MOL    H5438456   5.027   0.650   7.675  0.5798 -0.2131 -2.1420
  212MOL    H5538457   4.849   0.648   7.693 -0.8219  2.5323  1.2398
  212MOL    C5638458   4.629   0.841   7.971 -0.2069  0.0829  0.1846
  212MOL    C5738459   4.610   0.807   8.116  0.4812 -0.1536  0.4529
  212MOL    C5838460   4.528   0.786   7.874  0.2429  0.0448  0.2467
  212MOL    O5938461   4.562   0.708   7.779  0.0581  0.4105 -0.0397
  212MOL    O6038462   4.401   0.832   7.899 -0.7974  0.0274 -0.1094
  212MOL    H6138463   4.629   0.950   7.972  0.4676  0.1153 -1.4783
  212MOL    H6238464   4.524   0.861   0.007  0.3760  0.2362 -0.3075
  212MOL    H6338465   4.603   0.699   8.125  1.1393 -0.3648 -1.4081
  212MOL    H6438466   4.701   0.827   0.026  2.0518 -4.2015 -0.4600
  212MOL    C6538467   4.293   0.777   7.817  0.0430 -0.0294  0.5613
  212MOL    C6638468   4.176   0.879   7.824 -0.6821  0.0005 -0.0720
  212MOL    C6738469   4.264   0.637   7.873 -0.4950  1.1844  0.5140
  212MOL    O6838470   4.328   0.584   7.958  0.1118 -0.5641 -0.7387
  212MOL    O6938471   4.165   0.576   7.799 -0.6050 -0.3247 -0.1788
  212MOL    H7038472   4.327   0.768   7.714  3.1468 -3.1789  1.7477
  212MOL    H7138473   4.152   0.900   7.929 -0.8405 -2.7617  0.4848
  212MOL    H7238474   4.206   0.978   7.791 -1.4666 -0.0502 -0.9385
  212MOL    H7338475   4.094   0.845   7.761  1.6596 -4.0132 -1.1793
  212MOL    C7438476   4.117   0.446   7.839  0.3470  0.5102  0.2791
  212MOL    C7538477   4.158   0.341   7.732  0.3308 -0.3600 -0.3872
  212MOL    C7638478   3.967   0.465   7.866  0.0643 -0.5687  0.0091
  212MOL    O7738479   3.915   0.448   7.978  0.0110 -0.3315  0.2853
  212MOL    O7838480   3.904   0.502   7.757  0.3040  0.6926 -0.3975
  212MOL    H7938481   4.141   0.413   7.940 -3.0145  0.1713  1.0258
  212MOL    H8038482   4.156   0.244   7.780  0.3702 -1.0305 -1.7083
  212MOL    H8138483   4.083   0.343   7.652  0.4812 -1.4365 -0.5647
  212MOL    H8238484   4.261   0.360   7.701 -0.3419  3.9144 -0.3146
  212MOL    C8338485   3.766   0.520   7.762 -0.2669  0.2849  0.3030
  212MOL    C8438486   3.714   0.486   7.618  0.4182 -0.3453  0.0442
  212MOL    C8538487   3.743   0.669   7.811  0.0765 -0.1799  0.4839
  212MOL    O8638488   3.842   0.744   7.834  0.3954 -0.1845  0.8937
  212MOL    O8738489   3.614   0.702   7.822  0.3637  0.3312 -0.0779
  212MOL    H8838490   3.722   0.440   7.822 -2.5113  2.1690  1.2572
  212MOL    H8938491   3.606   0.480   7.615  0.2251  1.7821  1.7937
  212MOL    H9038492   3.746   0.566   7.553 -0.3158 -0.2379 -0.1852
  212MOL    H9138493   3.760   0.398   7.573 -0.8721 -1.5584  1.0603
  212MOL    C9238494   3.574   0.843   7.806 -0.4804 -0.4407  0.6024
  212MOL    C9338495   3.441   0.858   7.874  0.2746  0.5419 -0.0342
  212MOL    C9438496   3.586   0.890   7.657  0.0161 -0.2721 -0.3551
  212MOL    O9538497   3.485   0.929   7.595 -0.1224 -0.1054 -0.4552
  212MOL    O9638498   3.713   0.900   7.607 -0.2308 -0.7644 -0.3261
  212MOL    H9738499   3.640   0.912   7.860 -2.8895  2.6666 -0.2700
  212MOL    H9838500   3.383   0.775   7.834 -0.3887  1.1739 -0.3820
  212MOL    H9938501   3.456   0.834   7.979  3.0796 -1.6801 -0.8917
  212MOL   H10038502   3.389   0.954   7.877 -0.1873  0.2697  1.1986
  212MOL   C10138503   3.735   0.928   7.465  0.1972 -0.1421 -1.1186
  212MOL   C10238504   3.825   0.816   7.402 -0.4404 -0.1067 -0.0124
  212MOL   C10338505   3.800   1.069   7.452 -0.3054  0.0463  0.0954
  212MOL   O10438506   3.897   1.092   7.381 -0.2735  0.2997 -0.0831
  212MOL   O10538507   3.736   1.160   7.522  0.2648 -0.2536  0.2227
  212MOL   H10638508   3.644   0.934   7.403 -1.0148  0.4461  0.6724
  212MOL   H10738509   3.765   0.726   7.390  2.1124 -2.0542  1.2892
  212MOL   H10838510   3.878   0.843   7.310  0.6178  2.2762  1.2545
  212MOL   H10938511   3.894   0.774   7.475  0.4010 -0.7845 -1.1867
  212MOL   C11038512   3.799   1.283   7.555  0.6326 -0.0814  0.4575
  212MOL   C11138513   3.809   1.383   7.436 -0.5801  0.1577  0.1521
  212MOL   C11238514   3.920   1.262   7.649  0.1487  0.2424 -0.3153
  212MOL   O11338515   4.034   1.287   7.619 -0.8117  0.1293 -0.2047
  212MOL   O11438516   3.885   1.209   7.771 -0.8343  0.1053  0.3314
  212MOL   H11538517   3.728   1.323   7.628  2.9816 -0.7958  3.2372
  212MOL   H11638518   3.719   1.399   7.378  0.2061 -0.0638 -1.1460
  212MOL   H11738519   3.848   1.478   7.474 -3.2052  1.3657 -0.1013
  212MOL   H11838520   3.880   1.350   7.360  0.8732  3.2082  0.0947
  212MOL   C11938521   3.977   1.184   7.869 -0.3966 -0.1162  0.2869
  212MOL   C12038522   3.915   1.076   7.968  0.2338 -0.0934  0.4615
  212MOL   C12138523   4.029   1.314   7.947 -0.0019  0.6588  0.1701
  212MOL   O12238524   3.980   1.343   8.053 -0.3967 -0.5465  0.6987
  212MOL   O12338525   4.121   1.384   7.881 -0.7233  0.0260 -0.3641
  212MOL   H12438526   4.066   1.137   7.829  0.5888 -0.1408  2.4583
  212MOL   H12538527   3.822   1.109   8.014  0.2430  0.2559  0.2345
  212MOL   H12638528   3.891   0.989   7.908 -1.0564 -1.5013  2.9587
  212MOL   H12738529   3.980   1.040   8.047  1.3484 -0.6275 -0.6710
  212MOL   C12838530   4.164   1.510   7.929  0.2816 -0.1092 -0.6650
  212MOL   C12938531   4.224   1.587   7.816  0.0276 -0.1891  0.1272
  212MOL   C13038532   4.272   1.482   8.036  0.4732  0.3510  0.3731
  212MOL   O13138533   4.276   1.543   8.145 -0.0525  0.3371 -0.1313
  212MOL   O13238534   4.363   1.391   7.991  0.1874  0.3342  0.7630
  212MOL   H13338535   4.083   1.563   7.980  2.2773  1.1119  1.3427
  212MOL   H13438536   4.307   1.543   7.761 -0.4258  0.9433 -1.4765
  212MOL   H13538537   4.154   1.615   7.738 -1.4217 -1.8187  0.8139
  212MOL   H13638538   4.262   1.680   7.858 -0.4207 -1.4921  3.5864
  212MOL   C13738539   4.476   1.341   8.058  0.0931 -0.6826 -0.0540
  212MOL   C13838540   4.568   1.251   7.974 -0.2581 -0.3716 -0.5982
  212MOL   C13938541   4.432   1.278   0.051  0.0845 -0.0833  0.2286
  212MOL   O14038542   4.501   1.314   0.151  0.1743 -0.0028 -0.3984
  212MOL   O14138543   4.323   1.196   0.054  0.1112 -0.4398  0.4814
  212MOL   H14238544   4.540   1.426   8.084 -0.1690 -1.0309  1.8084
  212MOL   H14338545   4.623   1.310   7.901 -1.3803 -0.7865 -1.8214
  212MOL   H14438546   4.636   1.202   8.043 -0.1996 -0.6951 -0.8850
  212MOL   H14538547   4.508   1.185   7.911  0.3662 -0.6261 -0.9312
  212MOL   C14638548   4.272   1.137   0.176  0.6246 -0.0163  0.3165
  212MOL   C14738549   4.304   0.987   0.190 -0.2741 -0.6096 -0.2896
  212MOL   C14838550   4.126   1.167   0.189 -0.3271 -0.6702  0.2137
  212MOL   O14938551   4.046   1.087   0.137  0.6641 -0.1341  0.5271
  212MOL   O15038552   4.095   1.284   0.255 -0.2003  0.3649  0.1882
  212MOL   H15138553   4.319   1.194   0.256  1.6024  2.2421 -1.7839
  212MOL   H15238554   4.237   0.946   0.266 -0.5396  2.2542  1.0533
  212MOL   H15338555   4.290   0.927   0.099 -1.2149 -0.5918 -0.1634
  212MOL   H15438556   4.407   0.967   0.216  0.2198  0.2684 -1.5138
  212MOL   C15538557   3.958   1.316   0.265  0.3420  0.3327 -0.0625
  212MOL   C15638558   3.932   1.469   0.253  0.2178 -0.0234 -0.6149
  212MOL   C15738559   3.893   1.258   0.386 -0.0459 -1.3778 -0.6195
  212MOL   O15838560   3.952   1.182   0.466 -0.1164  0.2958 -0.2677
  212MOL   O15938561   3.764   1.293   0.402 -0.0199 -0.0196  0.4450
  212MOL   H16038562   3.912   1.281   0.172 -0.5205  0.6820  0.2188
  212MOL   H16138563   4.010   1.522   0.198  0.5306 -0.5165 -0.6498
  212MOL   H16238564   3.834   1.486   0.210  0.5235 -0.6708 -1.5781
  212MOL   H16338565   3.941   1.513   0.353 -0.9320 -0.1796 -0.4409
  212MOL   C16438566   3.689   1.269   0.521  0.5148  0.3499 -1.1067
  212MOL   C16538567   3.538   1.310   0.494 -0.1719 -0.7256  0.2738
  212MOL   C16638568   3.744   1.346   0.646  0.1736  0.3920 -0.7253
  212MOL   O16738569   3.756   1.302   0.760 -0.4475  0.3368  0.1861
  212MOL   O16838570   3.754   1.477   0.609 -0.0584  0.5258  0.1305
  212MOL   H16938571   3.685   1.166   0.557  1.9173  1.0229  0.9888
  212MOL   H17038572   3.526   1.407   0.447 -1.2891 -0.9584  0.0439
  212MOL   H17138573   3.488   1.243   0.424  0.8427  1.0004 -2.1522
  212MOL   H17238574   3.475   1.317   0.583 -0.4385  0.5015 -0.0091
  212MOL   C17338575   3.798   1.569   0.708 -0.4787  0.1668 -0.4819
  212MOL   C17438576   3.777   1.706   0.644 -0.3532  0.0483 -0.1774
  212MOL   C17538577   3.946   1.553   0.741 -0.0963 -0.3983  0.1157
  212MOL   O17638578   4.014   1.488   0.669 -0.7924  0.7244  0.3144
  212MOL   O17738579   3.986   1.626   0.849 -0.3528 -0.3070 -0.3459
  212MOL   H17838580   3.733   1.572   0.795 -1.1042  2.1270 -1.0028
  212MOL   H17938581   3.699   1.715   0.569  1.4139  0.3845 -1.9995
  212MOL   H18038582   3.772   1.781   0.723  1.4064  1.2659 -1.2130
  212MOL   H18138583   3.863   1.723   0.580 -0.3058  4.1804  0.8670
  212MOL   H18238584   4.078   1.606   0.856 -0.2530  0.4487  0.4799
  213MOL     C138585   3.508   7.955   2.513 -1.1825  0.3975 -0.0281
  213MOL     C238586   3.428   7.938   2.642  0.3176 -0.4834 -0.2000
  213MOL     C338587   3.454   8.063   2.424 -0.2619 -0.5451  0.4595
  213MOL     O438588   3.335   8.061   2.390  0.3140  0.3923  0.8615
  213MOL     O538589   3.540   0.020   2.399 -0.2656  0.8004 -0.4648
  213MOL     H638590   3.611   7.976   2.541 -0.5517 -0.5755 -1.5601
  213MOL     H738591   3.461   7.999   2.726 -1.4669 -0.5102  0.5323
  213MOL     H838592   3.324   7.962   2.622  1.0319 -0.2924 -3.9383
  213MOL     H938593   3.427   7.832   2.670 -2.1386  0.0266  1.8171
  213MOL    H1038594   3.493   7.872   2.445  0.7040 -0.7137  0.8614
  213MOL    C1138595   3.497   0.127   2.319  0.1487 -0.1606  0.6195
  213MOL    C1238596   3.552   0.112   2.171 -0.5272  0.4743 -0.3424
  213MOL    C1338597   3.539   0.268   2.368  0.7115  0.1094 -0.3600
  213MOL    O1438598   3.488   0.371   2.332  0.0580 -0.9064  0.0417
  213MOL    O1538599   3.637   0.266   2.457 -0.0451 -0.2322 -0.2707
  213MOL    H1638600   3.388   0.131   2.310  0.3136 -1.5188 -2.5496
  213MOL    H1738601   3.658   0.089   2.182 -1.0348 -1.4758  0.6651
  213MOL    H1838602   3.504   0.027   2.123 -0.5766 -0.4002  1.2126
  213MOL    H1938603   3.547   0.202   2.110 -0.7183 -0.6012 -1.9134
  213MOL    C2038604   3.650   0.381   2.541 -0.2638 -0.2812  0.1982
  213MOL    C2138605   3.772   0.350   2.631  0.6923 -0.9348  0.5310
  213MOL    C2238606   3.525   0.432   2.614  0.2696  0.0383  0.2261
  213MOL    O2338607   3.509   0.551   2.640 -0.1310 -0.8615 -0.1504
  213MOL    O2438608   3.447   0.331   2.658  0.7687 -0.3526  0.2517
  213MOL    H2538609   3.683   0.469   2.485  0.1461  0.1139  1.0656
  213MOL    H2638610   3.860   0.412   2.614  0.3394 -0.7390 -0.6262
  213MOL    H2738611   3.735   0.361   2.733 -1.3274 -1.0457 -0.1640
  213MOL    H2838612   3.787   0.242   2.620 -1.3792 -1.2185  0.2007
  213MOL    C2938613   3.313   0.361   2.710 -0.0911  0.3220  0.3399
  213MOL    C3038614   3.271   0.233   2.778 -0.1000  0.4869 -0.2373
  213MOL    C3138615   3.217   0.399   2.596 -0.5594  0.2466  0.2031
  213MOL    O3238616   3.177   0.513   2.581 -0.4159 -0.2898  0.1399
  213MOL    O3338617   3.185   0.289   2.521 -0.7649 -0.3374 -0.1560
  213MOL    H3438618   3.313   0.441   2.784  2.7085 -1.0099  1.8617
  213MOL    H3538619   3.332   0.198   2.861 -1.5467  0.0633  0.6753
  213MOL    H3638620   3.166   0.229   2.807 -0.5603 -2.1458 -2.0611
  213MOL    H3738621   3.270   0.143   2.716 -0.9379  0.2955  0.0485
  213MOL    C3838622   3.093   0.310   2.411 -0.7925 -0.9104 -0.0537
  213MOL    C3938623   3.039   0.161   2.397  0.0320 -0.8275  0.4971
  213MOL    C4038624   3.146   0.370   2.280 -0.5533 -0.1551 -0.5502
  213MOL    O4138625   3.209   0.305   2.196 -0.2102  0.4063 -0.3889
  213MOL    O4238626   3.121   0.509   2.271 -0.3930 -0.2162  0.4077
  213MOL    H4338627   3.010   0.367   2.451  0.5332  0.2992  1.0312
  213MOL    H4438628   2.977   0.159   2.307 -0.6761  1.8342  0.8885
  213MOL    H4538629   3.131   0.106   2.378  2.0446  2.3990  0.5829
  213MOL    H4638630   2.982   0.128   2.485 -0.3677  1.1176  1.0007
  213MOL    C4738631   3.153   0.594   2.165  0.2182  0.1548 -0.3321
  213MOL    C4838632   3.132   0.736   2.221 -0.1024 -0.0734  0.4852
  213MOL    C4938633   3.068   0.563   2.039  0.4337 -0.3063  0.9758
  213MOL    O5038634   2.980   0.645   2.016  0.2317 -0.5194  0.9329
  213MOL    O5138635   3.096   0.449   1.971 -0.4025  0.2858 -0.0979
  213MOL    H5238636   3.259   0.584   2.143  0.1254 -1.5385 -0.1026
  213MOL    H5338637   3.217   0.759   2.286  1.5090 -1.2048 -1.1586
  213MOL    H5438638   3.129   0.816   2.148  1.0311 -1.0621 -0.6618
  213MOL    H5538639   3.034   0.741   2.268 -0.3850 -0.3338 -0.0736
  213MOL    C5638640   3.033   0.422   1.850  0.2001  0.6204 -0.2129
  213MOL    C5738641   3.055   0.278   1.817  0.3365 -1.1461 -0.4655
  213MOL    C5838642   3.085   0.511   1.732  0.6107  0.0945  0.7150
  213MOL    O5938643   3.158   0.607   1.741  0.7118  0.4465 -0.5035
  213MOL    O6038644   3.040   0.468   1.608  0.3091  0.0044 -0.1930
  213MOL    H6138645   2.926   0.433   1.866  0.5106  1.8310  1.2478
  213MOL    H6238646   3.087   0.222   1.905 -0.6186  0.7287  1.0987
  213MOL    H6338647   2.961   0.226   1.796 -1.8564  2.7635 -0.6507
  213MOL    H6438648   3.132   0.266   1.741  0.1969  1.8103 -1.1275
  213MOL    C6538649   3.090   0.510   1.483 -0.7676  0.2383  0.2848
  213MOL    C6638650   2.987   0.485   1.369 -0.2263 -0.6526 -0.3084
  213MOL    C6738651   3.225   0.436   1.452 -0.1084  0.2118 -0.4733
  213MOL    O6838652   3.335   0.491   1.445  0.0678  0.3433  0.8080
  213MOL    O6938653   3.209   0.305   1.434 -0.3185 -0.2438  0.1882
  213MOL    H7038654   3.112   0.616   1.491 -2.8760  0.6208  1.6649
  213MOL    H7138655   2.961   0.381   1.351  0.0704 -0.7849  0.0145
  213MOL    H7238656   2.896   0.543   1.390  0.5458 -0.0560  1.5429
  213MOL    H7338657   3.034   0.515   1.275 -0.0424  2.3136  0.6595
  213MOL    C7438658   3.313   0.217   1.404  0.2475  0.2027 -0.0645
  213MOL    C7538659   3.247   0.109   1.316  0.2394  0.0062  0.5115
  213MOL    C7638660   3.381   0.169   1.532  0.2398 -0.3324  0.8381
  213MOL    O7738661   3.397   0.049   1.555  0.0791 -0.1555 -0.1717
  213MOL    O7838662   3.405   0.270   1.621 -0.6866 -0.1647  0.4337
  213MOL    H7938663   3.400   0.262   1.356 -1.2863  0.5452 -2.5602
  213MOL    H8038664   3.307   0.028   1.274 -0.2532 -0.3346  0.4598
  213MOL    H8138665   3.166   0.064   1.374 -0.0098 -1.8066 -1.1817
  213MOL    H8238666   3.201   0.165   1.235  0.4926  1.3155  1.2741
  213MOL    C8338667   3.455   0.242   1.753 -0.1732 -0.0461 -0.5942
  213MOL    C8438668   3.455   0.368   1.848  0.5057 -1.1903 -0.3049
  213MOL    C8538669   3.598   0.170   1.750  0.6890  0.3508  0.2338
  213MOL    O8638670   3.644   0.135   1.861  0.0169  0.0215 -0.4809
  213MOL    O8738671   3.664   0.169   1.633  0.0616  0.1909 -0.5384
  213MOL    H8838672   3.389   0.167   1.797  2.6955 -0.9720  2.3688
  213MOL    H8938673   3.523   0.447   1.816 -0.2857 -0.6469 -0.6602
  213MOL    H9038674   3.352   0.403   1.854  0.9917  0.0456  1.1462
  213MOL    H9138675   3.484   0.342   1.949  2.1755  0.0929 -0.4354
  213MOL    C9238676   3.793   0.102   1.632 -0.5956  0.0965 -0.4412
  213MOL    C9338677   3.909   0.206   1.664 -0.1303 -0.5220  0.1506
  213MOL    C9438678   3.818   0.042   1.490  0.7550 -0.3894  0.3336
  213MOL    O9538679   3.921   0.055   1.433  0.3072 -0.5526  0.1602
  213MOL    O9638680   3.699   8.138   1.445  0.3231 -0.0112 -0.4623
  213MOL    H9738681   3.797   0.020   1.703 -1.4297  0.1793 -0.2985
  213MOL    H9838682   3.897   0.255   1.761  4.2502  0.4817  0.3081
  213MOL    H9938683   4.008   0.160   1.664  1.4247  2.5862  1.5801
  213MOL   H10038684   3.897   0.289   1.594  1.8016 -0.6429 -0.3418
  213MOL   C10138685   3.698   8.068   1.322  0.7349  0.5687 -1.2448
  213MOL   C10238686   3.632   8.144   1.206  0.1048  0.4615  0.0636
  213MOL   C10338687   3.629   7.929   1.346 -0.0194 -0.0947  0.6903
  213MOL   O10438688   3.689   7.825   1.332  0.6436  0.1367  0.2100
  213MOL   O10538689   3.496   7.938   1.377 -0.0342  0.2674 -0.2926
  213MOL   H10638690   3.802   8.040   1.304  1.1096 -1.0161  2.8936
  213MOL   H10738691   3.524   8.139   1.213  0.2193 -1.5180  0.5502
  213MOL   H10838692   3.659   0.102   1.216  1.8739 -0.0113  0.4383
  213MOL   H10938693   3.670   8.102   1.113  1.5552  0.7691  0.4999
  213MOL   C11038694   3.417   7.826   1.392  0.2668  0.6447 -0.1432
  213MOL   C11138695   3.268   7.870   1.372 -0.0089 -0.3501 -0.1284
  213MOL   C11238696   3.427   7.768   1.530  0.2902 -0.3107  0.6809
  213MOL   O11338697   3.402   7.648   1.552 -0.0062  0.2099 -0.5242
  213MOL   O11438698   3.452   7.864   1.634  0.1501  0.0398 -0.5226
  213MOL   H11538699   3.457   7.747   1.328 -1.6240  1.1788 -2.0249
  213MOL   H11638700   3.242   7.946   1.446 -0.1526 -3.3605  3.0584
  213MOL   H11738701   3.249   7.915   1.275 -1.7841  0.1272  0.4302
  213MOL   H11838702   3.209   7.779   1.385 -1.2655  0.1698 -2.0719
  213MOL   C11938703   3.471   7.817   1.766  0.2308  0.7565  0.2908
  213MOL   C12038704   3.450   7.937   1.867  0.6176  0.5106  0.5532
  213MOL   C12138705   3.600   7.745   1.787  0.7609  0.7927 -0.1031
  213MOL   O12238706   3.698   7.756   1.713  0.7517 -0.0106  0.1983
  213MOL   O12338707   3.600   7.674   1.901 -0.0269 -0.0299 -0.6870
  213MOL   H12438708   3.386   7.753   1.789  0.6412 -0.5900 -1.7917
  213MOL   H12538709   3.370   8.005   1.839  1.2161  0.6672 -0.8501
  213MOL   H12638710   3.435   7.891   1.965 -3.0760 -0.2342 -0.3209
  213MOL   H12738711   3.541   7.997   1.865  1.5372 -0.8436  0.5327
  213MOL   C12838712   3.703   7.592   1.963  0.7170  0.5571 -0.1362
  213MOL   C12938713   3.790   7.691   2.037 -0.5647  0.1565 -0.6794
  213MOL   C13038714   3.777   7.501   1.857 -0.1615  0.5474 -0.8102
  213MOL   O13138715   3.898   7.499   1.868  0.0033 -0.1345  0.5654
  213MOL   O13238716   3.693   7.447   1.774 -0.5213  0.7746 -0.2069
  213MOL   H13338717   3.645   7.531   2.032 -0.7642  2.1197  0.0464
  213MOL   H13438718   3.882   7.637   2.059 -0.2511  1.0901  0.3650
  213MOL   H13538719   3.828   7.767   1.969  0.4880  0.2837  0.0404
  213MOL   H13638720   3.751   7.728   2.132  1.3994  0.4961  0.0250
  213MOL   C13738721   3.732   7.341   1.685 -0.1932 -0.3149 -0.2309
  213MOL   C13838722   3.623   7.342   1.575  0.5237 -0.6112 -0.6480
  213MOL   C13938723   3.725   7.202   1.750  0.3012  0.2058  0.3324
  213MOL   O14038724   3.828   7.134   1.756  0.6928 -0.4196 -0.1435
  213MOL   O14138725   3.599   7.176   1.798  0.1310  0.2338 -0.1067
  213MOL   H14238726   3.831   7.347   1.638  0.6042  0.0373  1.4378
  213MOL   H14338727   3.665   7.285   1.493  2.1657 -0.5687  0.1566
  213MOL   H14438728   3.529   7.295   1.607  2.1482 -3.5943 -0.0622
  213MOL   H14538729   3.615   7.445   1.541 -0.5215 -0.3797  0.2669
  213MOL   C14638730   3.581   7.050   1.870 -0.0971 -0.0319 -0.1510
  213MOL   C14738731   3.451   6.996   1.816 -0.1861  0.7262 -0.0833
  213MOL   C14838732   3.557   7.094   2.019 -0.5627  0.2753  1.4976
  213MOL   O14938733   3.584   7.209   2.050  0.7865 -0.2898 -0.6620
  213MOL   O15038734   3.514   6.994   2.102  0.8228  0.3938  0.5498
  213MOL   H15138735   3.670   6.987   1.876  0.3308  0.5589 -0.2101
  213MOL   H15238736   3.412   6.911   1.871  0.2939  0.5558 -0.0034
  213MOL   H15338737   3.373   7.073   1.810  0.5744  1.4563 -0.6978
  213MOL   H15438738   3.456   6.951   1.717 -1.5653 -0.6497  0.4514
  213MOL   C15538739   3.452   7.034   2.227  0.0463  0.0606 -0.1094
  213MOL   C15638740   3.447   6.910   2.322  0.2802  0.2105 -0.9552
  213MOL   C15738741   3.314   7.092   2.195 -0.1170 -0.4400 -0.1394
  213MOL   O15838742   3.277   7.196   2.251  0.2245 -0.0815  0.6029
  213MOL   O15938743   3.248   7.029   2.095  0.2474 -0.3306  0.4442
  213MOL   H16038744   3.513   7.115   2.266  0.8251  0.1593 -1.5046
  213MOL   H16138745   3.552   6.889   2.343  0.4974  1.5181 -0.7181
  213MOL   H16238746   3.400   6.925   2.420 -0.9508  1.4234 -1.7204
  213MOL   H16338747   3.408   6.821   2.273 -0.5648  0.4577 -0.7381
  213MOL   C16438748   3.118   7.065   2.055  0.1853  0.3966  0.2959
  213MOL   C16538749   3.036   6.932   2.037 -0.4351 -0.4442 -1.1173
  213MOL   C16638750   3.130   7.140   1.924  0.6463  0.1877 -1.0529
  213MOL   O16738751   3.057   7.113   1.828 -0.2911  0.1374 -0.6182
  213MOL   O16838752   3.221   7.234   1.924 -0.0241  0.3672 -0.3335
  213MOL   H16938753   3.065   7.111   2.138  0.1368 -2.7468  2.0760
  213MOL   H17038754   3.067   6.870   1.953  0.7719 -1.3692 -0.0126
  213MOL   H17138755   3.030   6.873   2.128  0.7998  2.6974  1.1040
  213MOL   H17238756   2.937   6.961   2.003 -0.9966 -0.3640  0.5487
  213MOL   C17338757   3.239   7.324   1.814 -0.2256  0.9620 -0.7713
  213MOL   C17438758   3.362   7.402   1.854  0.3223 -0.1847 -0.1667
  213MOL   C17538759   3.122   7.422   1.812 -0.9923  0.3926  0.1370
  213MOL   O17638760   3.051   7.434   1.713  0.1017  1.0718 -0.2298
  213MOL   O17738761   3.097   7.488   1.932 -0.1389  0.2043 -0.4998
  213MOL   H17838762   3.255   7.268   1.722  0.2077 -2.3049  1.2413
  213MOL   H17938763   3.340   7.453   1.948 -0.7884  0.1937 -0.6185
  213MOL   H18038764   3.441   7.330   1.874 -1.4955 -1.8249  1.2539
  213MOL   H18138765   3.399   7.471   1.778  2.1609 -1.0128 -0.0502
  213MOL   H18238766   3.022   7.543   1.915  0.0751  0.0905 -1.8645
  214MOL     C138767   5.864   2.862   6.601 -0.1627 -0.1770 -0.2163
  214MOL     C238768   5.756   2.826   6.502  0.8704  0.0640  0.0608
  214MOL     C338769   5.890   2.754   6.700 -0.5131 -0.1111 -0.4729
  214MOL     O438770   6.000   2.690   6.687 -0.7376  0.2126  0.4080
  214MOL     O538771   5.797   2.735   6.789  0.2451  0.6106  0.0705
  214MOL     H638772   5.950   2.875   6.535 -0.5593 -4.7027 -1.8761
  214MOL     H738773   5.664   2.823   6.562  0.3214 -0.7880 -0.8107
  214MOL     H838774   5.742   2.902   6.425  0.7334  1.3009  1.2897
  214MOL     H938775   5.765   2.731   6.450 -0.1762 -0.3079  0.5259
  214MOL    H1038776   5.843   2.952   6.657 -0.3407 -0.0705 -0.4563
  214MOL    C1138777   5.823   2.657   6.904 -0.4404 -0.1644 -0.3090
  214MOL    C1238778   5.689   2.618   6.966  0.6996 -0.7867  0.1504
  214MOL    C1338779   5.900   2.734   7.006  0.0242 -0.5199  0.3784
  214MOL    O1438780   5.998   2.689   7.054 -0.6038 -0.4112  0.1941
  214MOL    O1538781   5.850   2.859   7.046  0.2250 -0.0621 -0.1303
  214MOL    H1638782   5.884   2.569   6.883  0.9900  0.5169  0.9259
  214MOL    H1738783   5.630   2.699   7.009  0.7859  0.3488 -1.8339
  214MOL    H1838784   5.619   2.568   6.899 -0.5583 -0.2880  1.0675
  214MOL    H1938785   5.717   2.551   7.048 -0.7363  0.5531  1.7728
  214MOL    C2038786   5.927   2.961   7.113  0.0370  0.3609 -0.2737
  214MOL    C2138787   5.835   3.070   7.159  0.2756 -0.3424 -0.0670
  214MOL    C2238788   6.050   3.014   7.029  0.1628  0.7674 -0.4966
  214MOL    O2338789   6.036   3.115   6.962  0.4918  0.1062  0.4313
  214MOL    O2438790   6.163   2.931   7.027 -1.0010 -0.0109 -0.2660
  214MOL    H2538791   5.960   2.908   7.202 -0.0811 -1.9935 -1.5735
  214MOL    H2638792   5.799   3.128   7.074  0.1944  0.7212  0.6847
  214MOL    H2738793   5.749   3.041   7.219  1.0105 -0.5180  0.9197
  214MOL    H2838794   5.887   3.135   7.230  0.4259 -1.8624  1.2505
  214MOL    C2938795   6.286   2.961   6.966 -0.2478  1.0095 -0.8216
  214MOL    C3038796   6.383   2.843   6.995  0.2171  0.6099 -0.1323
  214MOL    C3138797   6.345   3.096   7.007  0.0426 -0.0990  0.1345
  214MOL    O3238798   6.342   3.196   6.938 -0.4588  0.5523 -0.2416
  214MOL    O3338799   6.389   3.103   7.136 -0.1275 -0.3411  0.2434
  214MOL    H3438800   6.256   2.958   6.862 -3.0330  2.2705 -0.1018
  214MOL    H3538801   6.483   2.879   6.973  0.6676 -1.2014 -1.0914
  214MOL    H3638802   6.368   2.807   7.097 -0.4099  0.0145 -0.4257
  214MOL    H3738803   6.361   2.756   6.933 -0.6480  1.1508 -0.5971
  214MOL    C3838804   6.407   3.230   7.205 -0.2708  0.3578 -0.6541
  214MOL    C3938805   6.528   3.207   7.301 -0.0730  0.6385  0.0907
  214MOL    C4038806   6.273   3.270   7.271 -0.2738  0.0470 -0.4275
  214MOL    O4138807   6.156   3.245   7.228  0.4610  0.4982 -0.3117
  214MOL    O4238808   6.298   3.347   7.379  0.3444 -0.4728 -0.3794
  214MOL    H4338809   6.436   3.306   7.133  1.0133 -0.1288 -0.6649
  214MOL    H4438810   6.531   3.281   7.381  0.8742  0.1022  0.5481
  214MOL    H4538811   6.515   3.109   7.347  1.6316 -0.5321 -1.8611
  214MOL    H4638812   6.629   3.193   7.262 -0.4081 -0.7500 -0.3077
  214MOL    C4738813   6.183   3.415   7.442 -0.1440 -0.4590 -0.3775
  214MOL    C4838814   6.229   3.537   7.526 -0.2258 -0.7226  0.0931
  214MOL    C4938815   6.084   3.324   7.513 -0.1635 -0.0062 -0.0153
  214MOL    O5038816   5.963   3.315   7.475 -0.2126  0.5864  0.2854
  214MOL    O5138817   6.151   3.255   7.615  0.1701 -0.3091 -0.5878
  214MOL    H5238818   6.118   3.462   7.368  0.4786  0.3253 -0.4322
  214MOL    H5338819   6.304   3.496   7.595  0.9547 -0.3020 -0.9311
  214MOL    H5438820   6.267   3.625   7.474 -0.6991 -0.1260  0.7452
  214MOL    H5538821   6.145   3.572   7.585  0.7262  2.8637 -0.5830
  214MOL    C5638822   6.100   3.127   7.652 -0.5681  0.3734 -0.7522
  214MOL    C5738823   6.150   3.091   7.790  0.2191 -0.5210  0.1928
  214MOL    C5838824   6.135   3.024   7.550 -0.7805  0.0467 -0.5428
  214MOL    O5938825   6.222   3.044   7.464 -0.4158  0.3502  0.0763
  214MOL    O6038826   6.060   2.910   7.560  0.2162 -0.7184  0.4238
  214MOL    H6138827   5.992   3.140   7.650 -0.7279 -0.3779  1.3930
  214MOL    H6238828   6.250   3.048   7.785  0.9157  1.2205 -1.3015
  214MOL    H6338829   6.153   3.163   7.872  2.2730 -0.2009 -0.1537
  214MOL    H6438830   6.077   3.015   7.817 -0.2925  0.1654  0.7501
  214MOL    C6538831   6.085   2.780   7.488  0.6846 -0.0547 -0.1555
  214MOL    C6638832   5.949   2.741   7.459 -0.5149 -1.0828  0.1071
  214MOL    C6738833   6.164   2.698   7.583 -0.4024 -0.0254 -0.0706
  214MOL    O6838834   6.118   2.593   7.624  0.1036  0.0004 -0.1722
  214MOL    O6938835   6.284   2.746   7.615  0.5765 -0.5458 -0.2384
  214MOL    H7038836   6.148   2.798   7.401 -1.0025 -1.2437 -1.6589
  214MOL    H7138837   5.893   2.824   7.415 -0.1502 -0.1174  1.4549
  214MOL    H7238838   5.942   2.652   7.396 -3.4914 -0.3114 -0.7487
  214MOL    H7338839   5.899   2.714   7.553 -3.9428 -2.5367 -2.0042
  214MOL    C7438840   6.378   2.659   7.688 -1.3339  0.5999  0.1988
  214MOL    C7538841   6.507   2.733   7.719  0.1305  0.3093  0.1394
  214MOL    C7638842   6.408   2.533   7.612 -0.3476  0.0582  0.6007
  214MOL    O7738843   6.397   2.423   7.667  0.1737  0.3560  0.2382
  214MOL    O7838844   6.448   2.545   7.483 -0.4478  0.4496  0.0672
  214MOL    H7938845   6.321   2.650   7.780  1.8465 -1.7869  2.0459
  214MOL    H8038846   6.565   2.679   7.794 -1.9344 -1.0932  0.7770
  214MOL    H8138847   6.577   2.756   7.639 -1.3074 -0.1642 -1.2867
  214MOL    H8238848   6.483   2.826   7.770 -0.7130  0.3461 -0.3154
  214MOL    C8338849   6.440   2.446   7.392 -0.2969  0.4639 -0.2761
  214MOL    C8438850   6.587   2.431   7.331  0.6956  0.8671 -0.2588
  214MOL    C8538851   6.343   2.482   7.279 -0.7699 -0.2451 -0.0299
  214MOL    O8638852   6.299   2.599   7.273  0.0052  0.2718  0.2080
  214MOL    O8738853   6.329   2.382   7.191 -0.8027  0.4084 -0.3768
  214MOL    H8838854   6.409   2.350   7.434  3.4977 -0.1183  1.4506
  214MOL    H8938855   6.586   2.346   7.263  4.8423  1.4731 -1.2302
  214MOL    H9038856   6.622   2.512   7.267  0.8240  0.2660 -0.9603
  214MOL    H9138857   6.668   2.405   7.399 -0.3039  1.6840  1.2713
  214MOL    C9238858   6.287   2.398   7.059 -0.3811  0.3145 -0.4704
  214MOL    C9338859   6.222   2.256   7.018 -0.0410 -0.0970  1.0697
  214MOL    C9438860   6.394   2.457   6.970  0.3013  0.3668  0.0915
  214MOL    O9538861   6.507   2.478   7.010  0.5585  0.0473 -0.4045
  214MOL    O9638862   6.355   2.470   6.839  0.0572 -0.0582 -0.1956
  214MOL    H9738863   6.205   2.469   7.053 -0.1300  0.8192  1.7013
  214MOL    H9838864   6.203   2.255   6.910  2.5265  3.0862  0.5178
  214MOL    H9938865   6.293   2.175   7.034  0.5784  0.1509 -0.3535
  214MOL   H10038866   6.130   2.233   7.072  0.1499 -3.1535  0.2374
  214MOL   C10138867   6.449   2.488   6.742 -0.2529 -0.2554 -0.7861
  214MOL   C10238868   6.450   2.635   6.704 -0.4503 -0.7887 -0.1179
  214MOL   C10338869   6.416   2.403   6.622  0.5106  0.1142  0.7022
  214MOL   O10438870   6.301   2.370   6.597  0.4423  0.0420 -0.2963
  214MOL   O10538871   6.527   2.365   6.555  0.0486 -0.1268 -0.3972
  214MOL   H10638872   6.547   2.453   6.774  0.2353  2.4463  0.8810
  214MOL   H10738873   6.508   2.658   6.614  2.6233 -1.1029  1.7337
  214MOL   H10838874   6.351   2.679   6.699  0.1920  0.6511 -0.3561
  214MOL   H10938875   6.506   2.687   6.781  0.6444 -1.8318 -0.1987
  214MOL   C11038876   6.512   2.315   6.421 -0.3339  0.3331  0.4563
  214MOL   C11138877   6.658   2.279   6.380  0.2394  0.5723  0.0217
  214MOL   C11238878   6.452   2.425   6.332  0.1623 -0.2475 -0.1785
  214MOL   O11338879   6.479   2.549   6.350  0.2194  0.1038 -0.3934
  214MOL   O11438880   6.370   2.375   6.230 -0.1462  0.7998  0.6954
  214MOL   H11538881   6.455   2.223   6.418  3.3594 -2.1687  2.2773
  214MOL   H11638882   6.712   2.228   6.460  0.1609  1.5303  0.6883
  214MOL   H11738883   6.656   2.216   6.291  0.7288  1.5176 -0.6672
  214MOL   H11838884   6.712   2.371   6.360 -2.2103  1.9710 -0.3576
  214MOL   C11938885   6.320   2.461   6.130 -0.1408 -0.5454  0.9942
  214MOL   C12038886   6.424   2.537   6.041  0.3198 -0.1629  0.2133
  214MOL   C12138887   6.218   2.560   6.198  0.0151  0.0824  0.0502
  214MOL   O12238888   6.228   2.687   6.188  0.6418  0.6335 -0.1425
  214MOL   O12338889   6.125   2.491   6.260 -0.1960  0.4797  0.1827
  214MOL   H12438890   6.267   2.401   6.057 -1.2300  0.0125  1.3140
  214MOL   H12538891   6.475   2.611   6.103 -0.7566  0.0473  0.8576
  214MOL   H12638892   6.502   2.478   5.992 -0.0665  1.3525 -2.3039
  214MOL   H12738893   6.368   2.601   5.973 -0.3018 -1.2803 -0.3461
  214MOL   C12838894   6.007   2.552   6.321  0.6520 -0.8986 -0.1447
  214MOL   C12938895   5.964   2.449   6.427  0.0458  0.2484 -0.0069
  214MOL   C13038896   5.894   2.585   6.222  0.4979 -0.1480 -0.5346
  214MOL   O13138897   5.777   2.542   6.237 -0.4553 -0.2690  0.1698
  214MOL   O13238898   5.939   2.654   6.113 -0.4134 -0.6988 -0.0016
  214MOL   H13338899   6.035   2.649   6.362 -0.5747 -0.2848 -0.7213
  214MOL   H13438900   5.967   2.349   6.383 -0.0200  0.0915  0.3405
  214MOL   H13538901   6.028   2.460   6.515  1.1007  1.6044 -0.9315
  214MOL   H13638902   5.861   2.459   6.462 -1.3005 -1.0065 -3.4220
  214MOL   C13738903   5.854   2.671   6.005 -0.0873  0.4442  0.0718
  214MOL   C13838904   5.939   2.697   5.876  0.1818 -0.5783 -0.6919
  214MOL   C13938905   5.748   2.780   6.036  0.3116 -0.3816 -0.3768
  214MOL   O14038906   5.764   2.876   6.115  0.1912  0.5461  1.1320
  214MOL   O14138907   5.640   2.760   5.964  0.7604 -0.1420  0.0180
  214MOL   H14238908   5.794   2.583   5.984 -0.5896  0.6289  0.7212
  214MOL   H14338909   5.884   2.735   5.790  0.3118  0.9888 -0.0907
  214MOL   H14438910   6.011   2.777   5.893  2.4612 -2.8949  1.0427
  214MOL   H14538911   5.983   2.603   5.840  0.8890  0.0388 -1.4536
  214MOL   C14638912   5.542   2.861   5.942 -0.2014  0.3734  0.5262
  214MOL   C14738913   5.416   2.792   5.879  0.0510  0.5888 -0.0627
  214MOL   C14838914   5.601   2.965   5.853 -0.2559 -0.6834 -0.3635
  214MOL   O14938915   5.704   2.938   5.793 -0.0466  0.0183 -0.7678
  214MOL   O15038916   5.529   3.074   5.847  0.2213 -0.3012  0.2258
  214MOL   H15138917   5.523   2.899   6.043  0.7003  2.8601 -0.1995
  214MOL   H15238918   5.447   2.719   5.804 -0.2306 -0.4978  0.8520
  214MOL   H15338919   5.378   2.716   5.947  0.4402  0.9408  0.5495
  214MOL   H15438920   5.345   2.862   5.835 -1.3400 -1.3525 -0.9782
  214MOL   C15538921   5.552   3.178   5.757 -0.0899  0.0847  0.3000
  214MOL   C15638922   5.471   3.304   5.805  0.2063  0.0036 -0.1960
  214MOL   C15738923   5.520   3.145   5.610 -0.0052 -0.3812 -0.0602
  214MOL   O15838924   5.581   3.201   5.522  0.4570 -0.1030 -0.6703
  214MOL   O15938925   5.428   3.046   5.581 -0.1460  0.2372 -0.3674
  214MOL   H16038926   5.657   3.204   5.741 -0.3917  1.1829  0.0314
  214MOL   H16138927   5.465   3.383   5.730  1.9304  0.2399 -0.0989
  214MOL   H16238928   5.376   3.275   5.851  1.0257 -2.6462 -0.0659
  214MOL   H16338929   5.535   3.342   5.884  0.7108  0.6862 -0.9215
  214MOL   C16438930   5.396   3.022   5.443  0.2123  0.1465 -0.1408
  214MOL   C16538931   5.285   3.117   5.393  0.0561 -0.2911 -0.5971
  214MOL   C16638932   5.369   2.877   5.418 -0.4100  0.1624  0.4315
  214MOL   O16738933   5.461   2.804   5.389 -0.2266  0.3390 -0.3112
  214MOL   O16838934   5.243   2.840   5.441  0.3053 -0.1941 -0.0918
  214MOL   H16938935   5.480   3.030   5.374  0.1508  1.3474 -0.0739
  214MOL   H17038936   5.327   3.217   5.385 -0.9867  0.2432  0.4189
  214MOL   H17138937   5.234   3.086   5.302 -0.4602  1.9651 -1.1060
  214MOL   H17238938   5.201   3.119   5.463  0.0870  0.3115 -0.5776
  214MOL   C17338939   5.207   2.708   5.390 -0.3459  0.0026 -0.4953
  214MOL   C17438940   5.061   2.707   5.350  0.7782 -0.1970 -0.2313
  214MOL   C17538941   5.245   2.604   5.499  0.6116  0.5435 -0.1133
  214MOL   O17638942   5.304   2.497   5.476 -0.1396 -0.2657 -0.1656
  214MOL   O17738943   5.197   2.639   5.619  0.5306 -0.1938  0.4272
  214MOL   H17838944   5.268   2.690   5.302  3.1960 -2.2071  2.2844
  214MOL   H17938945   5.001   2.737   5.436  0.8367 -0.8779  0.0522
  214MOL   H18038946   5.056   2.777   5.266 -0.9728  0.8328  0.7049
  214MOL   H18138947   5.024   2.611   5.313 -2.1478  0.7614  0.0854
  214MOL   H18238948   5.216   2.568   5.679 -1.6987 -0.3721  1.0034
  215MOL     C138949   0.580   7.818   7.614 -0.3905 -0.3445 -0.5929
  215MOL     C238950   0.703   7.732   7.607 -0.8940 -0.0733  0.3613
  215MOL     C338951   0.508   7.821   7.747  0.1428  0.2691 -0.4284
  215MOL     O438952   0.431   7.731   7.772  0.1111 -0.3415  0.8055
  215MOL     O538953   0.525   7.937   7.812 -0.6387 -0.1784  0.0578
  215MOL     H638954   0.604   7.921   7.585  0.0238  0.2794  1.8372
  215MOL     H738955   0.767   7.754   7.692 -1.0004  1.2754  0.0960
  215MOL     H838956   0.679   7.626   7.616 -3.8263  0.6227  1.3327
  215MOL     H938957   0.754   7.737   7.510 -0.2740  1.9045  0.7716
  215MOL    H1038958   0.511   7.780   7.539 -0.8533 -2.7411  0.9861
  215MOL    C1138959   0.424   7.964   7.906  0.3460 -0.3370  0.3688
  215MOL    C1238960   0.432   8.116   7.907  0.4079  0.1173  0.4109
  215MOL    C1338961   0.453   7.902   8.043 -0.5464  0.4270 -0.1105
  215MOL    O1438962   0.545   7.829   8.072 -0.8575 -0.2880  0.1822
  215MOL    O1538963   0.359   7.933   8.133  0.0311 -0.2414 -0.1393
  215MOL    H1638964   0.321   7.948   7.873  0.2234 -2.1632  1.5770
  215MOL    H1738965   0.352   0.020   7.960  0.1821  1.0524 -0.8000
  215MOL    H1838966   0.529   0.009   7.937  1.1290 -1.8162  0.7401
  215MOL    H1938967   0.425   0.007   7.805 -0.3655  2.7204  1.3867
  215MOL    C2038968   0.364   7.884   0.118 -0.2072  0.0936  0.2179
  215MOL    C2138969   0.306   7.741   0.136  0.1660 -0.4986 -0.0987
  215MOL    C2238970   0.293   7.984   0.209  0.0300  0.1020  0.5781
  215MOL    O2338971   0.174   7.965   0.243  0.3328 -0.3401  0.6048
  215MOL    O2438972   0.370   8.097   0.245  0.3469 -0.2228  0.4315
  215MOL    H2538973   0.464   7.879   0.161 -0.2632  3.3739  0.8415
  215MOL    H2638974   0.373   7.676   0.079 -0.8969 -2.2844  0.6796
  215MOL    H2738975   0.312   7.689   0.231 -2.9167 -1.4278 -0.3858
  215MOL    H2838976   0.203   7.739   0.102  0.5363 -0.9769 -1.2445
  215MOL    C2938977   0.306   0.053   0.319 -0.3403  0.2678  0.1138
  215MOL    C3038978   0.381   0.183   0.281 -0.3062  0.3585 -0.0086
  215MOL    C3138979   0.307   0.020   0.466 -0.5516  0.0176  0.7540
  215MOL    O3238980   0.369   8.074   0.527  0.1379 -0.1560 -0.4362
  215MOL    O3338981   0.218   0.106   0.524  0.0620  0.5825 -0.2472
  215MOL    H3438982   0.203   0.058   0.284  0.0302 -0.1919 -1.1017
  215MOL    H3538983   0.476   0.174   0.335  0.7110  2.3347 -1.3909
  215MOL    H3638984   0.406   0.191   0.175 -0.8376 -2.3373 -0.3837
  215MOL    H3738985   0.333   0.274   0.315 -1.6255  0.1317 -1.2221
  215MOL    C3838986   0.213   0.121   0.663 -0.4839 -0.6762 -0.2087
  215MOL    C3938987   0.089   0.207   0.685  0.5803  0.1274  0.0651
  215MOL    C4038988   0.340   0.189   0.710 -0.7766  0.5085 -0.5213
  215MOL    O4138989   0.401   0.147   0.805  0.0640  0.4201  0.0081
  215MOL    O4238990   0.369   0.298   0.636 -0.6282  0.3133 -0.5175
  215MOL    H4338991   0.211   0.039   0.735  1.0163  0.8538  1.6620
  215MOL    H4438992   0.050   0.191   0.786  0.3389 -1.0658 -0.2100
  215MOL    H4538993   0.121   0.311   0.676 -0.5025  0.3509 -1.4174
  215MOL    H4638994   0.007   0.200   0.613  0.2290  0.8518  0.3880
  215MOL    C4738995   0.495   0.370   0.646  1.1799  0.8709 -0.2796
  215MOL    C4838996   0.598   0.303   0.566 -0.3730  0.6008  1.2414
  215MOL    C4938997   0.535   0.413   0.790  0.0989 -0.3072 -0.0329
  215MOL    O5038998   0.649   0.411   0.827 -0.3760 -0.0972  0.1096
  215MOL    O5138999   0.425   0.447   0.861  0.1330 -0.6835  0.2184
  215MOL    H5239000   0.465   0.457   0.588  1.9816 -0.3129 -2.5155
  215MOL    H5339001   0.698   0.309   0.610  0.5165 -1.1669 -0.4824
  215MOL    H5439002   0.576   0.203   0.528 -1.5753  2.2858 -2.7033
  215MOL    H5539003   0.605   0.369   0.480  0.9524  0.6285  1.3608
  215MOL    C5639004   0.436   0.511   0.985 -0.4157 -0.3214 -0.0505
  215MOL    C5739005   0.295   0.511   1.023 -0.0437  0.5112  0.2552
  215MOL    C5839006   0.494   0.654   0.975  0.0992 -0.0305 -0.2321
  215MOL    O5939007   0.588   0.691   1.048 -0.0129 -0.2256 -0.0713
  215MOL    O6039008   0.432   0.733   0.882  0.4539 -0.0674  0.5949
  215MOL    H6139009   0.485   0.440   1.052  2.2145  0.6039 -0.9052
  215MOL    H6239010   0.278   0.544   1.125 -0.7097  0.8964  0.0253
  215MOL    H6339011   0.234   0.581   0.966 -1.2763 -1.6438 -1.1510
  215MOL    H6439012   0.245   0.414   1.026 -0.6491  0.8252  0.4112
  215MOL    C6539013   0.476   0.864   0.855 -0.0421  0.0356 -0.5950
  215MOL    C6639014   0.412   0.929   0.729 -0.8675  0.5363  0.6458
  215MOL    C6739015   0.628   0.879   0.819  0.4595 -0.1384 -0.4942
  215MOL    O6839016   0.691   0.986   0.837  0.3104  1.0736  0.5258
  215MOL    O6939017   0.670   0.774   0.756  0.3677  0.5633  0.2237
  215MOL    H7039018   0.465   0.922   0.946  1.0688 -1.4029  0.4748
  215MOL    H7139019   0.305   0.907   0.737 -1.0386  1.5312  1.3233
  215MOL    H7239020   0.425   1.037   0.728 -0.1586  0.4408 -0.5211
  215MOL    H7339021   0.438   0.878   0.637  1.3981  2.1087  0.3969
  215MOL    C7439022   0.806   0.764   0.717 -0.2717  0.1868  0.3535
  215MOL    C7539023   0.804   0.662   0.604 -0.1985 -0.0386  0.4675
  215MOL    C7639024   0.893   0.725   0.833 -0.2233  0.8986  0.1938
  215MOL    O7739025   0.948   0.615   0.831 -0.8727  0.1810 -0.1458
  215MOL    O7839026   0.910   0.818   0.928  0.1832 -0.1345  0.0581
  215MOL    H7939027   0.846   0.860   0.685 -1.0139  0.0685 -0.9694
  215MOL    H8039028   0.737   0.690   0.523 -0.8037 -1.5482  0.4431
  215MOL    H8139029   0.906   0.632   0.579 -0.3522  0.9838 -1.5058
  215MOL    H8239030   0.761   0.574   0.652  2.0664 -1.5376 -0.1799
  215MOL    C8339031   0.970   0.785   1.053  0.2675  0.0867  0.6634
  215MOL    C8439032   0.900   0.857   1.168 -0.0813 -0.0168  0.2291
  215MOL    C8539033   1.119   0.803   1.052  0.2027  0.0070 -0.4657
  215MOL    O8639034   1.165   0.912   1.084 -0.4847 -0.0874  0.2189
  215MOL    O8739035   1.188   0.699   0.990  0.1043 -0.3154 -0.0930
  215MOL    H8839036   0.953   0.680   1.074 -2.2234  0.5233  0.9997
  215MOL    H8939037   0.810   0.799   1.189  0.0645 -0.1108  0.6069
  215MOL    H9039038   0.968   0.865   1.253 -1.4221  0.0894  1.3009
  215MOL    H9139039   0.877   0.956   1.131  1.7157  0.9039  1.5014
  215MOL    C9239040   1.324   0.706   0.947 -0.3933  0.3760 -0.0284
  215MOL    C9339041   1.341   0.575   0.856  0.0672  0.2368  0.3915
  215MOL    C9439042   1.426   0.698   1.060  0.3543  0.6108 -0.3648
  215MOL    O9539043   1.398   0.680   1.177  0.3852 -0.0732  0.3715
  215MOL    O9639044   1.554   0.707   1.019 -0.2064 -0.3062 -0.0936
  215MOL    H9739045   1.334   0.799   0.890  1.1666  1.6735  2.2907
  215MOL    H9839046   1.373   0.486   0.909 -0.5844  0.3245  0.9318
  215MOL    H9939047   1.260   0.548   0.788  0.6329  0.3151 -0.3175
  215MOL   H10039048   1.422   0.602   0.788  1.4832 -0.0104  1.9449
  215MOL   C10139049   1.657   0.685   1.114  0.1558 -0.3883  0.2431
  215MOL   C10239050   1.795   0.735   1.062 -0.7005  0.0364  0.8091
  215MOL   C10339051   1.669   0.545   1.170  0.3426 -0.2181 -0.0126
  215MOL   O10439052   1.663   0.528   1.292  0.1191 -0.5451  0.6869
  215MOL   O10539053   1.673   0.452   1.066 -0.1383  0.0971  0.0340
  215MOL   H10639054   1.645   0.750   1.200  1.3747 -0.7792  0.7171
  215MOL   H10739055   1.813   0.688   0.965  0.4269 -0.5086  1.2839
  215MOL   H10839056   1.801   0.843   1.055  2.7161 -0.1830 -0.7101
  215MOL   H10939057   1.872   0.707   1.134 -1.6368 -3.2008  0.6426
  215MOL   C11039058   1.664   0.313   1.096 -0.4590 -0.1377  0.0609
  215MOL   C11139059   1.680   0.227   0.970 -0.1266  0.0189 -0.0373
  215MOL   C11239060   1.519   0.280   1.148  0.7029  0.0178  0.7050
  215MOL   O11339061   1.431   0.359   1.126 -0.1477 -0.1312 -0.0895
  215MOL   O11439062   1.507   0.157   1.211 -0.1345  0.0753  0.0887
  215MOL   H11539063   1.731   0.286   1.178 -1.3572  0.7763  1.1083
  215MOL   H11639064   1.769   0.250   0.911 -1.3607 -2.9022 -3.2317
  215MOL   H11739065   1.686   0.120   0.990 -2.5142 -0.6732 -2.7238
  215MOL   H11839066   1.598   0.252   0.903 -0.8776  2.0374  1.5714
  215MOL   C11939067   1.382   0.116   1.275 -0.2240  0.1679 -0.0294
  215MOL   C12039068   1.410   0.060   1.416 -0.2305  0.5136  0.6306
  215MOL   C12139069   1.317   0.012   1.177 -0.1636 -0.4103  0.7361
  215MOL   O12239070   1.390   8.093   1.096  0.1379  0.5062  0.5087
  215MOL   O12339071   1.191   0.003   1.192  0.2675  0.2134  0.3801
  215MOL   H12439072   1.317   0.204   1.274 -1.5471 -0.7685 -3.3986
  215MOL   H12539073   1.388   0.135   1.492 -3.6169  0.8622 -0.6010
  215MOL   H12639074   1.331   8.134   1.433  1.3781 -1.1478  1.0331
  215MOL   H12739075   1.500   0.005   1.441 -1.5260 -1.3420  1.3426
  215MOL   C12839076   1.120   8.056   1.111 -0.0898  0.7862  0.6044
  215MOL   C12939077   0.978   8.110   1.088 -0.5588  0.1804  0.0209
  215MOL   C13039078   1.114   7.925   1.185  0.3071 -0.3625 -0.1954
  215MOL   O13139079   1.154   7.905   1.298 -0.2594 -0.1155  0.2115
  215MOL   O13239080   1.061   7.831   1.108 -0.4979  0.3146 -0.4311
  215MOL   H13339081   1.170   8.047   1.014 -2.1225 -0.7813 -0.3424
  215MOL   H13439082   0.978   0.058   1.036 -0.8460 -0.0509 -0.4024
  215MOL   H13539083   0.930   8.036   1.024  1.2959  0.6144 -1.9180
  215MOL   H13639084   0.919   8.117   1.180 -0.4212 -0.5549  0.1711
  215MOL   C13739085   0.991   7.726   1.167 -0.3059 -0.6187 -0.7053
  215MOL   C13839086   0.945   7.638   1.052  0.2555 -0.4822  0.7405
  215MOL   C13939087   0.872   7.772   1.257  0.1766 -0.4323 -0.0873
  215MOL   O14039088   0.878   7.772   1.384 -1.0460  0.3144  0.1876
  215MOL   O14139089   0.766   7.810   1.186 -0.1396  0.0369 -0.9142
  215MOL   H14239090   1.065   7.667   1.221  2.3927  2.0283 -1.3486
  215MOL   H14339091   0.909   7.543   1.092 -1.6650  0.2749  0.8749
  215MOL   H14439092   0.864   7.668   0.986  2.0051 -0.3014 -1.3730
  215MOL   H14539093   1.034   7.626   0.990  0.2731  0.7762  0.4927
  215MOL   C14639094   0.652   7.865   1.251  0.7220  0.0666 -0.2011
  215MOL   C14739095   0.564   7.754   1.312  0.8532 -0.6845  0.1671
  215MOL   C14839096   0.581   7.933   1.135  0.6414 -0.1600 -0.2342
  215MOL   O14939097   0.473   7.893   1.087  0.5334  0.2062  0.0891
  215MOL   O15039098   0.635   8.054   1.104 -0.3548 -0.0401  0.4386
  215MOL   H15139099   0.685   7.940   1.323  0.7673 -2.0659  2.0946
  215MOL   H15239100   0.468   7.800   1.333  2.0223  0.9677  2.1060
  215MOL   H15339101   0.548   7.670   1.245 -0.8339 -0.8774  0.7769
  215MOL   H15439102   0.612   7.713   1.401  1.8071  2.7156  1.3114
  215MOL   C15539103   0.551   0.009   1.061  0.1370 -0.1060 -0.0261
  215MOL   C15639104   0.646   0.125   1.035  0.0908 -0.0114  0.3508
  215MOL   C15739105   0.433   0.040   1.161  0.1259 -0.0642  0.3010
  215MOL   O15839106   0.451   0.026   1.278  0.2173 -0.4439 -0.3079
  215MOL   O15939107   0.325   0.081   1.104 -0.4096 -0.0060 -0.5025
  215MOL   H16039108   0.512   8.142   0.960  0.6449 -1.0741 -0.0801
  215MOL   H16139109   0.613   0.189   0.953 -0.8039  0.0596  0.7672
  215MOL   H16239110   0.660   0.181   1.127 -1.0117 -0.9429  1.0908
  215MOL   H16339111   0.747   0.103   1.000 -0.3040 -0.8379 -0.2900
  215MOL   C16439112   0.203   0.108   1.177  0.2600 -0.2798  0.2760
  215MOL   C16539113   0.090   0.126   1.084 -0.2684 -0.9096 -0.1552
  215MOL   C16639114   0.215   0.228   1.271 -0.2949  0.3696  0.0500
  215MOL   O16739115   0.308   0.306   1.263 -0.5433 -0.4342 -0.2853
  215MOL   O16839116   0.109   0.241   1.355 -0.2810 -0.2345  0.7746
  215MOL   H16939117   0.175   0.022   1.239 -2.6190  1.5288  1.6182
  215MOL   H17039118   0.133   0.199   1.015 -0.4265  0.0886  0.8018
  215MOL   H17139119   0.071   0.027   1.042  1.1731 -1.7909  1.2106
  215MOL   H17239120   8.144   0.159   1.128 -0.1373  0.3733 -0.8088
  215MOL   C17339121   0.108   0.345   1.458 -0.5736  0.4064  0.1631
  215MOL   C17439122   8.143   0.308   1.565 -0.6779  0.6437 -0.3869
  215MOL   C17539123   0.082   0.480   1.389 -0.1862  0.1803  0.3774
  215MOL   O17639124   0.158   0.574   1.412  0.3162  0.2092 -0.2371
  215MOL   O17739125   8.119   0.489   1.313 -0.0558 -0.3411  0.2832
  215MOL   H17839126   0.209   0.341   1.500  0.4193 -2.3409 -2.2447
  215MOL   H17939127   8.122   0.392   1.632 -0.9403 -0.0166  0.3640
  215MOL   H18039128   8.045   0.298   1.519 -1.3948 -0.1010  1.2410
  215MOL   H18139129   0.015   0.216   1.620 -1.8136 -0.3586 -1.6410
  215MOL   H18239130   8.143   0.574   1.279  0.8589 -1.2226 -1.3400
  216MOL     C139131   1.566   7.660   5.800 -0.3196  0.8602  0.6610
  216MOL     C239132   1.686   7.636   5.706 -0.7671  0.3225  0.0111
  216MOL     C339133   1.576   7.580   5.930  0.0459 -0.4743 -0.3584
  216MOL     O439134   1.549   7.626   6.043  0.4340  0.4635 -0.3848
  216MOL     O539135   1.600   7.449   5.911 -0.5778 -0.7584  0.4685
  216MOL     H639136   1.571   7.767   5.822 -1.6633  1.5192 -1.9555
  216MOL     H739137   1.783   7.650   5.752  0.3798 -0.6562 -2.0321
  216MOL     H839138   1.689   7.531   5.676 -0.2670 -0.2316  1.9736
  216MOL     H939139   1.679   7.687   5.610 -0.4826 -2.3208 -1.4662
  216MOL    H1039140   1.470   7.632   5.757 -0.3344 -1.2380  2.0193
  216MOL    C1139141   1.593   7.360   6.023  0.4199  0.8120  0.0081
  216MOL    C1239142   1.679   7.236   6.004 -0.5389  0.3724 -0.4624
  216MOL    C1339143   1.443   7.321   6.046  0.7666  0.6953 -0.4296
  216MOL    O1439144   1.384   7.341   6.151  0.0825 -0.5356 -0.2405
  216MOL    O1539145   1.385   7.270   5.923  0.4149 -0.1481  0.6810
  216MOL    H1639146   1.624   7.414   6.112 -1.0096  0.2436  0.8658
  216MOL    H1739147   1.635   7.168   5.932 -0.4872 -1.3176  1.0780
  216MOL    H1839148   1.785   7.256   5.988 -0.2009 -0.1551  1.0405
  216MOL    H1939149   1.683   7.175   6.094  1.6452 -0.3591 -1.0108
  216MOL    C2039150   1.241   7.272   5.913  0.5942  0.0780 -0.8922
  216MOL    C2139151   1.187   7.141   5.977 -0.2829 -0.5587 -0.0949
  216MOL    C2239152   1.201   7.280   5.762  1.0679  0.0865 -0.7061
  216MOL    O2339153   1.282   7.245   5.674  0.2204 -0.1313  0.5173
  216MOL    O2439154   1.079   7.331   5.739 -0.2892  0.7258 -0.0649
  216MOL    H2539155   1.194   7.357   5.963  0.2281 -0.2757 -0.6344
  216MOL    H2639156   1.246   7.059   5.935  1.2939  1.1530 -1.3051
  216MOL    H2739157   1.213   7.141   6.082  0.9474 -2.7904 -0.3680
  216MOL    H2839158   1.081   7.121   5.963 -0.3478 -1.5147  1.6498
  216MOL    C2939159   1.016   7.316   5.613 -0.6062 -0.4600  0.2104
  216MOL    C3039160   0.919   7.432   5.598  0.8946 -0.1858  0.1535
  216MOL    C3139161   0.961   7.176   5.601 -0.2683  0.2611  0.0964
  216MOL    O3239162   0.958   7.121   5.491 -0.0309 -0.0011 -0.5806
  216MOL    O3339163   0.902   7.131   5.714  0.5530 -0.5539 -0.9365
  216MOL    H3439164   1.095   7.328   5.538 -1.2991 -1.9610 -0.7752
  216MOL    H3539165   0.856   7.455   5.684 -0.6663 -1.9796 -0.4638
  216MOL    H3639166   0.973   7.524   5.575  0.2785 -0.2599 -1.7018
  216MOL    H3739167   0.854   7.409   5.513  1.6249 -2.8392  0.2576
  216MOL    C3839168   0.818   7.022   5.694  0.5277  0.2232 -0.6455
  216MOL    C3939169   0.675   7.077   5.662 -0.3527  0.3055  0.1676
  216MOL    C4039170   0.823   6.935   5.822 -0.2974 -0.1243 -0.0360
  216MOL    O4139171   0.724   6.921   5.895  0.1097 -0.0975  0.4053
  216MOL    O4239172   0.940   6.876   5.849  0.0647  0.3475 -0.7284
  216MOL    H4339173   0.856   6.955   5.617 -0.4833 -2.5351  1.1735
  216MOL    H4439174   0.631   7.130   5.746 -0.7712  0.1672  0.0350
  216MOL    H4539175   0.680   7.149   5.580 -3.4422 -1.4076 -1.6223
  216MOL    H4639176   0.598   7.007   5.632 -0.2172  0.7344 -1.2646
  216MOL    C4739177   0.956   6.786   5.957 -0.6177 -0.0653  0.0463
  216MOL    C4839178   1.104   6.764   5.952 -0.2130 -0.3919  0.8990
  216MOL    C4939179   0.882   6.648   5.926 -0.4182 -0.1775 -0.5677
  216MOL    O5039180   0.783   6.617   5.991 -0.8530 -0.2433  0.6765
  216MOL    O5139181   0.944   6.571   5.826  0.1135 -0.3831  0.4072
  216MOL    H5239182   0.918   6.821   6.053 -0.0123  4.3489 -1.2121
  216MOL    H5339183   1.136   6.683   6.018  1.8505 -0.1925  0.1796
  216MOL    H5439184   1.141   6.731   5.854 -1.7868 -2.1894  0.8890
  216MOL    H5539185   1.157   6.854   5.983  1.0686 -0.4789 -0.9517
  216MOL    C5639186   0.876   6.458   5.766 -0.2468  0.3943 -0.1504
  216MOL    C5739187   0.982   6.360   5.732 -0.2666  0.0401  0.0932
  216MOL    C5839188   0.805   6.508   5.634 -0.6107 -0.1877  0.5575
  216MOL    O5939189   0.828   6.621   5.591 -0.1273  0.6414  0.3574
  216MOL    O6039190   0.714   6.416   5.590 -0.1557 -0.3523  0.3834
  216MOL    H6139191   0.802   6.418   5.836 -1.6662 -0.0042 -1.8348
  216MOL    H6239192   1.047   6.398   5.653 -0.8885  0.2734 -0.3011
  216MOL    H6339193   1.052   6.345   5.815  0.7621  1.0627 -0.5713
  216MOL    H6439194   0.944   6.263   5.702  1.4862 -1.2455  1.8963
  216MOL    C6539195   0.657   6.439   5.466  0.9244 -0.4934 -0.2030
  216MOL    C6639196   0.527   6.351   5.453  0.0990 -0.4155  0.2111
  216MOL    C6739197   0.751   6.401   5.351 -0.6303  0.1848 -0.4580
  216MOL    O6839198   0.759   6.470   5.245 -0.5256 -0.2243  0.5257
  216MOL    O6939199   0.809   6.282   5.368 -0.4918  0.1401 -0.2540
  216MOL    H7039200   0.611   6.537   5.459  0.8123 -0.5439 -0.1864
  216MOL    H7139201   0.563   6.250   5.436  0.3259 -0.1574 -0.8775
  216MOL    H7239202   0.478   6.335   5.549  2.1117 -2.4200  0.9535
  216MOL    H7339203   0.457   6.394   5.381  0.0209  2.3080  1.8349
  216MOL    C7439204   0.915   6.237   5.286  0.2966 -0.3774 -0.4832
  216MOL    C7539205   1.034   6.330   5.312  0.0288  0.3107 -0.2789
  216MOL    C7639206   0.884   6.199   5.140  0.3339 -0.7004 -0.7826
  216MOL    O7739207   0.776   6.190   5.089 -0.2088 -0.1289  0.5681
  216MOL    O7839208   0.994   6.161   5.073  0.2170 -0.0717 -0.7809
  216MOL    H7939209   0.929   6.140   5.335 -0.1882  0.2065  0.8376
  216MOL    H8039210   1.119   6.309   5.247 -0.1157  0.0783 -0.3949
  216MOL    H8139211   1.011   6.431   5.279 -0.6741  0.4140  0.5089
  216MOL    H8239212   1.062   6.325   5.417 -0.9358 -1.7129 -0.0962
  216MOL    C8339213   0.992   6.126   4.936  0.5271  0.1684 -0.2250
  216MOL    C8439214   0.990   6.243   4.841  0.0040 -0.2426  0.2320
  216MOL    C8539215   0.887   6.018   4.899  0.4417  0.0958  0.2913
  216MOL    O8639216   0.787   6.042   4.828 -0.1752 -0.8114  0.3012
  216MOL    O8739217   0.916   5.899   4.952  0.1702  0.2363 -0.5876
  216MOL    H8839218   1.088   6.085   4.903  1.2380  2.2624 -0.8610
  216MOL    H8939219   0.900   6.300   4.865 -0.8740 -1.4170 -0.2724
  216MOL    H9039220   1.078   6.305   4.859 -1.1508  1.1238  1.2903
  216MOL    H9139221   0.990   6.220   4.735 -1.7185  0.5139  0.0500
  216MOL    C9239222   0.830   5.788   4.975  0.2357  0.2978  0.1557
  216MOL    C9339223   0.750   5.746   4.851  0.5260 -0.0960 -0.0589
  216MOL    C9439224   0.743   5.822   5.095 -0.0756 -0.5538  0.4923
  216MOL    O9539225   0.759   5.769   5.205  0.4384  0.1338  0.0228
  216MOL    O9639226   0.647   5.915   5.070  0.3677 -1.2532  0.7652
  216MOL    H9739227   0.897   5.711   5.015 -0.5068 -0.9349 -0.9258
  216MOL    H9839228   0.681   5.820   4.809 -0.3573  0.1071  1.7144
  216MOL    H9939229   0.816   5.707   4.774  1.0460  1.3294 -0.3576
  216MOL   H10039230   0.671   5.675   4.875 -1.7893  1.7507 -1.8789
  216MOL   C10139231   0.525   5.923   5.151 -0.0897 -0.0096  0.1341
  216MOL   C10239232   0.545   6.005   5.282 -0.5707 -0.1401 -0.7538
  216MOL   C10339233   0.458   5.783   5.180 -0.2598  0.3912  0.0777
  216MOL   O10439234   0.427   5.738   5.291  0.4908 -0.9118 -0.0622
  216MOL   O10539235   0.450   5.708   5.073 -0.3992 -0.0967  0.3329
  216MOL   H10639236   0.452   5.975   5.089  0.3052  0.9301  0.4490
  216MOL   H10739237   0.631   5.958   5.330  0.2352 -0.9378 -2.9112
  216MOL   H10839238   0.545   6.112   5.260  1.8946 -0.5887 -3.2924
  216MOL   H10939239   0.457   5.986   5.342 -0.7385 -0.9644 -1.2542
  216MOL   C11039240   0.367   5.594   5.065  0.2289  0.8793  0.0235
  216MOL   C11139241   0.411   5.515   4.942  0.0809 -0.1588  0.0051
  216MOL   C11239242   0.216   5.635   5.047  0.3905 -0.4573  0.5944
  216MOL   O11339243   0.184   5.752   5.056 -0.0240  0.1649 -0.6165
  216MOL   O11439244   0.129   5.540   5.007  0.0187 -0.5760  0.2815
  216MOL   H11539245   0.376   5.529   5.152  4.7610 -2.1997 -2.4976
  216MOL   H11639246   0.349   5.428   4.919  0.4845 -0.5873  0.5270
  216MOL   H11739247   0.405   5.577   4.852 -0.0419  3.6912  2.5597
  216MOL   H11839248   0.511   5.473   4.956  0.6278  0.9284 -0.6003
  216MOL   C11939249   8.146   5.577   4.952  0.0954  0.2847  0.5944
  216MOL   C12039250   8.037   5.577   5.056 -1.1502  0.6398  0.7608
  216MOL   C12139251   8.109   5.470   4.848 -1.1852  0.1818  0.7022
  216MOL   O12239252   8.006   5.404   4.857 -0.0518  0.2471 -0.7347
  216MOL   O12339253   0.048   5.465   4.745 -0.1506 -0.6786  1.0234
  216MOL   H12439254   0.008   5.669   4.895  4.3149 -0.6972 -0.4911
  216MOL   H12539255   7.943   5.585   5.002 -0.0157 -0.4985 -1.4599
  216MOL   H12639256   8.039   5.493   5.125  0.4751 -0.3602 -0.4714
  216MOL   H12739257   8.063   5.660   5.123 -0.6834  0.6083  0.6230
  216MOL   C12839258   0.042   5.359   4.646 -0.2567 -0.4791 -0.5695
  216MOL   C12939259   0.183   5.347   4.589  0.2723  0.4768 -0.4774
  216MOL   C13039260   8.091   5.401   4.535 -0.7715  0.0273 -0.3698
  216MOL   O13139261   8.075   5.519   4.501  0.0168 -0.3546 -0.2736
  216MOL   O13239262   8.029   5.304   4.471  0.2640 -0.5377 -0.1509
  216MOL   H13339263   0.011   5.264   4.690  1.0747 -0.9574 -0.6279
  216MOL   H13439264   0.262   5.331   4.663  0.8721  0.1547 -1.1858
  216MOL   H13539265   0.202   5.267   4.517 -2.3118  0.3760 -1.0773
  216MOL   H13639266   0.220   5.434   4.534  1.0009  1.4076  1.4022
  216MOL   C13739267   7.916   5.328   4.395 -0.4746  1.1157 -1.0076
  216MOL   C13839268   7.795   5.248   4.443 -0.4249  0.3020  0.2991
  216MOL   C13939269   7.950   5.288   4.251  0.1785 -0.3561 -0.1654
  216MOL   O14039270   7.991   5.168   4.224 -0.6282 -0.4549 -0.0457
  216MOL   O14139271   7.928   5.391   4.164 -0.1084 -0.1357 -0.1302
  216MOL   H14239272   7.883   5.432   4.394  0.9096  1.5762 -0.0904
  216MOL   H14339273   7.779   5.265   4.550 -0.9894 -0.8479  0.4003
  216MOL   H14439274   7.705   5.284   4.393 -0.0501  0.4015 -0.3003
  216MOL   H14539275   7.790   5.139   4.446 -2.3337  0.3437 -0.3338
  216MOL   C14639276   7.944   5.362   4.025 -0.7274 -0.3422  0.5620
  216MOL   C14739277   7.975   5.497   3.966  0.7307 -0.2702 -0.4019
  216MOL   C14839278   7.810   5.306   3.980 -0.7530  0.2919 -0.2045
  216MOL   O14939279   7.791   5.188   3.959 -0.4722 -0.5277  0.5346
  216MOL   O15039280   7.713   5.402   3.969 -0.5508 -0.4666  0.3080
  216MOL   H15139281   8.032   5.301   4.003  1.8369  3.7108 -1.0827
  216MOL   H15239282   7.891   5.567   3.972  0.5930 -0.3629 -1.1557
  216MOL   H15339283   8.059   5.539   4.022  1.2731 -2.3954  0.4307
  216MOL   H15439284   8.002   5.494   3.860 -2.8889 -1.8609 -1.3602
  216MOL   C15539285   7.572   5.376   3.982 -0.2122 -0.0767  0.3314
  216MOL   C15639286   7.493   5.458   3.875 -0.7027  0.2200 -0.5136
  216MOL   C15739287   7.521   5.406   4.121  0.0830 -0.0855  0.0140
  216MOL   O15839288   7.502   5.319   4.210 -0.5175  0.0317 -0.3162
  216MOL   O15939289   7.506   5.537   4.142 -0.4887 -0.4025 -0.0752
  216MOL   H16039290   7.541   5.275   3.955 -0.5115  0.3368 -0.9287
  216MOL   H16139291   7.386   5.473   3.891 -0.9113  0.6804 -2.2539
  216MOL   H16239292   7.545   5.554   3.869  0.5887 -0.4223  0.2335
  216MOL   H16339293   7.516   5.411   3.780 -1.4285 -0.1504 -0.5086
  216MOL   C16439294   7.476   5.597   4.268 -0.7675  0.3325 -0.0464
  216MOL   C16539295   7.410   5.734   4.256  0.5255 -0.0013  0.3303
  216MOL   C16639296   7.609   5.596   4.359 -0.4709 -0.7211  0.1625
  216MOL   O16739297   7.718   5.575   4.304  0.0033 -0.1207  0.6470
  216MOL   O16839298   7.593   5.627   4.487  0.0966 -0.3020 -0.2043
  216MOL   H16939299   7.405   5.541   4.329 -0.4747 -1.0776 -0.9653
  216MOL   H17039300   7.305   5.717   4.231  0.6957  0.4378 -0.7149
  216MOL   H17139301   7.416   5.792   4.348 -1.1442 -0.5015  0.7755
  216MOL   H17239302   7.449   5.791   4.172 -1.0877 -0.3911 -0.7056
  216MOL   C17339303   7.698   5.672   4.572 -0.1957  0.1943  0.0143
  216MOL   C17439304   7.730   5.561   4.662 -0.1409  0.1691  0.1504
  216MOL   C17539305   7.627   5.787   4.648 -0.1879 -0.4391  0.0376
  216MOL   O17639306   7.580   5.782   4.761  0.2538 -0.1199  0.3261
  216MOL   O17739307   7.624   5.898   4.574  0.0265  0.2779 -0.2752
  216MOL   H17839308   7.789   5.705   4.522  0.9907 -0.4431  1.6996
  216MOL   H17939309   7.766   5.474   4.607 -2.6901 -1.8937  1.6061
  216MOL   H18039310   7.818   5.581   4.723  0.4384  0.2868 -0.7184
  216MOL   H18139311   7.647   5.532   4.726 -0.1863 -1.0730 -0.4598
  216MOL   H18239312   7.685   5.907   4.502  1.8414  1.0823  1.3560
  217MOL     C139313   3.491   3.723   7.310  0.1165 -0.0586  0.8769
  217MOL     C239314   3.547   3.677   7.179  0.2406  0.6013 -0.6690
  217MOL     C339315   3.340   3.733   7.312  0.7025  0.2641  0.0113
  217MOL     O439316   3.277   3.673   7.398  0.0967 -0.6822 -0.1523
  217MOL     O539317   3.286   3.816   7.226  0.0239 -0.7851  0.6623
  217MOL     H639318   3.511   3.652   7.390  0.6376 -0.5325  0.3245
  217MOL     H739319   3.509   3.748   7.106  0.2307  1.3443  0.0441
  217MOL     H839320   3.655   3.669   7.169  0.2539 -0.2818  0.1396
  217MOL     H939321   3.505   3.585   7.140 -0.6909 -0.6069  2.9444
  217MOL    H1039322   3.546   3.814   7.334 -0.7308  0.3436  1.2992
  217MOL    C1139323   3.146   3.830   7.214  0.1247  0.9675  0.6792
  217MOL    C1239324   3.116   3.894   7.081 -0.7013  0.2160  1.1587
  217MOL    C1339325   3.092   3.925   7.320  0.1622 -1.1445 -0.2797
  217MOL    O1439326   3.107   4.047   7.311  0.0309  1.1105 -0.3336
  217MOL    O1539327   3.033   3.864   7.416  0.1110  0.2524 -0.2565
  217MOL    H1639328   3.093   3.738   7.238 -1.3959  1.4072 -0.8501
  217MOL    H1739329   3.180   3.981   7.067  0.7139 -1.0695 -0.4614
  217MOL    H1839330   3.131   3.824   7.000 -2.4846  0.0503  0.9478
  217MOL    H1939331   3.010   3.919   7.073 -0.4117  0.6433 -1.7198
  217MOL    C2039332   2.958   3.932   7.517  0.3368  0.1379  0.0727
  217MOL    C2139333   3.001   3.887   7.655 -0.0605 -0.6570 -0.1774
  217MOL    C2239334   2.804   3.931   7.501 -0.2225  0.1770 -0.4398
  217MOL    O2339335   2.726   3.896   7.588 -0.5059  0.2340  0.0079
  217MOL    O2439336   2.773   3.973   7.383  0.0656 -0.9371 -0.3699
  217MOL    H2539337   2.987   4.037   7.505  0.0312  0.1251 -0.7881
  217MOL    H2639338   3.106   3.858   7.662  0.0433 -0.7673 -1.9839
  217MOL    H2739339   2.984   3.976   7.716  0.5946  0.8709 -2.1662
  217MOL    H2839340   2.942   3.803   7.689  1.0191 -0.6548  1.7658
  217MOL    C2939341   2.645   3.971   7.329 -1.1401 -1.0859 -0.1926
  217MOL    C3039342   2.610   3.841   7.274  0.4599 -0.2502  0.0834
  217MOL    C3139343   2.636   4.091   7.226  0.0616 -0.0661 -1.0505
  217MOL    O3239344   2.617   4.078   7.108  0.7192  0.7354 -0.1815
  217MOL    O3339345   2.646   4.212   7.305 -0.0453 -0.2491  0.4996
  217MOL    H3439346   2.570   4.003   7.402  0.3274  1.4981  0.2618
  217MOL    H3539347   2.615   3.755   7.340  0.0427 -1.5196 -1.5130
  217MOL    H3639348   2.507   3.847   7.238  0.5651 -2.4102 -0.6690
  217MOL    H3739349   2.674   3.825   7.186 -0.5194 -3.1080 -0.1610
  217MOL    C3839350   2.629   4.341   7.233 -0.5638  0.0748  0.0526
  217MOL    C3939351   2.715   4.450   7.304  0.0029  0.4650  0.5015
  217MOL    C4039352   2.482   4.391   7.247  0.3493  0.0302 -0.5196
  217MOL    O4139353   2.421   4.411   7.140 -0.7219 -0.0363 -0.1127
  217MOL    O4239354   2.438   4.402   7.374 -0.0676  0.0442 -0.3454
  217MOL    H4339355   2.668   4.341   7.131  2.4187  0.8270  1.1082
  217MOL    H4439356   2.706   4.547   7.255 -0.2658  0.9859  1.5700
  217MOL    H4539357   2.673   4.477   7.401 -1.6916 -0.4789  0.0568
  217MOL    H4639358   2.822   4.430   7.299 -0.1055 -0.5574  2.0223
  217MOL    C4739359   2.315   4.466   7.407 -0.1160  0.5239 -0.7841
  217MOL    C4839360   2.326   4.515   7.550 -0.2363 -0.7390  0.1281
  217MOL    C4939361   2.201   4.369   7.396  0.6408  0.3545 -0.5034
  217MOL    O5039362   2.209   4.264   7.338 -0.5589  0.3055  0.2490
  217MOL    O5139363   2.098   4.407   7.473  0.0615 -0.0705  0.3687
  217MOL    H5239364   2.293   4.549   7.340  1.5338  1.9034  0.3340
  217MOL    H5339365   2.429   4.529   7.584 -0.0187 -1.4238 -0.2358
  217MOL    H5439366   2.275   4.611   7.560  0.2009 -0.4248 -0.6114
  217MOL    H5539367   2.280   4.445   7.620 -0.3865  0.6296  1.4211
  217MOL    C5639368   1.975   4.350   7.468  0.6113  0.5710 -0.0959
  217MOL    C5739369   1.970   4.199   7.494 -0.5126 -0.0486 -0.0316
  217MOL    C5839370   1.901   4.387   7.337  0.0754 -0.1317  0.1322
  217MOL    O5939371   1.941   4.480   7.270 -0.2294 -0.4688 -0.3849
  217MOL    O6039372   1.797   4.302   7.308 -0.4221  0.7419 -0.3370
  217MOL    H6139373   1.916   4.400   7.545  1.5292 -0.1727  1.1113
  217MOL    H6239374   1.864   4.174   7.500 -0.3258 -1.1710 -1.1694
  217MOL    H6339375   2.018   4.150   7.409  1.6307  2.7293 -0.4979
  217MOL    H6439376   2.011   4.179   7.593  1.0289 -0.6308 -0.7680
  217MOL    C6539377   1.747   4.296   7.177 -0.3044  0.2030 -0.1046
  217MOL    C6639378   1.605   4.237   7.185 -0.3201  0.1490 -0.2014
  217MOL    C6739379   1.846   4.214   7.087 -0.0561  0.5686 -0.0765
  217MOL    O6839380   1.950   4.160   7.127 -0.3743  0.3566  0.4141
  217MOL    O6939381   1.808   4.212   6.954 -0.4583 -0.3480  0.0771
  217MOL    H7039382   1.741   4.398   7.141 -0.1151  0.7237  1.3160
  217MOL    H7139383   1.591   4.130   7.198 -1.8323  0.5462  1.6898
  217MOL    H7239384   1.545   4.282   7.264  0.1948 -2.7371  1.9053
  217MOL    H7339385   1.554   4.257   7.091 -0.0224 -1.6261 -0.7520
  217MOL    C7439386   1.868   4.122   6.861 -0.1769 -0.3357  0.2164
  217MOL    C7539387   1.863   4.194   6.730  0.4665  0.9937 -0.2680
  217MOL    C7639388   1.782   3.995   6.860 -0.9539  0.8941 -0.6042
  217MOL    O7739389   1.677   3.986   6.921 -0.1905 -0.2914 -0.3625
  217MOL    O7839390   1.828   3.901   6.783 -0.6664  0.1051 -0.3242
  217MOL    H7939391   1.972   4.098   6.885 -0.4162 -1.9808 -0.3246
  217MOL    H8039392   1.911   4.137   6.650  2.2464  2.3190 -0.1625
  217MOL    H8139393   1.758   4.206   6.706  0.3378 -0.1987 -0.3579
  217MOL    H8239394   1.912   4.291   6.724  1.2543  0.6084 -0.2520
  217MOL    C8339395   1.753   3.787   6.745  0.8222  0.3762 -0.0390
  217MOL    C8439396   1.870   3.696   6.705  0.1818  0.5736  0.0581
  217MOL    C8539397   1.655   3.809   6.629 -0.6524 -0.2030  0.2243
  217MOL    O8639398   1.685   3.779   6.511  0.1295 -0.2008 -0.3044
  217MOL    O8739399   1.544   3.875   6.666 -0.2422 -0.3310 -0.4797
  217MOL    H8839400   1.705   3.738   6.829  1.4004  0.2086  0.1935
  217MOL    H8939401   1.836   3.593   6.695 -1.0515  0.8006  1.7544
  217MOL    H9039402   1.916   3.735   6.614  1.9427 -1.0216  0.2420
  217MOL    H9139403   1.960   3.700   6.766 -0.4809 -2.3293  1.2914
  217MOL    C9239404   1.436   3.900   6.576 -0.5458  0.1869  0.1812
  217MOL    C9339405   1.389   4.041   6.608 -0.0394 -0.7507 -0.2725
  217MOL    C9439406   1.334   3.791   6.588 -0.0325  0.1332  1.2842
  217MOL    O9539407   1.226   3.816   6.635  0.2913 -0.2460 -0.0212
  217MOL    O9639408   1.391   3.662   6.557  0.3288 -0.3081  0.3072
  217MOL    H9739409   1.468   3.899   6.472  2.2169  0.2525  0.9951
  217MOL    H9839410   1.475   4.107   6.625 -0.9985  0.1366  1.2386
  217MOL    H9939411   1.320   4.075   6.531 -0.6804  2.1390  1.5064
  217MOL   H10039412   1.339   4.047   6.705  2.4796  1.2756  0.9838
  217MOL   C10139413   1.303   3.556   6.555 -0.2032 -0.4704  0.4536
  217MOL   C10239414   1.392   3.436   6.597  0.8146  0.5448 -0.4532
  217MOL   C10339415   1.242   3.545   6.412 -0.3709  0.5046 -0.5430
  217MOL   O10439416   1.123   3.551   6.389  0.5012  0.0734  0.1892
  217MOL   O10539417   1.342   3.534   6.322  0.4209  0.5921 -0.0733
  217MOL   H10639418   1.218   3.570   6.621 -0.1774 -1.0240  0.6121
  217MOL   H10739419   1.438   3.440   6.696 -1.0103 -0.1576  0.4425
  217MOL   H10839420   1.314   3.361   6.594  0.7872  0.6084 -2.0594
  217MOL   H10939421   1.460   3.398   6.520  2.3011 -0.0781  1.1425
  217MOL   C11039422   1.311   3.562   6.188  0.4001  0.3886  0.4239
  217MOL   C11139423   1.429   3.511   6.106 -0.2391 -0.4037  0.4442
  217MOL   C11239424   1.277   3.711   6.169 -0.1311 -0.5287  0.0684
  217MOL   O11339425   1.330   3.807   6.230  0.1077 -0.6278  0.0659
  217MOL   O11439426   1.184   3.731   6.068 -0.2786  0.1538 -0.3171
  217MOL   H11539427   1.222   3.509   6.156  1.2094 -1.5712  1.3017
  217MOL   H11639428   1.522   3.564   6.128 -2.3477  1.6150  4.9820
  217MOL   H11739429   1.446   3.407   6.134 -1.0208 -0.4335  0.8357
  217MOL   H11839430   1.409   3.506   5.999 -2.6496 -2.1462  0.9386
  217MOL   C11939431   1.146   3.863   6.034  0.2685 -0.5074 -0.1248
  217MOL   C12039432   1.035   3.918   6.126 -0.2144 -0.2903  0.0925
  217MOL   C12139433   1.096   3.867   5.889 -0.2017  0.7234 -0.3868
  217MOL   O12239434   1.107   3.773   5.811 -0.1989  0.8867 -0.0034
  217MOL   O12339435   1.045   3.987   5.844 -0.2404 -0.4118 -0.4147
  217MOL   H12439436   1.245   3.909   6.030  0.6273 -1.0790  1.8618
  217MOL   H12539437   0.990   4.008   6.084  0.7024 -0.1299 -0.5596
  217MOL   H12639438   0.952   3.853   6.153 -1.6929  0.9086 -1.4675
  217MOL   H12739439   1.083   3.944   6.220  0.3496  0.0435 -0.2839
  217MOL   C12839440   0.983   4.004   5.720  0.1361 -0.2755 -0.0848
  217MOL   C12939441   0.987   4.154   5.684 -0.6647 -0.8562  0.0695
  217MOL   C13039442   0.839   3.939   5.720  0.0546 -0.4261  0.3612
  217MOL   O13139443   0.789   3.903   5.826  0.6823 -0.2839  0.1099
  217MOL   O13239444   0.783   3.928   5.599 -0.1493  0.5303 -0.1030
  217MOL   H13339445   1.032   3.951   5.638 -0.7623 -0.1272 -0.7304
  217MOL   H13439446   0.928   4.194   5.601 -0.7749  2.0416  1.4754
  217MOL   H13539447   0.953   4.213   5.769  0.1874  0.6556 -0.6048
  217MOL   H13639448   1.093   4.174   5.665 -0.4824 -2.0256 -0.1807
  217MOL   C13739449   0.650   3.887   5.578 -0.4822 -0.1182  0.1704
  217MOL   C13839450   0.637   3.843   5.433  0.3041  0.5774 -0.5646
  217MOL   C13939451   0.552   4.006   5.604 -0.0116 -0.7874  0.2044
  217MOL   O14039452   0.581   4.117   5.641 -0.5239 -0.5154  0.0231
  217MOL   O14139453   0.423   3.969   5.575 -0.3248  0.1530 -0.4009
  217MOL   H14239454   0.625   3.800   5.639 -1.2101  0.0435  0.1102
  217MOL   H14339455   0.538   3.812   5.397  0.1358 -0.0378  0.4298
  217MOL   H14439456   0.658   3.926   5.365  0.0754  0.4853 -0.7524
  217MOL   H14539457   0.699   3.755   5.421  1.3888  1.1439  0.8613
  217MOL   C14639458   0.311   4.051   5.589  0.0027  0.2830  0.3358
  217MOL   C14739459   0.230   4.021   5.714  0.8661 -0.0623 -0.9822
  217MOL   C14839460   0.230   4.021   5.460 -0.1763 -0.1534  0.2376
  217MOL   O14939461   0.230   3.911   5.407  0.4266 -0.4784 -0.5791
  217MOL   O15039462   0.157   4.132   5.420 -0.4004  0.2134  0.1671
  217MOL   H15139463   0.345   4.154   5.579  0.0022  0.2982  0.4978
  217MOL   H15239464   0.151   4.094   5.727  2.3183  1.1018  1.6861
  217MOL   H15339465   0.156   3.940   5.706 -2.1886  2.4066  1.0064
  217MOL   H15439466   0.284   4.024   5.808  0.5202  1.1826 -0.8162
  217MOL   C15539467   0.058   4.120   5.319 -0.0681  0.6934 -0.4158
  217MOL   C15639468   0.052   4.241   5.228 -0.3357  0.0314 -0.0730
  217MOL   C15739469   8.069   4.092   5.383  0.2568  0.2584 -0.5791
  217MOL   O15839470   7.969   4.160   5.364  0.3917  1.0164 -0.4724
  217MOL   O15939471   8.074   3.980   5.471 -0.2240 -1.0491 -0.0255
  217MOL   H16039472   0.062   4.028   5.261 -0.9346 -0.2251  0.9417
  217MOL   H16139473   8.119   4.236   5.154  0.0529  1.8092 -0.6451
  217MOL   H16239474   0.022   4.330   5.283 -1.1641 -0.3515  0.1026
  217MOL   H16339475   0.152   4.246   5.185 -1.3288 -2.2266 -2.8416
  217MOL   C16439476   7.960   3.933   5.544  0.4490 -0.0473  0.2385
  217MOL   C16539477   7.987   3.886   5.687  0.0455  0.5455  0.1918
  217MOL   C16639478   7.898   3.825   5.456 -0.4000 -0.1383  0.3183
  217MOL   O16739479   7.814   3.854   5.372 -0.0294  0.0969  0.6771
  217MOL   O16839480   7.939   3.701   5.479 -0.1790  0.1307  0.0467
  217MOL   H16939481   7.888   4.012   5.562  1.2915  1.1098 -1.3657
  217MOL   H17039482   8.025   3.972   5.741 -1.0836  0.3079  1.3573
  217MOL   H17139483   7.890   3.853   5.723 -0.1460 -0.2487 -1.0075
  217MOL   H17239484   8.069   3.814   5.696 -0.5959  0.0286  2.0149
  217MOL   C17339485   7.913   3.593   5.396  0.1969 -0.0952  0.1360
  217MOL   C17439486   7.934   3.452   5.456 -0.0593 -0.5062  0.2208
  217MOL   C17539487   8.001   3.609   5.268  0.3778  0.2072 -0.0347
  217MOL   O17639488   7.962   3.595   5.148 -0.0006 -0.6285  0.0816
  217MOL   O17739489   8.132   3.620   5.289  0.1368 -0.5258 -0.3030
  217MOL   H17839490   7.810   3.600   5.360 -0.2251 -1.4291  1.0430
  217MOL   H17939491   8.016   3.397   5.411  0.0849 -1.2091  1.3123
  217MOL   H18039492   7.946   3.467   5.563  0.4257  0.4832  0.0326
  217MOL   H18139493   7.844   3.391   5.446  0.2130 -0.8276 -0.2420
  217MOL   H18239494   0.034   3.607   5.209  2.5772  2.4373  0.6288
  218MOL     C139495   6.215   3.722   5.090  0.4877  0.2420  1.1691
  218MOL     C239496   6.142   3.771   5.210 -0.1457  0.2211 -0.0697
  218MOL     C339497   6.319   3.814   5.033  0.2213 -0.8715  0.1079
  218MOL     O439498   6.435   3.773   5.018 -0.1690  0.5568  0.3376
  218MOL     O539499   6.269   3.936   5.001  0.2353 -0.0869  0.2762
  218MOL     H639500   6.262   3.625   5.108  1.0349  0.5946  1.6669
  218MOL     H739501   6.090   3.865   5.192 -0.8774 -0.2307 -0.3435
  218MOL     H839502   6.064   3.705   5.249 -0.9707  1.7406  0.8946
  218MOL     H939503   6.220   3.792   5.283 -2.3568  0.6269  2.2407
  218MOL    H1039504   6.154   3.702   5.002  1.1661 -0.5109  0.8672
  218MOL    C1139505   6.334   4.034   4.916  0.2304  0.7775  0.1218
  218MOL    C1239506   6.292   4.178   4.957  0.1766  0.6770  0.1508
  218MOL    C1339507   6.321   4.011   4.766  0.3604  0.2615 -0.2064
  218MOL    O1439508   6.245   3.922   4.725  0.3615 -0.3362 -0.1312
  218MOL    O1539509   6.403   4.093   4.691  0.1436  0.2577  0.0707
  218MOL    H1639510   6.440   4.019   4.938  0.2479 -0.4469 -0.7511
  218MOL    H1739511   6.309   4.206   5.061 -1.5289  0.8754  0.3863
  218MOL    H1839512   6.366   4.243   4.909 -0.3054  0.3688 -1.0153
  218MOL    H1939513   6.188   4.200   4.934 -0.1203  1.3713  2.0770
  218MOL    C2039514   6.383   4.105   4.548  0.6229 -0.2910  0.0743
  218MOL    C2139515   6.517   4.157   4.487  0.4609 -0.2122  0.0714
  218MOL    C2239516   6.269   4.206   4.520  0.2255  0.4333 -0.5393
  218MOL    O2339517   6.250   4.246   4.404 -0.5320 -0.4987  0.5297
  218MOL    O2439518   6.203   4.236   4.627  0.1803 -0.3091 -0.0379
  218MOL    H2539519   6.358   4.011   4.498 -1.5010  0.0367  0.4587
  218MOL    H2639520   6.512   4.177   4.380  2.7246 -2.4620 -0.5048
  218MOL    H2739521   6.550   4.246   4.540  1.4585  0.8903 -2.3380
  218MOL    H2839522   6.591   4.078   4.502  0.9762  0.2662  0.0473
  218MOL    C2939523   6.074   4.300   4.620  0.1602  0.8187  0.0314
  218MOL    C3039524   6.102   4.411   4.714 -0.1499 -0.8509 -0.5140
  218MOL    C3139525   5.970   4.203   4.681 -0.4692  0.0618 -0.5344
  218MOL    O3239526   6.013   4.091   4.711  0.2245 -0.1663  0.0518
  218MOL    O3339527   5.846   4.252   4.698  0.2004  0.3893 -0.0658
  218MOL    H3439528   6.039   4.338   4.524 -2.4352 -1.5026 -0.0093
  218MOL    H3539529   6.137   4.494   4.653 -1.3381  0.7594  0.9595
  218MOL    H3639530   6.021   4.455   4.772  0.8039  1.7931 -1.0986
  218MOL    H3739531   6.176   4.407   4.794  0.4984  2.2468 -0.8881
  218MOL    C3839532   5.741   4.160   4.749 -0.6894  0.3704  0.4330
  218MOL    C3939533   5.621   4.198   4.666  0.2873 -0.5123 -0.4146
  218MOL    C4039534   5.719   4.191   4.901  0.0375  0.2968  0.6756
  218MOL    O4139535   5.743   4.301   4.954  0.3590  0.0349 -0.0487
  218MOL    O4239536   5.683   4.078   4.971 -0.4090 -0.2345 -0.7627
  218MOL    H4339537   5.767   4.055   4.739  1.4949  0.9164 -0.0504
  218MOL    H4439538   5.532   4.137   4.683 -0.1700  0.8620  2.4057
  218MOL    H4539539   5.591   4.302   4.676 -0.1612 -0.7978  1.4164
  218MOL    H4639540   5.642   4.199   4.559  0.3677  0.4928 -0.3938
  218MOL    C4739541   5.669   4.071   5.111  0.2422  0.2180 -0.7929
  218MOL    C4839542   5.672   3.929   5.163 -0.4805 -0.4680 -0.0689
  218MOL    C4939543   5.537   4.140   5.156  1.3171 -0.0203 -0.1291
  218MOL    O5039544   5.522   4.193   5.264 -0.1633  0.1696 -0.2622
  218MOL    O5139545   5.432   4.117   5.064 -0.1074  0.1321  0.5317
  218MOL    H5239546   5.750   4.130   5.154 -0.3852 -1.0556  2.3207
  218MOL    H5339547   5.766   3.884   5.131 -0.6277 -1.4979  0.9333
  218MOL    H5439548   5.680   3.918   5.271 -3.7696 -2.1659  0.0667
  218MOL    H5539549   5.581   3.874   5.139 -1.1194  0.0586  1.0817
  218MOL    C5639550   5.312   4.193   5.082  0.0329  0.2459 -0.9246
  218MOL    C5739551   5.218   4.135   4.981  0.1973 -0.2798  0.6076
  218MOL    C5839552   5.328   4.344   5.049 -0.2754 -0.3777 -0.8665
  218MOL    O5939553   5.409   4.389   4.969 -0.5001  0.2723  0.1443
  218MOL    O6039554   5.229   4.422   5.110  0.2353  0.4162 -0.6166
  218MOL    H6139555   5.277   4.180   5.185 -1.1435 -1.1376 -1.4759
  218MOL    H6239556   5.256   4.135   4.878 -0.7799 -1.5305  0.2329
  218MOL    H6339557   5.192   4.032   5.008  3.9543 -1.0885  1.3460
  218MOL    H6439558   5.125   4.191   4.987  0.0539 -0.1720 -1.9262
  218MOL    C6539559   5.221   4.563   5.076 -0.3329 -0.0582 -0.0032
  218MOL    C6639560   5.155   4.637   5.190  0.2231 -0.2535  0.5718
  218MOL    C6739561   5.152   4.593   4.943  0.3647  0.5603 -0.2209
  218MOL    O6839562   5.116   4.497   4.869  0.8068 -0.3243  0.0617
  218MOL    O6939563   5.149   4.718   4.911 -0.4699  0.5003 -0.4733
  218MOL    H7039564   5.322   4.603   5.065 -1.3294  2.5311 -0.1521
  218MOL    H7139565   5.064   4.585   5.220 -0.9202  0.8351 -0.9098
  218MOL    H7239566   5.220   4.642   5.277  0.5518  0.9424  0.2626
  218MOL    H7339567   5.115   4.734   5.160  0.2613 -0.7754 -1.2590
  218MOL    C7439568   5.104   4.770   4.784  0.0107 -0.6478  0.2557
  218MOL    C7539569   5.193   4.895   4.755 -0.2921 -0.6247  0.2503
  218MOL    C7639570   4.959   4.815   4.795 -0.0748 -0.0452 -0.1919
  218MOL    O7739571   4.871   4.752   4.738 -0.1634  0.0394  0.0332
  218MOL    O7839572   4.941   4.939   4.864  0.0933 -0.2018  0.0432
  218MOL    H7939573   5.110   4.707   4.695  1.4612  0.4828 -0.4724
  218MOL    H8039574   5.296   4.858   4.756 -0.4028 -1.1050 -2.9779
  218MOL    H8139575   5.178   4.935   4.655  2.2697 -0.2805 -0.0449
  218MOL    H8239576   5.194   4.973   4.831  2.4003  0.1687 -0.5395
  218MOL    C8339577   4.814   4.996   4.878  0.4473 -0.0033  0.3322
  218MOL    C8439578   4.834   5.134   4.924 -0.1631 -0.2649  0.7557
  218MOL    C8539579   4.732   4.918   4.979 -0.4499  0.0529  0.4102
  218MOL    O8639580   4.614   4.885   4.962 -0.0969 -0.0042 -0.4410
  218MOL    O8739581   4.807   4.879   5.087 -0.1899  0.0401 -0.4375
  218MOL    H8839582   4.766   4.986   4.781  0.7012  0.7091  0.1308
  218MOL    H8939583   4.889   5.190   4.849 -1.5551  0.5136  0.2957
  218MOL    H9039584   4.737   5.181   4.938  0.5230  0.9649  1.5118
  218MOL    H9139585   4.900   5.137   5.011  0.5597 -0.8397  0.2281
  218MOL    C9239586   4.743   4.785   5.176 -0.3529  0.1337 -0.0136
  218MOL    C9339587   4.804   4.797   5.318  0.0977 -0.0738 -0.2014
  218MOL    C9439588   4.724   4.644   5.114 -0.0980 -0.0815  0.1459
  218MOL    O9539589   4.649   4.562   5.157 -0.2556 -0.2101 -0.6301
  218MOL    O9639590   4.814   4.622   5.023 -0.1703  0.4618 -0.1298
  218MOL    H9739591   4.638   4.808   5.193 -0.2304  0.4847  0.2589
  218MOL    H9839592   4.912   4.787   5.304  0.7759  2.4905  2.7359
  218MOL    H9939593   4.787   4.895   5.361 -2.0052 -1.6740  2.8323
  218MOL   H10039594   4.783   4.719   5.392 -1.0520  0.2135 -0.2196
  218MOL   C10139595   4.792   4.521   4.930  0.1773 -0.5918  0.0509
  218MOL   C10239596   4.654   4.528   4.857  0.5332  0.1890  0.0661
  218MOL   C10339597   4.823   4.379   4.986 -0.2406 -0.4642 -0.2343
  218MOL   O10439598   4.871   4.366   5.099 -0.4257 -0.3876  0.2370
  218MOL   O10539599   4.801   4.277   4.900 -0.2081  0.4136  0.1103
  218MOL   H10639600   4.852   4.549   4.843 -1.8690  0.3490 -1.0997
  218MOL   H10739601   4.633   4.621   4.805 -0.5092 -0.4492 -0.6611
  218MOL   H10839602   4.659   4.460   4.772  0.6189  1.0001 -0.5827
  218MOL   H10939603   4.568   4.490   4.912  0.2235 -0.4378 -0.8491
  218MOL   C11039604   4.815   4.140   4.943  0.4017 -0.0418 -0.7230
  218MOL   C11139605   4.889   4.061   4.832  0.0204  0.1923 -0.3901
  218MOL   C11239606   4.674   4.079   4.956 -0.0610  1.1748 -0.1177
  218MOL   O11339607   4.625   4.010   4.861  0.0424 -0.3769  0.2861
  218MOL   O11439608   4.614   4.111   5.079  0.4082 -0.2280  0.0209
  218MOL   H11539609   4.857   4.129   5.043  2.0960  2.4569 -1.0919
  218MOL   H11639610   4.846   4.081   4.734 -0.8654 -0.8389 -0.2256
  218MOL   H11739611   4.992   4.095   4.830  0.1575 -0.2308 -0.8690
  218MOL   H11839612   4.886   3.954   4.855 -1.2253  0.3274  0.0839
  218MOL   C11939613   4.479   4.090   5.099 -0.2499  0.1595  0.3225
  218MOL   C12039614   4.423   4.191   5.198 -1.0657 -0.0234 -0.0490
  218MOL   C12139615   4.453   3.944   5.138 -0.6373 -0.4008  0.5141
  218MOL   O12239616   4.500   3.899   5.239  0.1805 -0.0508 -0.4625
  218MOL   O12339617   4.371   3.878   5.049 -0.0698  0.0355 -0.5884
  218MOL   H12439618   4.441   4.111   4.999  0.7189  1.5139  0.2210
  218MOL   H12539619   4.443   4.294   5.171 -0.1951  0.0513  0.8800
  218MOL   H12639620   4.314   4.185   5.194 -1.0672  0.4291 -0.7738
  218MOL   H12739621   4.462   4.179   5.299 -0.8603 -0.4709 -0.1777
  218MOL   C12839622   4.332   3.747   5.066  0.1660  0.4205 -0.4527
  218MOL   C12939623   4.257   3.690   4.949 -0.3028  0.0022 -0.2755
  218MOL   C13039624   4.236   3.734   5.189  0.4624  0.5845 -0.5701
  218MOL   O13139625   4.180   3.838   5.230 -0.2492 -0.6424 -0.4493
  218MOL   O13239626   4.229   3.612   5.244 -0.0845 -0.2052  0.5514
  218MOL   H13339627   4.417   3.679   5.076 -1.3421 -1.2256  1.7355
  218MOL   H13439628   4.195   3.765   4.901 -1.8958 -1.0787  0.0693
  218MOL   H13539629   4.328   3.652   4.875  0.1636  2.1744 -0.9946
  218MOL   H13639630   4.189   3.613   4.984 -1.2587  1.4342  1.0809
  218MOL   C13739631   4.132   3.585   5.350 -0.6322 -0.4097  0.4811
  218MOL   C13839632   4.207   3.548   5.479  0.3129 -0.3408 -1.0299
  218MOL   C13939633   4.012   3.497   5.311 -0.3879 -0.5129 -0.4953
  218MOL   O14039634   3.897   3.544   5.329  0.6020  0.0715 -1.0209
  218MOL   O14139635   4.047   3.378   5.262 -0.2154  0.3715  0.2936
  218MOL   H14239636   4.065   3.670   5.361 -1.5237 -1.2316  1.5845
  218MOL   H14339637   4.299   3.490   5.476 -0.3608 -1.7158  2.4762
  218MOL   H14439638   4.235   3.636   5.537 -1.4936 -0.9457  0.8256
  218MOL   H14539639   4.142   3.501   5.553  0.0887  1.0827 -0.2929
  218MOL   C14639640   3.951   3.301   5.190  0.4087 -1.1009  0.0696
  218MOL   C14739641   4.026   3.175   5.136  0.0676 -0.2380 -0.1934
  218MOL   C14839642   3.902   3.379   5.064  0.0041 -0.2819  0.2508
  218MOL   O14939643   3.968   3.471   5.016 -0.1624  0.7719 -0.0655
  218MOL   O15039644   3.798   3.324   4.994 -0.2872 -0.6533  0.1113
  218MOL   H15139645   3.871   3.265   5.256  2.0190  1.0124  3.2940
  218MOL   H15239646   4.089   3.197   5.050 -0.1169 -0.2560 -0.3339
  218MOL   H15339647   4.083   3.130   5.218 -1.2805  2.2792  2.2274
  218MOL   H15439648   3.948   3.104   5.109 -1.6299  1.9254 -1.0967
  218MOL   C15539649   3.767   3.365   4.855 -0.6343  1.1984 -0.0445
  218MOL   C15639650   3.619   3.330   4.839  0.1263 -0.3411 -0.8621
  218MOL   C15739651   3.859   3.288   4.760  0.0039  0.1988  0.5449
  218MOL   O15839652   3.933   3.196   4.804 -0.2336 -0.5598  0.6810
  218MOL   O15939653   3.846   3.336   4.635 -0.8833 -0.0191  0.0931
  218MOL   H16039654   3.784   3.472   4.845  2.7418  0.5871 -1.5201
  218MOL   H16139655   3.605   3.228   4.875 -0.3198 -0.0248 -0.1301
  218MOL   H16239656   3.560   3.387   4.911  0.0461  0.4454 -1.5415
  218MOL   H16339657   3.579   3.350   4.739 -0.0160  2.2580 -0.3139
  218MOL   C16439658   3.920   3.269   4.523 -0.0491  0.0548  0.0471
  218MOL   C16539659   3.911   3.363   4.399 -0.6247 -0.2097  0.1019
  218MOL   C16639660   3.847   3.137   4.499 -0.5754 -0.0557  0.3623
  218MOL   O16739661   3.905   3.030   4.499  0.0314  0.3083  0.4668
  218MOL   O16839662   3.715   3.152   4.479  0.2453  0.2729  0.8746
  218MOL   H16939663   4.024   3.244   4.546 -0.0797 -0.7812 -0.7018
  218MOL   H17039664   3.921   3.463   4.442  1.2469  0.0873 -0.9955
  218MOL   H17139665   3.984   3.337   4.324 -0.6348  0.8770 -0.3011
  218MOL   H17239666   3.813   3.361   4.351 -0.3037 -0.9101 -0.5217
  218MOL   C17339667   3.629   3.042   4.465 -0.0301 -0.0816  0.6115
  218MOL   C17439668   3.501   3.090   4.393 -0.8326 -0.2802  0.6112
  218MOL   C17539669   3.604   2.979   4.606  0.4595  0.9870  0.0672
  218MOL   O17639670   3.654   3.023   4.712  0.0602 -0.1995 -0.4713
  218MOL   O17739671   3.521   2.867   4.600  0.7414 -0.3443  0.2814
  218MOL   H17839672   3.666   2.958   4.406 -1.1711 -1.6600  2.0688
  218MOL   H17939673   3.415   3.033   4.429 -2.1772 -0.1337 -2.2014
  218MOL   H18039674   3.491   3.195   4.422  3.1940  0.1387  0.6988
  218MOL   H18139675   3.503   3.094   4.284 -1.2575 -2.9561  0.4780
  218MOL   H18239676   3.510   2.836   4.689 -1.6688 -0.4315 -0.0092
  219MOL     C139677   6.762   5.356   3.431 -0.6374 -0.4735 -0.1730
  219MOL     C239678   6.866   5.433   3.520  0.1723  0.0605 -0.7596
  219MOL     C339679   6.717   5.442   3.308  0.0961 -0.1331  0.2892
  219MOL     O439680   6.797   5.516   3.250 -0.1124  0.1025  0.3945
  219MOL     O539681   6.591   5.436   3.291 -0.0094 -0.1172 -0.2854
  219MOL     H639682   6.801   5.260   3.399 -2.2683 -1.8918  1.9546
  219MOL     H739683   6.889   5.377   3.611 -1.6887 -0.1167 -0.3712
  219MOL     H839684   6.963   5.449   3.473  1.5935 -0.3722  1.9095
  219MOL     H939685   6.834   5.534   3.545 -3.9776 -0.5366 -3.1973
  219MOL    H1039686   6.678   5.325   3.493  1.4153 -0.8341  2.4911
  219MOL    C1139687   6.528   5.538   3.212 -0.1141 -0.2334 -0.0385
  219MOL    C1239688   6.375   5.543   3.253 -0.4072 -0.4563  0.1574
  219MOL    C1339689   6.531   5.505   3.062  0.5634 -1.0888 -0.1639
  219MOL    O1439690   6.553   5.592   2.981  0.0714  0.4734 -0.6602
  219MOL    O1539691   6.502   5.379   3.037  0.6674 -0.3798  0.6362
  219MOL    H1639692   6.575   5.634   3.230  1.5547 -1.1025  0.2502
  219MOL    H1739693   6.325   5.446   3.265  1.3843 -1.3632  0.4072
  219MOL    H1839694   6.361   5.601   3.344  0.4804  0.3734 -0.2377
  219MOL    H1939695   6.316   5.605   3.185  3.2149  3.0088 -0.0069
  219MOL    C2039696   6.480   5.338   2.901 -0.6508 -0.0412  0.7352
  219MOL    C2139697   6.351   5.399   2.839  0.7729  0.1375  0.6536
  219MOL    C2239698   6.462   5.194   2.896 -0.3952  0.0717 -0.5063
  219MOL    O2339699   6.526   5.119   2.823  0.4661 -0.3552 -0.0799
  219MOL    O2439700   6.361   5.152   2.979  0.3194  0.4526 -0.4212
  219MOL    H2539701   6.559   5.362   2.831  0.6897  0.7936  2.4758
  219MOL    H2639702   6.359   5.500   2.798 -1.1884 -0.2710 -0.8299
  219MOL    H2739703   6.302   5.335   2.766  0.5182 -1.8654  2.5360
  219MOL    H2839704   6.287   5.426   2.923  0.0900  0.0613  0.1610
  219MOL    C2939705   6.303   5.018   2.982 -0.3843 -0.6664  0.7691
  219MOL    C3039706   6.155   5.034   3.026 -0.9553 -0.1287  0.0089
  219MOL    C3139707   6.395   4.923   3.053  0.8473 -0.3489  0.3282
  219MOL    O3239708   6.445   4.829   2.996 -0.9001 -0.0010  0.4520
  219MOL    O3339709   6.418   4.957   3.180  0.3686 -0.4115  0.4328
  219MOL    H3439710   6.297   4.989   2.877  0.9601 -0.5896  0.6591
  219MOL    H3539711   6.102   5.060   2.934 -0.2329  0.7824 -0.1560
  219MOL    H3639712   6.126   4.938   3.068 -1.2215  0.0570  0.2506
  219MOL    H3739713   6.144   5.112   3.100 -1.1295  0.4219 -0.5952
  219MOL    C3839714   6.524   4.902   3.260  0.0705  0.4577  0.2328
  219MOL    C3939715   6.529   4.991   3.388 -0.8859  0.8633 -0.4335
  219MOL    C4039716   6.664   4.907   3.197 -0.2017 -0.1764  0.0198
  219MOL    O4139717   6.699   4.983   3.105  0.2763 -0.2469 -0.9116
  219MOL    O4239718   6.749   4.819   3.257  0.1222 -0.3930  0.0767
  219MOL    H4339719   6.501   4.801   3.294 -0.4046 -0.4608 -2.6624
  219MOL    H4439720   6.589   5.080   3.370  0.6128 -0.2807 -1.2271
  219MOL    H4539721   6.425   5.015   3.410 -1.3985 -1.8248  0.2190
  219MOL    H4639722   6.572   4.931   3.468 -1.1487  2.8766  1.2721
  219MOL    C4739723   6.889   4.816   3.234 -0.8417  0.1304 -0.7995
  219MOL    C4839724   6.933   4.680   3.281  0.5655 -0.0062  0.1305
  219MOL    C4939725   6.960   4.930   3.316  0.0815  0.0757  0.2249
  219MOL    O5039726   6.908   5.002   3.398  0.5718  0.3423  0.0740
  219MOL    O5139727   7.081   4.941   3.279 -0.2138  0.3689 -0.2195
  219MOL    H5239728   6.924   4.822   3.131  0.5962 -2.0791 -0.4682
  219MOL    H5339729   6.902   4.657   3.383  0.1396  1.1808  0.2759
  219MOL    H5439730   6.898   4.593   3.225  1.9897 -3.2022  4.0054
  219MOL    H5539731   7.041   4.668   3.273  0.1940 -2.9215 -1.2915
  219MOL    C5639732   7.183   5.030   3.339 -0.6427 -0.0157 -0.1038
  219MOL    C5739733   7.320   4.967   3.296 -0.6813 -0.2099 -0.0492
  219MOL    C5839734   7.175   5.051   3.493  0.4334  0.4439 -0.3541
  219MOL    O5939735   7.131   4.965   3.570  0.0202  0.3526 -0.4523
  219MOL    O6039736   7.209   5.176   3.531 -0.1787 -0.3494  0.3739
  219MOL    H6139737   7.183   5.123   3.282  1.8391 -0.2508 -0.5512
  219MOL    H6239738   7.333   4.965   3.188  1.0414  1.0740  0.1258
  219MOL    H6339739   7.397   5.031   3.338  0.1631 -0.3023 -1.4149
  219MOL    H6439740   7.327   4.868   3.341 -0.1954 -0.2072 -0.1243
  219MOL    C6539741   7.215   5.209   3.673  0.3426 -0.1105 -0.1760
  219MOL    C6639742   7.223   5.356   3.674 -0.3688  0.1089 -0.0806
  219MOL    C6739743   7.334   5.135   3.743 -0.3569  0.0831 -0.3184
  219MOL    O6839744   7.331   5.076   3.853 -0.6864  0.6929  0.0548
  219MOL    O6939745   7.453   5.143   3.680  0.1283 -0.1300  0.0811
  219MOL    H7039746   7.124   5.178   3.724 -0.2390  0.2916 -0.9487
  219MOL    H7139747   7.163   5.410   3.601 -1.1285  1.8506  1.7834
  219MOL    H7239748   7.199   5.406   3.768 -0.2540  2.3163 -1.1790
  219MOL    H7339749   7.319   5.385   3.630 -1.1113  1.8240 -0.6187
  219MOL    C7439750   7.581   5.080   3.719 -0.2236  0.9332 -0.4666
  219MOL    C7539751   7.683   5.172   3.660 -0.2853 -0.2819  0.3082
  219MOL    C7639752   7.590   4.938   3.658 -0.5767  0.2140 -0.3234
  219MOL    O7739753   7.511   4.892   3.576 -0.1753  0.3469  0.6131
  219MOL    O7839754   7.695   4.871   3.714  0.1236  0.3224  0.0659
  219MOL    H7939755   7.605   5.065   3.824  0.8442 -1.8623 -1.0469
  219MOL    H8039756   7.681   5.275   3.694  2.0214 -0.0192 -0.2453
  219MOL    H8139757   7.785   5.147   3.688  0.0100  1.5552  0.9399
  219MOL    H8239758   7.670   5.166   3.552 -1.7726  1.6428  0.3594
  219MOL    C8339759   7.756   4.758   3.653  0.4167  0.1061  0.2706
  219MOL    C8439760   7.844   4.682   3.752 -0.2943  0.3531 -0.4657
  219MOL    C8539761   7.824   4.800   3.525 -0.3857 -0.2683 -0.0036
  219MOL    O8639762   7.852   4.916   3.496  0.3950  0.7830  0.1570
  219MOL    O8739763   7.847   4.696   3.436 -0.1099 -0.1085  0.0224
  219MOL    H8839764   7.679   4.688   3.621  1.1971 -0.4738 -0.3562
  219MOL    H8939765   7.879   4.591   3.703  1.0441  0.6980 -0.1631
  219MOL    H9039766   7.927   4.742   3.789 -0.5898  1.7608 -2.0360
  219MOL    H9139767   7.785   4.653   3.839  1.5210 -0.5206  0.5162
  219MOL    C9239768   7.912   4.717   3.309  0.3620 -0.5017 -0.5583
  219MOL    C9339769   7.910   4.574   3.242  0.7296 -0.0204 -0.7980
  219MOL    C9439770   8.056   4.773   3.323 -0.0420 -0.1348  0.8767
  219MOL    O9539771   8.126   4.754   3.420  0.0965 -0.6208  0.2578
  219MOL    O9639772   8.103   4.825   3.206  0.5067  0.6329  0.0732
  219MOL    H9739773   7.845   4.777   3.248 -1.2661 -1.8070 -0.1017
  219MOL    H9839774   7.996   4.514   3.271  1.5691  0.3469 -2.4592
  219MOL    H9939775   7.838   4.502   3.280  1.3795  0.4462  1.3535
  219MOL   H10039776   7.920   4.583   3.134  0.1825 -2.6462 -1.0948
  219MOL   C10139777   0.095   4.818   3.182 -0.3382 -0.0772 -0.3414
  219MOL   C10239778   0.158   4.950   3.237 -0.4051  0.0511  0.5945
  219MOL   C10339779   0.121   4.803   3.033  0.6257 -0.8548  0.1039
  219MOL   O10439780   0.156   4.903   2.966  0.4053  0.2636 -0.3316
  219MOL   O10539781   0.108   4.678   2.992  0.8341 -0.3047  0.1282
  219MOL   H10639782   0.143   4.731   3.226 -0.0013  0.6537  0.7638
  219MOL   H10739783   0.102   5.036   3.198 -0.0856 -0.2139 -0.4681
  219MOL   H10839784   0.162   4.944   3.346  1.0241 -3.7651  0.3792
  219MOL   H10939785   0.260   4.978   3.213 -1.0861  1.3978 -0.8266
  219MOL   C11039786   0.082   4.649   2.850  0.5097  0.1264  0.1673
  219MOL   C11139787   0.213   4.666   2.772 -0.3277 -0.5271  0.2281
  219MOL   C11239788   8.103   4.723   2.790 -0.6322  0.6586  0.6286
  219MOL   O11339789   8.108   4.787   2.684  0.3653  0.1936 -0.5336
  219MOL   O11439790   7.991   4.716   2.864  0.2411  0.3125 -0.4495
  219MOL   H11539791   0.058   4.543   2.841 -2.1544  0.4042  2.9471
  219MOL   H11639792   0.247   4.768   2.790  3.1828 -1.7984  1.3209
  219MOL   H11739793   0.288   4.591   2.801 -0.8930 -0.7571  1.1232
  219MOL   H11839794   0.191   4.648   2.667 -0.3958  0.1382  0.1321
  219MOL   C11939795   7.866   4.784   2.821 -0.0898  0.3435 -0.1052
  219MOL   C12039796   7.796   4.815   2.948  0.3808 -0.3167  0.1130
  219MOL   C12139797   7.786   4.692   2.731  0.4522  0.5670 -0.5576
  219MOL   O12239798   7.831   4.584   2.695  0.6614 -0.4503 -0.3107
  219MOL   O12339799   7.664   4.733   2.710  0.6727 -0.1960  0.1698
  219MOL   H12439800   7.899   4.871   2.764  2.0533  0.0644  0.6592
  219MOL   H12539801   7.858   4.870   3.019 -0.1970  0.5884 -0.0885
  219MOL   H12639802   7.710   4.881   2.939 -0.5541 -1.3813  0.9906
  219MOL   H12739803   7.764   4.722   2.995 -1.8107  1.3590  2.0875
  219MOL   C12839804   7.558   4.644   2.661  0.3470  0.2578 -0.0221
  219MOL   C12939805   7.445   4.741   2.625 -0.2272 -0.4403 -0.3497
  219MOL   C13039806   7.490   4.564   2.779 -1.0081 -0.0586  0.0709
  219MOL   O13139807   7.454   4.452   2.763 -0.2281  0.3310  1.3756
  219MOL   O13239808   7.466   4.636   2.887  0.4518  0.1078 -0.3234
  219MOL   H13339809   7.593   4.578   2.582  0.7302  2.3605 -1.6527
  219MOL   H13439810   7.466   4.815   2.548 -0.0768  0.2373  0.3279
  219MOL   H13539811   7.359   4.687   2.585 -0.8659 -0.7443  1.3680
  219MOL   H13639812   7.416   4.792   2.717  2.8464 -1.0228  1.0092
  219MOL   C13739813   7.418   4.570   2.995 -0.0258  0.1681 -0.0828
  219MOL   C13839814   7.366   4.682   3.091 -0.2572  0.1816  0.1378
  219MOL   C13939815   7.518   4.478   3.064  0.1059 -0.3949 -0.4706
  219MOL   O14039816   7.638   4.495   3.056 -0.1142  0.2426 -0.0962
  219MOL   O14139817   7.460   4.386   3.141 -0.1172 -0.6433  0.1840
  219MOL   H14239818   7.331   4.514   2.960 -0.4543  0.2779  0.7941
  219MOL   H14339819   7.441   4.761   3.099 -1.4572  1.2980  0.4483
  219MOL   H14439820   7.273   4.723   3.053  0.6600  0.1350 -2.2111
  219MOL   H14539821   7.364   4.631   3.188 -0.4094  0.5565  0.3327
  219MOL   C14639822   7.526   4.304   3.242  0.9914  0.5603 -0.0235
  219MOL   C14739823   7.413   4.199   3.285 -0.1264 -0.4038 -0.2043
  219MOL   C14839824   7.584   4.383   3.363 -0.7704 -0.0056  0.3694
  219MOL   O14939825   7.564   4.507   3.384  0.2764  0.3433 -0.2135
  219MOL   O15039826   7.664   4.306   3.442  0.0071 -0.4263  0.5257
  219MOL   H15139827   7.619   4.264   3.199  0.7822 -0.6274  0.6232
  219MOL   H15239828   7.426   4.108   3.226 -0.4783  0.7232 -2.0503
  219MOL   H15339829   7.417   4.182   3.392 -1.1934 -0.0170 -0.1058
  219MOL   H15439830   7.312   4.238   3.273  0.1632  0.1320 -0.9249
  219MOL   C15539831   7.724   4.358   3.556  0.0642  0.1715 -0.1812
  219MOL   C15639832   7.855   4.281   3.582 -0.0274 -0.3684  0.9109
  219MOL   C15739833   7.623   4.347   3.668 -0.2047  0.1248 -1.1219
  219MOL   O15839834   7.633   4.414   3.766 -0.3403  0.0537 -0.2857
  219MOL   O15939835   7.522   4.252   3.648  0.6538  0.6147  0.5709
  219MOL   H16039836   7.752   4.461   3.533  0.4950  0.1431  0.2242
  219MOL   H16139837   7.836   4.181   3.621 -0.7580 -0.8944 -0.7594
  219MOL   H16239838   7.919   4.261   3.496 -2.3464 -1.5118 -0.6260
  219MOL   H16339839   7.919   4.331   3.654 -0.5612 -1.2283  2.0043
  219MOL   C16439840   7.403   4.246   3.731 -0.2104  0.2352  0.1152
  219MOL   C16539841   7.385   4.109   3.808 -0.4398 -0.0276 -0.1606
  219MOL   C16639842   7.287   4.297   3.650  0.0906 -0.2897  0.2714
  219MOL   O16739843   7.194   4.230   3.605 -0.3451  0.0430  0.4464
  219MOL   O16839844   7.309   4.419   3.623 -0.4262  0.1879  0.5328
  219MOL   H16939845   7.417   4.320   3.810  2.0393  0.5530 -0.5354
  219MOL   H17039846   7.280   4.090   3.829 -0.8255  1.1091 -0.9503
  219MOL   H17139847   7.438   4.030   3.755  2.2035  2.9678 -2.2105
  219MOL   H17239848   7.451   4.123   3.894 -0.8989  0.6705  0.0847
  219MOL   C17339849   7.225   4.503   3.540  0.7010 -0.0545 -0.5938
  219MOL   C17439850   7.273   4.655   3.539 -0.0532 -0.1736 -0.5765
  219MOL   C17539851   7.070   4.497   3.574  0.4507  0.5869  0.4634
  219MOL   O17639852   6.972   4.444   3.514 -0.2816  0.4634 -0.6817
  219MOL   O17739853   7.062   4.554   3.696  0.7783 -0.1280 -0.2677
  219MOL   H17839854   7.234   4.464   3.438  2.8075  0.3454 -0.5836
  219MOL   H17939855   7.353   4.673   3.468 -0.3427 -1.2792 -1.1875
  219MOL   H18039856   7.191   4.717   3.503 -0.1776  0.1889  0.3014
  219MOL   H18139857   7.307   4.686   3.638  0.4344 -1.9224 -0.1830
  219MOL   H18239858   6.972   4.529   3.714  0.4533 -0.9784 -2.8155
  220MOL     C139859   1.654   4.679   7.062 -0.4330 -0.3570 -0.0832
  220MOL     C239860   1.605   4.641   6.926 -0.3986 -0.1723 -0.4488
  220MOL     C339861   1.554   4.673   7.184 -0.0438 -0.5565 -0.0872
  220MOL     O439862   1.465   4.581   7.181 -0.8370 -0.0281 -0.6416
  220MOL     O539863   1.572   4.761   7.289  0.1450 -0.3792 -0.2689
  220MOL     H639864   1.745   4.620   7.075  1.2660  1.7923 -1.7174
  220MOL     H739865   1.652   4.699   6.847  0.1869 -1.0103 -0.7270
  220MOL     H839866   1.624   4.534   6.920  0.4144 -0.1007  0.5727
  220MOL     H939867   1.498   4.653   6.912 -0.8252 -3.9012 -1.0355
  220MOL    H1039868   1.683   4.784   7.055  0.4710 -0.4236  2.0824
  220MOL    C1139869   1.499   4.747   7.408  0.4187 -0.6875  0.4380
  220MOL    C1239870   1.518   4.861   7.504 -1.1382  0.5464  0.9352
  220MOL    C1339871   1.541   4.609   7.470  0.2117  0.0265 -0.8076
  220MOL    O1439872   1.656   4.570   7.472  0.2877  0.2351  0.5029
  220MOL    O1539873   1.439   4.540   7.515  0.0732  0.0544 -0.0915
  220MOL    H1639874   1.392   4.752   7.388  0.3029 -2.2054  0.6359
  220MOL    H1739875   1.444   4.860   7.585 -1.4728 -1.0154  0.6280
  220MOL    H1839876   1.613   4.863   7.558 -1.8377  1.0297  2.1874
  220MOL    H1939877   1.512   4.954   7.448  1.4732 -1.6643 -3.2229
  220MOL    C2039878   1.451   4.399   7.555 -0.4852 -0.5914 -0.0931
  220MOL    C2139879   1.309   4.336   7.568 -0.0201  0.2016 -0.2156
  220MOL    C2239880   1.535   4.395   7.680  0.2915  0.8532 -0.1735
  220MOL    O2339881   1.638   4.329   7.693 -0.1408 -0.4654  1.0631
  220MOL    O2439882   1.482   4.479   7.776 -0.0900  0.6449  0.4455
  220MOL    H2539883   1.512   4.355   7.476  0.4863  0.6331 -0.0403
  220MOL    H2639884   1.312   4.249   7.634 -1.1374  0.3586  0.0577
  220MOL    H2739885   1.245   4.406   7.622 -0.6488 -2.6630  2.9870
  220MOL    H2839886   1.267   4.303   7.473  0.6820  1.6217 -1.0298
  220MOL    C2939887   1.556   4.511   7.888 -0.3919 -0.3569 -0.1263
  220MOL    C3039888   1.459   4.579   7.986  0.6754 -0.0391 -0.4003
  220MOL    C3139889   1.677   4.607   7.859  0.1700 -0.4434  0.1168
  220MOL    O3239890   1.657   4.722   7.805 -0.8650  0.0337  0.4307
  220MOL    O3339891   1.792   4.552   7.898  0.5663  0.2666  0.0321
  220MOL    H3439892   1.604   4.424   7.933  0.8037  0.5382  0.3508
  220MOL    H3539893   1.517   4.611   8.073  0.2343  1.3121 -0.5982
  220MOL    H3639894   1.400   4.664   7.953  0.2759 -0.4672 -0.8031
  220MOL    H3739895   1.383   4.506   8.016 -0.1297  1.3414  1.0110
  220MOL    C3839896   1.912   4.622   7.885 -0.0438  0.6126 -0.2786
  220MOL    C3939897   2.017   4.529   7.819 -0.0899 -0.6641 -0.8566
  220MOL    C4039898   1.976   4.654   8.026  0.2039  0.3260 -1.0708
  220MOL    O4139899   1.909   4.641   8.128  0.0676 -0.4928 -0.0740
  220MOL    O4239900   2.112   4.671   8.030 -0.0745  0.7267 -0.6692
  220MOL    H4339901   1.904   4.715   7.829 -1.6344  0.9764  0.5264
  220MOL    H4439902   1.966   4.474   7.740 -0.3992 -0.1310 -1.0322
  220MOL    H4539903   2.104   4.578   7.776  0.3133  0.2983  0.9903
  220MOL    H4639904   2.058   4.457   7.890  1.1551 -0.0820 -0.9744
  220MOL    C4739905   2.169   4.690   0.010 -0.4112 -0.5263 -0.4959
  220MOL    C4839906   2.310   4.743   8.139 -0.1246 -0.5200 -0.0019
  220MOL    C4939907   2.167   4.562   0.098  0.5824 -0.4632  0.2662
  220MOL    O5039908   2.147   4.453   0.050  0.8763  0.3054 -0.7991
  220MOL    O5139909   2.215   4.584   0.224 -0.0338  0.0242 -0.7451
  220MOL    H5239910   2.125   4.767   0.074  1.5831 -0.8504  1.3129
  220MOL    H5339911   2.309   4.834   8.078  2.6391  0.4875  1.3584
  220MOL    H5439912   2.347   4.782   0.086 -0.5286  2.1917 -0.9092
  220MOL    H5539913   2.381   4.671   8.099 -0.0367 -0.2779 -0.2803
  220MOL    C5639914   2.243   4.465   0.303  0.2004 -0.0028 -0.0207
  220MOL    C5739915   2.251   4.524   0.443 -0.0393  0.3311  0.0631
  220MOL    C5839916   2.382   4.407   0.265 -0.2302  0.6006 -0.1901
  220MOL    O5939917   2.466   4.467   0.194 -0.0150 -0.2478  0.5798
  220MOL    O6039918   2.397   4.293   0.332  0.1070 -0.4669 -0.1848
  220MOL    H6139919   2.168   4.387   0.292 -1.8105  2.1035 -1.8167
  220MOL    H6239920   2.164   4.572   0.487  0.2309  0.7659  0.1245
  220MOL    H6339921   2.272   4.450   0.520  1.3764  0.0970 -0.5335
  220MOL    H6439922   2.333   4.596   0.452  0.7377 -0.5885  0.3836
  220MOL    C6539923   2.532   4.251   0.349  0.1347  0.3736 -0.3928
  220MOL    C6639924   2.536   4.101   0.378 -0.3345 -0.4274  0.5531
  220MOL    C6739925   2.590   4.338   0.466 -0.0033 -0.2910 -0.4545
  220MOL    O6839926   2.687   4.410   0.449  0.7810  0.3231  0.2008
  220MOL    O6939927   2.528   4.323   0.586 -0.2212 -0.0966  0.2004
  220MOL    H7039928   2.589   4.271   0.259 -0.5257  0.5804 -0.7650
  220MOL    H7139929   2.518   4.050   0.283  0.9973 -0.4886  0.3264
  220MOL    H7239930   2.633   4.067   0.416 -1.5339 -2.2556  2.1282
  220MOL    H7339931   2.467   4.062   0.453 -0.9076 -0.3214  0.0815
  220MOL    C7439932   2.567   4.376   0.712 -0.5724  0.6645 -0.0734
  220MOL    C7539933   2.518   4.522   0.727 -0.3287  0.0878  0.2845
  220MOL    C7639934   2.712   4.358   0.747 -0.5426 -0.2909 -0.3162
  220MOL    O7739935   2.780   4.453   0.777 -0.0901  0.3810  0.1883
  220MOL    O7839936   2.760   4.235   0.734 -0.5725  0.1416  0.1304
  220MOL    H7939937   2.522   4.313   0.789  2.7740 -1.4362  0.3044
  220MOL    H8039938   2.547   4.560   0.825  1.7168 -1.8405  0.4706
  220MOL    H8139939   2.563   4.585   0.651 -0.0220  0.3844  0.7054
  220MOL    H8239940   2.410   4.532   0.718 -0.3178 -0.2919 -0.3088
  220MOL    C8339941   2.888   4.203   0.789  0.4812  0.1728 -0.4112
  220MOL    C8439942   2.987   4.211   0.671  0.3490 -0.4888  0.6055
  220MOL    C8539943   2.883   4.060   0.857 -0.0306 -0.2427  0.0688
  220MOL    O8639944   2.950   3.966   0.806 -0.2935 -0.0373  0.7391
  220MOL    O8739945   2.808   4.044   0.971  0.0514 -0.0913 -0.6924
  220MOL    H8839946   2.934   4.262   0.868  2.1380 -1.6142 -0.0092
  220MOL    H8939947   2.928   4.181   0.585  0.7136 -0.6124  0.3980
  220MOL    H9039948   3.023   4.313   0.659  1.0699 -0.8704 -0.4396
  220MOL    H9139949   3.075   4.148   0.678  0.6974 -0.1368 -0.5053
  220MOL    C9239950   2.827   3.930   1.055 -0.9693 -0.0970  0.1851
  220MOL    C9339951   2.740   3.810   1.010  0.7507 -0.4060 -0.4147
  220MOL    C9439952   2.794   3.970   1.200  0.7010  0.3282  0.0283
  220MOL    O9539953   2.679   3.980   1.244  0.0998  0.4110  0.2455
  220MOL    O9639954   2.904   3.984   1.280  0.6635 -0.0420  0.4473
  220MOL    H9739955   2.932   3.902   1.058 -0.3866  1.8203 -1.1460
  220MOL    H9839956   2.729   3.741   1.094 -1.7254  2.5592  1.8030
  220MOL    H9939957   2.640   3.845   0.987  0.9855  1.4749  1.2849
  220MOL   H10039958   2.784   3.756   0.926  4.8021  3.6352 -1.1336
  220MOL   C10139959   2.895   4.008   1.421  0.0051  0.0650 -0.7499
  220MOL   C10239960   3.031   4.053   1.483 -0.2268  0.0447  0.3332
  220MOL   C10339961   2.839   3.889   1.494  0.5670  0.3403  0.2363
  220MOL   O10439962   2.740   3.901   1.568 -0.3176  0.1482  0.5716
  220MOL   O10539963   2.911   3.777   1.468 -0.1848 -0.5673 -0.0706
  220MOL   H10639964   2.836   4.095   1.445  0.9519  0.3669  0.5274
  220MOL   H10739965   3.024   4.030   1.589 -3.7310  0.9917  0.3595
  220MOL   H10839966   3.114   3.999   1.437  1.0105 -0.7839  3.4277
  220MOL   H10939967   3.058   4.157   1.464  0.8955 -0.1925  0.6009
  220MOL   C11039968   2.877   3.650   1.522  0.6681 -0.0941 -0.3023
  220MOL   C11139969   3.009   3.592   1.575 -1.3843 -0.5852 -0.4076
  220MOL   C11239970   2.813   3.573   1.406 -0.4745 -0.1447 -0.2590
  220MOL   O11339971   2.722   3.621   1.337 -0.0621  0.2748 -1.1983
  220MOL   O11439972   2.873   3.454   1.382  0.3523 -0.1069 -0.0444
  220MOL   H11539973   2.801   3.651   1.601 -1.1918  0.0816 -2.0574
  220MOL   H11639974   3.073   3.667   1.621 -1.9436 -0.4141  0.0954
  220MOL   H11739975   2.974   3.522   1.652 -2.8426 -0.5779 -1.0420
  220MOL   H11839976   3.060   3.533   1.499  0.0583 -0.3895  0.3945
  220MOL   C11939977   2.845   3.386   1.265 -0.8078 -0.3722 -0.7585
  220MOL   C12039978   2.876   3.235   1.302 -0.3110  0.3749  0.5053
  220MOL   C12139979   2.933   3.436   1.153  0.7988  0.0077  0.0448
  220MOL   O12239980   2.883   3.478   1.051 -0.4652 -0.0631 -0.0215
  220MOL   O12339981   3.066   3.440   1.187 -0.0894 -0.0106 -0.0190
  220MOL   H12439982   2.742   3.411   1.238 -0.5212  1.2136 -0.4663
  220MOL   H12539983   2.864   3.171   1.214  1.3939  2.6042 -1.4485
  220MOL   H12639984   2.975   3.230   1.346  0.5243  1.6461 -1.1654
  220MOL   H12739985   2.804   3.200   1.375  1.5975 -2.8290  0.9392
  220MOL   C12839986   3.161   3.510   1.109  0.1538 -0.0743  0.2085
  220MOL   C12939987   3.299   3.468   1.142 -0.7619  0.1038  0.6132
  220MOL   C13039988   3.142   3.660   1.111 -0.1690  0.0256  0.2238
  220MOL   O13139989   3.055   3.715   1.179  0.0766 -0.4578  0.0135
  220MOL   O13239990   3.234   3.725   1.032 -0.3799  0.4249 -0.1145
  220MOL   H13339991   3.141   3.482   1.006 -1.5751 -0.2278  0.5627
  220MOL   H13439992   3.376   3.517   1.083 -2.5801  2.1077 -0.1700
  220MOL   H13539993   3.326   3.489   1.246  0.2818  0.3421  0.2994
  220MOL   H13639994   3.315   3.361   1.133 -0.6124  0.1277  0.5982
  220MOL   C13739995   3.218   3.863   1.001 -0.4188 -0.5229 -0.0040
  220MOL   C13839996   3.334   3.895   0.897 -0.3788 -0.7401  0.1701
  220MOL   C13939997   3.245   3.950   1.128 -0.1462  0.5163 -0.7142
  220MOL   O14039998   3.315   3.911   1.221 -0.1570 -0.1457 -0.0363
  220MOL   O14139999   3.183   4.076   1.114 -0.0678 -0.5631 -0.0693
  220MOL   H14240000   3.120   3.887   0.960 -1.0352 -0.2273  1.5999
  220MOL   H14340001   3.430   3.885   0.948 -0.7155  0.1993  1.0051
  220MOL   H14440002   3.338   3.827   0.812  0.0448 -1.0468  0.4341
  220MOL   H14540003   3.325   3.998   0.861 -0.4302 -0.7351  0.1976
  220MOL   C14640004   3.223   4.181   1.205  0.6457 -0.1402  0.1671
  220MOL   C14740005   3.103   4.279   1.212  0.1472  0.5295 -0.6600
  220MOL   C14840006   3.353   4.244   1.165 -0.1558  0.4281 -0.3892
  220MOL   O14940007   3.443   4.196   1.100  0.3050  0.2194  0.1020
  220MOL   O15040008   3.345   4.373   1.192 -0.9955  0.2082 -0.1466
  220MOL   H15140009   3.216   4.144   1.307  1.1132 -1.2344 -0.2001
  220MOL   H15240010   3.126   4.353   1.288 -1.5060 -0.4562  0.8205
  220MOL   H15340011   3.087   4.339   1.122 -0.9178  0.2538 -0.6500
  220MOL   H15440012   3.008   4.233   1.237  0.1070  1.5626  1.1681
  220MOL   C15540013   3.436   4.472   1.149 -0.0748 -0.4510  0.6923
  220MOL   C15640014   3.428   4.604   1.230  0.2675 -0.4899  0.1273
  220MOL   C15740015   3.424   4.509   0.999 -0.1147  0.0524  0.1528
  220MOL   O15840016   3.518   4.521   0.921  0.0432 -0.6277 -0.9961
  220MOL   O15940017   3.296   4.523   0.965 -0.4013  0.4893 -0.4049
  220MOL   H16040018   3.538   4.434   1.156  1.0682  2.0434 -1.2380
  220MOL   H16140019   3.326   4.639   1.247  0.6648  0.6425  0.1681
  220MOL   H16240020   3.470   4.584   1.329  1.9980 -0.6074 -0.6311
  220MOL   H16340021   3.497   4.677   1.188  1.9853 -1.0618  1.8638
  220MOL   C16440022   3.260   4.500   0.827 -0.2766 -0.4490  0.2019
  220MOL   C16540023   3.119   4.552   0.796 -0.8846  0.7746 -0.1017
  220MOL   C16640024   3.277   4.348   0.792 -0.0490 -0.4507 -0.7220
  220MOL   O16740025   3.240   4.262   0.870 -0.1387 -0.6105  0.4454
  220MOL   O16840026   3.326   4.328   0.672  0.6094  1.0596 -0.1286
  220MOL   H16940027   3.316   4.560   0.755 -2.3033 -0.0185 -1.0672
  220MOL   H17040028   3.061   4.495   0.868  0.4267 -1.5919 -0.8662
  220MOL   H17140029   3.118   4.660   0.813  3.1475  1.2662 -2.1428
  220MOL   H17240030   3.091   4.519   0.696  0.8884 -2.0304  0.2615
  220MOL   C17340031   3.364   4.202   0.630 -0.0920  0.4176 -0.2393
  220MOL   C17440032   3.518   4.187   0.652  0.4053  0.0605  0.0709
  220MOL   C17540033   3.324   4.209   0.484  0.1857 -0.1659  0.4316
  220MOL   O17640034   3.244   4.132   0.432 -0.2668 -0.1743 -0.1481
  220MOL   O17740035   3.392   4.308   0.406  0.3985  0.4561 -0.2732
  220MOL   H17840036   3.304   4.126   0.679  1.0282 -0.3130  0.0307
  220MOL   H17940037   3.538   4.159   0.755  0.6571 -2.5024 -0.6471
  220MOL   H18040038   3.555   4.103   0.593 -1.2877 -0.4676 -0.2828
  220MOL   H18140039   3.562   4.277   0.608  0.3943 -0.4879 -1.0946
  220MOL   H18240040   3.366   4.293   0.317  0.0318  2.9092 -0.6300
  221MOL     C140041   1.100   0.495   4.854 -0.3219  0.0605 -0.3324
  221MOL     C240042   1.062   0.565   4.989 -0.5082  0.2742 -0.8875
  221MOL     C340043   1.222   0.549   4.785  0.7078  0.8032  0.0992
  221MOL     O440044   1.319   0.589   4.849 -0.6537  0.5581  0.2967
  221MOL     O540045   1.206   0.544   4.650 -0.4920  0.3325  0.3351
  221MOL     H640046   1.113   0.390   4.879  1.4600  0.3269 -0.0819
  221MOL     H740047   1.071   0.492   5.069  0.4424  1.2341 -0.0960
  221MOL     H840048   1.118   0.654   5.019 -1.0743  0.4518 -0.3516
  221MOL     H940049   0.958   0.594   4.980 -0.2397  1.2358 -0.9435
  221MOL    H1040050   1.016   0.504   4.784  0.2556 -0.2888 -1.0786
  221MOL    C1140051   1.294   0.617   4.554  0.8305 -0.2883  0.1762
  221MOL    C1240052   1.422   0.553   4.533 -0.3716  0.2656  0.5516
  221MOL    C1340053   1.304   0.768   4.603  0.1203 -0.7794  0.5797
  221MOL    O1440054   1.413   0.813   4.613 -0.2183 -0.9417  0.2360
  221MOL    O1540055   1.185   0.834   4.628  0.0373  0.3874 -0.1210
  221MOL    H1640056   1.235   0.603   4.463 -0.8004 -0.7799  1.2927
  221MOL    H1740057   1.487   0.571   4.618 -0.2399  0.9887  0.2994
  221MOL    H1840058   1.404   0.448   4.509  2.6990 -0.0203 -0.7660
  221MOL    H1940059   1.475   0.597   4.448 -0.2311 -1.1760 -0.1243
  221MOL    C2040060   1.181   0.965   4.697 -0.5998  0.5494  0.1673
  221MOL    C2140061   1.034   0.993   4.733 -0.1271 -0.4941 -0.6316
  221MOL    C2240062   1.225   1.074   4.593 -0.2528 -0.5902 -0.4096
  221MOL    O2340063   1.199   1.064   4.475  0.5726 -0.2593 -0.2511
  221MOL    O2440064   1.278   1.181   4.655 -0.4973  0.5361 -0.1511
  221MOL    H2540065   1.253   0.960   4.779 -0.1258 -1.4450 -0.3397
  221MOL    H2640066   0.971   0.986   4.645  0.7226 -1.1865 -1.1888
  221MOL    H2740067   0.987   0.928   4.807 -0.2972 -0.3333 -0.5977
  221MOL    H2840068   1.030   1.098   4.763  1.6498 -0.4707 -0.4434
  221MOL    C2940069   1.299   1.303   4.582 -0.1735  0.2140 -0.0083
  221MOL    C3040070   1.395   1.389   4.662 -0.2959  0.5718 -0.7109
  221MOL    C3140071   1.162   1.379   4.547  0.0732  0.3793 -0.1010
  221MOL    O3240072   1.130   1.409   4.436 -0.0859  0.2105  0.2401
  221MOL    O3340073   1.079   1.401   4.661  0.4363 -0.2631 -0.1522
  221MOL    H3440074   1.346   1.276   4.488 -0.6537  0.6120 -0.3613
  221MOL    H3540075   1.467   1.322   4.709 -1.1365 -0.1427 -0.4199
  221MOL    H3640076   1.441   1.454   4.588  0.5035 -0.6621 -1.3204
  221MOL    H3740077   1.353   1.454   4.739  0.4424 -0.6811  0.7879
  221MOL    C3840078   0.941   1.438   4.645  1.4453 -0.5725  0.5720
  221MOL    C3940079   0.888   1.468   4.786 -0.0827  0.1008 -0.7125
  221MOL    C4040080   0.866   1.316   4.593 -0.1002 -0.4424  0.2586
  221MOL    O4140081   0.828   1.224   4.668 -0.0292 -0.1562  0.1868
  221MOL    O4240082   0.856   1.311   4.454  0.4407  0.0447  0.4317
  221MOL    H4340083   0.930   1.518   4.571  2.3060 -3.6223 -3.0557
  221MOL    H4440084   0.896   1.389   4.861  3.8853  1.3989  0.3412
  221MOL    H4540085   0.950   1.547   4.829  0.1790  0.3988 -1.6366
  221MOL    H4640086   0.789   1.514   4.791  1.5762  3.6882  1.4392
  221MOL    C4740087   0.820   1.185   4.397  0.5721 -0.7136  0.3356
  221MOL    C4840088   0.852   1.205   4.250  0.1725  0.2292  0.2075
  221MOL    C4940089   0.666   1.150   4.417  0.7122  0.1960 -0.0110
  221MOL    O5040090   0.588   1.239   4.454  0.5541  0.1092 -0.7119
  221MOL    O5140091   0.639   1.030   4.384 -0.3829 -0.1872  0.1472
  221MOL    H5240092   0.886   1.112   4.443  0.5283 -1.2461 -0.4489
  221MOL    H5340093   0.855   1.108   4.201  0.9026  1.6240 -2.6401
  221MOL    H5440094   0.770   1.264   4.208  0.0751 -0.2035 -0.2141
  221MOL    H5540095   0.951   1.249   4.240 -0.1750  0.9929  0.0813
  221MOL    C5640096   0.509   0.970   4.387 -0.1638  0.1676  0.2897
  221MOL    C5740097   0.522   0.826   4.353  0.5691 -0.3092  0.2786
  221MOL    C5840098   0.421   1.026   4.270 -0.1903 -0.1640  0.4812
  221MOL    O5940099   0.471   1.079   4.172 -0.8201  0.0254 -0.5254
  221MOL    O6040100   0.290   1.022   4.295 -0.7316  0.4410  0.2393
  221MOL    H6140101   0.449   0.987   4.476  0.3561  2.7416  0.1938
  221MOL    H6240102   0.577   0.784   4.437  0.2207 -0.8060  0.2608
  221MOL    H6340103   0.432   0.769   4.329  0.7261 -0.8085  0.8508
  221MOL    H6440104   0.583   0.801   4.266  2.3216 -1.4326  1.7739
  221MOL    C6540105   0.199   1.080   4.204  0.1138  0.1421  0.4321
  221MOL    C6640106   0.063   1.107   4.274  0.3241  0.2150 -0.3104
  221MOL    C6740107   0.188   0.984   4.079 -0.4536 -0.7091  0.3456
  221MOL    O6840108   0.162   1.028   3.967 -0.0239 -0.5671 -0.1817
  221MOL    O6940109   0.203   0.857   4.110 -0.1607  0.3683  0.0105
  221MOL    H7040110   0.239   1.179   4.182  1.4493 -0.3141  0.7744
  221MOL    H7140111   0.004   1.183   4.222  0.8242 -0.6353 -2.1858
  221MOL    H7240112   8.147   1.019   4.286 -0.5488  0.8835  0.0618
  221MOL    H7340113   0.079   1.148   4.373 -1.0421  0.9538 -0.3882
  221MOL    C7440114   0.211   0.750   4.009 -0.1493 -0.3976 -0.1922
  221MOL    C7540115   0.164   0.621   4.070  0.5232 -0.7706 -0.1383
  221MOL    C7640116   0.360   0.735   3.957  0.1893 -0.5416  0.5875
  221MOL    O7740117   0.450   0.762   4.033 -0.5656 -0.0014  0.6108
  221MOL    O7840118   0.375   0.691   3.836  0.1811  0.2941 -0.2323
  221MOL    H7940119   0.147   0.770   3.922 -0.7019 -0.7336  0.1331
  221MOL    H8040120   0.077   0.632   4.134  0.2747 -2.2476 -0.2019
  221MOL    H8140121   0.136   0.549   3.993 -0.3291 -1.2877  0.6554
  221MOL    H8240122   0.247   0.580   4.128  0.4810 -1.6832 -0.7128
  221MOL    C8340123   0.500   0.641   3.784  0.9615  0.3364  0.5194
  221MOL    C8440124   0.456   0.616   3.633  0.1627  0.1040 -0.0165
  221MOL    C8540125   0.539   0.507   3.863  0.3645  0.1354 -0.7328
  221MOL    O8640126   0.478   0.400   3.854 -0.2983 -0.4040  0.0106
  221MOL    O8740127   0.649   0.530   3.942  0.3554 -0.0554  0.6014
  221MOL    H8840128   0.577   0.718   3.791  0.8737  0.4049  0.7231
  221MOL    H8940129   0.543   0.593   3.573 -0.2256  1.1579 -0.9833
  221MOL    H9040130   0.392   0.527   3.627  0.0838  0.1365  0.3367
  221MOL    H9140131   0.396   0.697   3.592 -0.5009  0.3066  1.3047
  221MOL    C9240132   0.707   0.429   4.029  0.0700  0.0154 -0.4764
  221MOL    C9340133   0.817   0.493   4.111 -0.0613  0.7266 -0.3376
  221MOL    C9440134   0.757   0.318   3.945  0.0777 -0.1836  0.0203
  221MOL    O9540135   0.714   0.205   3.974 -0.3511  0.0494  0.0415
  221MOL    O9640136   0.843   0.357   3.853 -1.0907 -0.0653 -0.2365
  221MOL    H9740137   0.628   0.395   4.096  0.2051 -0.1594 -0.4051
  221MOL    H9840138   0.788   0.496   4.216  1.9903  2.6615  0.2324
  221MOL    H9940139   0.915   0.446   4.098 -0.9920 -1.0387 -1.0909
  221MOL   H10040140   0.827   0.593   4.069  0.5000  0.8217  0.0137
  221MOL   C10140141   0.858   0.282   3.737 -0.0324 -0.0110 -0.0971
  221MOL   C10240142   0.983   0.312   3.660  0.8202 -0.3060 -0.5748
  221MOL   C10340143   0.746   0.308   3.637  0.5344 -0.7872 -0.8643
  221MOL   O10440144   0.710   0.424   3.619 -0.2125 -0.0205  0.8428
  221MOL   O10540145   0.688   0.199   3.580  0.0921 -0.3802 -0.2824
  221MOL   H10640146   0.857   0.177   3.765  2.3963  0.2081  0.9950
  221MOL   H10740147   1.066   0.304   3.730 -0.4516 -3.0373  0.6964
  221MOL   H10840148   0.980   0.234   3.583  2.6296 -0.3262 -0.6565
  221MOL   H10940149   0.977   0.407   3.607  0.3326 -0.4036 -0.6961
  221MOL   C11040150   0.585   0.220   3.485  0.3953  0.3272  0.2626
  221MOL   C11140151   0.518   0.084   3.455 -0.0663  0.3717  0.5620
  221MOL   C11240152   0.650   0.275   3.357  0.5908  0.1505  0.5970
  221MOL   O11340153   0.766   0.259   3.322 -0.3834 -0.2956 -0.2406
  221MOL   O11440154   0.566   0.342   3.275  0.1323 -0.6672 -0.8136
  221MOL   H11540155   0.508   0.290   3.517 -0.9715 -1.8030  1.7559
  221MOL   H11640156   0.453   0.105   3.369  1.3094  1.4608 -0.2344
  221MOL   H11740157   0.591   0.008   3.429 -0.6598  0.1062 -0.3694
  221MOL   H11840158   0.469   0.040   3.541  1.4122 -1.3625  0.5457
  221MOL   C11940159   0.605   0.363   3.142 -0.3031 -0.3723  0.1331
  221MOL   C12040160   0.505   0.462   3.069 -0.3693  0.3165 -0.0932
  221MOL   C12140161   0.611   0.238   3.063  0.5902 -0.3834 -0.6065
  221MOL   O12240162   0.532   0.146   3.090 -0.3442  0.2874 -0.5427
  221MOL   O12340163   0.702   0.238   2.968 -0.4643  0.4872 -0.4918
  221MOL   H12440164   0.702   0.413   3.141 -0.3296 -0.2635  1.2813
  221MOL   H12540165   0.551   0.522   2.990  0.5228 -1.4731 -0.9696
  221MOL   H12640166   0.411   0.411   3.047 -0.0397 -1.4088  2.2494
  221MOL   H12740167   0.479   0.535   3.145  0.8872  1.3711 -0.6572
  221MOL   C12840168   0.746   0.117   2.901 -0.5225 -0.1259 -0.7439
  221MOL   C12940169   0.899   0.088   2.932 -0.1465  0.4836 -0.6298
  221MOL   C13040170   0.716   0.132   2.748 -0.3258 -0.1718 -0.5878
  221MOL   O13140171   0.665   0.043   2.684  0.7284 -0.5178 -0.2178
  221MOL   O13240172   0.767   0.250   2.695 -0.1077 -0.3728  0.6872
  221MOL   H13340173   0.681   0.036   2.935  0.0564 -1.3343 -2.4122
  221MOL   H13440174   0.970   0.160   2.893  1.5798 -1.9405 -2.0940
  221MOL   H13540175   0.907   0.077   3.040 -1.8450 -0.5309 -0.5895
  221MOL   H13640176   0.929   8.141   2.886 -0.1917  0.6027 -0.9066
  221MOL   C13740177   0.773   0.270   2.556  0.1733  0.2009 -0.1269
  221MOL   C13840178   0.872   0.381   2.523 -0.3306  0.3585 -0.2448
  221MOL   C13940179   0.633   0.292   2.505  0.4911 -0.7861 -0.1473
  221MOL   O14040180   0.594   0.236   2.401  0.2110  0.0423 -0.2965
  221MOL   O14140181   0.563   0.392   2.573 -0.0657 -0.2103  0.4295
  221MOL   H14240182   0.816   0.179   2.514  1.7856  1.9757 -2.4606
  221MOL   H14340183   0.851   0.476   2.572 -0.7764 -0.0933  0.4522
  221MOL   H14440184   0.976   0.352   2.541 -0.5465  0.6248  1.5623
  221MOL   H14540185   0.867   0.411   2.419  0.3001 -0.4526 -0.5157
  221MOL   C14640186   0.428   0.442   2.544  0.0197 -0.1355  0.7644
  221MOL   C14740187   0.403   0.553   2.648  0.0125  0.3909  0.1844
  221MOL   C14840188   0.320   0.334   2.551  0.8038  0.6625 -0.0816
  221MOL   O14940189   0.249   0.324   2.652 -0.3773  0.0959 -0.3916
  221MOL   O15040190   0.307   0.253   2.448  0.7082  0.6277  0.5137
  221MOL   H15140191   0.416   0.489   2.447  0.2973  0.0235  0.8075
  221MOL   H15240192   0.441   0.646   2.605  0.0894  0.3442  0.1521
  221MOL   H15340193   0.300   0.586   2.664  0.4372  2.5228 -1.2594
  221MOL   H15440194   0.446   0.523   2.743 -0.4339 -2.3738 -0.4636
  221MOL   C15540195   0.208   0.148   2.446  0.2961 -0.1463  0.0200
  221MOL   C15640196   0.232   0.045   2.337 -0.0171  0.3484  0.8647
  221MOL   C15740197   0.070   0.210   2.411  0.3252 -0.0195  0.1504
  221MOL   O15840198   8.109   0.159   2.443 -0.8602  0.1653  0.5613
  221MOL   O15940199   0.082   0.321   2.340 -0.1361 -0.5787  0.3197
  221MOL   H16040200   0.201   0.095   2.541  2.4274 -1.1012 -0.3449
  221MOL   H16140201   0.336   0.038   2.307 -0.0684  1.8581  0.3053
  221MOL   H16240202   0.205   8.092   2.369  0.8747 -0.8879 -2.1329
  221MOL   H16340203   0.188   0.077   2.243 -0.6578  0.9934  1.3711
  221MOL   C16440204   8.110   0.407   2.307  0.1639 -0.0802  0.0696
  221MOL   C16540205   8.058   0.490   2.424 -0.4360  0.0864  0.0427
  221MOL   C16640206   7.994   0.334   2.238 -0.4650 -1.5079 -0.4801
  221MOL   O16740207   7.885   0.307   2.292  0.2647  0.7514  0.2837
  221MOL   O16840208   8.029   0.292   2.119 -0.7740  0.1352 -0.4461
  221MOL   H16940209   8.144   0.478   2.232  1.2226 -0.1248  0.5006
  221MOL   H17040210   7.991   0.571   2.394 -2.2441 -1.1662  0.6190
  221MOL   H17140211   8.003   0.422   2.489  1.3050 -0.8747  0.5564
  221MOL   H17240212   8.136   0.528   2.490 -0.6225  0.4434  0.0612
  221MOL   C17340213   7.938   0.224   2.031 -0.0231 -0.2283 -0.1977
  221MOL   C17440214   8.013   0.130   1.935 -0.3257 -0.1372 -0.0826
  221MOL   C17540215   7.858   0.325   1.950  0.1508  0.2813  0.2253
  221MOL   O17640216   7.836   0.312   1.834  0.0122 -0.3618  0.0984
  221MOL   O17740217   7.801   0.421   2.025 -0.1579  0.9407 -0.1617
  221MOL   H17840218   7.866   0.165   2.088  0.1957 -1.1610 -0.8646
  221MOL   H17940219   8.080   0.171   1.860 -0.4670  1.6999  0.7617
  221MOL   H18040220   8.068   0.061   1.998  0.8962 -1.0165 -2.0597
  221MOL   H18140221   7.940   0.067   1.883 -1.9908  2.7883 -1.4371
  221MOL   H18240222   7.747   0.481   1.976  0.3745  2.3586  0.9636
  222MOL     C140223   1.820   5.355   4.349  0.2888 -1.0325 -0.4839
  222MOL     C240224   1.756   5.412   4.221  0.0020  0.4067  0.1877
  222MOL     C340225   1.777   5.208   4.365 -0.8216  0.1393 -0.0238
  222MOL     O440226   1.694   5.173   4.449 -0.3266 -0.2255  0.5303
  222MOL     O540227   1.825   5.139   4.269 -0.0137 -0.2625  0.4263
  222MOL     H640228   1.928   5.348   4.338  0.6784 -1.0851  2.6897
  222MOL     H740229   1.785   5.516   4.208 -1.5304  0.6054 -1.9528
  222MOL     H840230   1.789   5.369   4.126 -1.9207 -1.1561  0.1845
  222MOL     H940231   1.648   5.402   4.208 -0.0190  2.8435 -1.9823
  222MOL    H1040232   1.804   5.413   4.440  0.5269  1.2729 -1.8608
  222MOL    C1140233   1.786   5.003   4.239  0.6485 -0.5503  0.1113
  222MOL    C1240234   1.909   4.932   4.174 -0.5664 -0.0016  0.2159
  222MOL    C1340235   1.662   4.997   4.136 -0.2407 -0.1509 -0.0963
  222MOL    O1440236   1.649   5.091   4.054  0.0564  0.0811  0.4102
  222MOL    O1540237   1.590   4.886   4.132  0.3041 -0.2190  0.4278
  222MOL    H1640238   1.760   4.948   4.329 -0.0521  2.4846  1.8621
  222MOL    H1740239   1.933   4.985   4.081 -1.2887  0.8237  0.4911
  222MOL    H1840240   1.991   4.943   4.244 -2.1139 -0.1229  2.0977
  222MOL    H1940241   1.875   4.830   4.157 -2.3609  0.4392  0.9829
  222MOL    C2040242   1.501   4.854   4.019 -0.2085 -0.3459  0.4082
  222MOL    C2140243   1.396   4.753   4.076 -0.6930 -0.6116  0.0014
  222MOL    C2240244   1.590   4.787   3.915 -0.2673 -0.4067 -0.0773
  222MOL    O2340245   1.619   4.666   3.912  0.2313  0.1239  0.1632
  222MOL    O2440246   1.638   4.873   3.836 -0.0257 -0.2476  0.1859
  222MOL    H2540247   1.451   4.940   3.974  2.0413  0.5498 -0.4910
  222MOL    H2640248   1.450   4.672   4.126  1.6531  1.5776  1.1238
  222MOL    H2740249   1.333   4.799   4.153 -0.7853 -0.9960  0.1573
  222MOL    H2840250   1.338   4.701   4.000 -2.2582 -0.7536  1.2655
  222MOL    C2940251   1.736   4.853   3.736 -0.2725 -0.0755  0.4941
  222MOL    C3040252   1.870   4.858   3.811 -0.1695 -0.3912 -0.4424
  222MOL    C3140253   1.739   4.949   3.620 -0.4711  0.4045  0.6627
  222MOL    O3240254   1.722   4.907   3.507 -0.7166 -0.0208  0.6859
  222MOL    O3340255   1.747   5.083   3.656  0.8059  0.0054 -0.1639
  222MOL    H3440256   1.735   4.751   3.697  2.9739 -0.9886  2.6230
  222MOL    H3540257   1.959   4.840   3.752 -1.5995  0.5005 -2.9336
  222MOL    H3640258   1.872   4.954   3.865 -0.3072 -0.5524 -0.1471
  222MOL    H3740259   1.871   4.785   3.892 -0.5750 -0.4082 -0.4491
  222MOL    C3840260   1.743   5.187   3.560 -0.4385 -0.0981  0.4199
  222MOL    C3940261   1.745   5.309   3.650 -0.2703 -0.1401 -0.3440
  222MOL    C4040262   1.609   5.189   3.475  0.0363 -0.3394  0.1985
  222MOL    O4140263   1.506   5.169   3.531  0.5748 -0.3146  0.1313
  222MOL    O4240264   1.620   5.207   3.338  0.0498 -0.1967  0.3646
  222MOL    H4340265   1.830   5.180   3.495 -0.7800 -1.1296  0.0526
  222MOL    H4440266   1.647   5.350   3.671  0.2166  1.6120 -1.4121
  222MOL    H4540267   1.808   5.296   3.738  0.1502  0.3286 -0.5775
  222MOL    H4640268   1.810   5.381   3.602 -1.1283 -0.8916 -2.6982
  222MOL    C4740269   1.512   5.183   3.246 -0.8221 -0.6376  0.4535
  222MOL    C4840270   1.400   5.281   3.261 -0.1937 -0.3058  0.6949
  222MOL    C4940271   1.476   5.041   3.225 -0.5291  0.0071 -0.1217
  222MOL    O5040272   1.367   5.001   3.178 -0.1767  0.2919  0.8300
  222MOL    O5140273   1.587   4.964   3.242  0.0560 -0.6499  0.3536
  222MOL    H5240274   1.562   5.221   3.157 -0.9634 -0.6708  0.3606
  222MOL    H5340275   1.368   5.282   3.157 -3.1830 -2.2749  1.5292
  222MOL    H5440276   1.322   5.240   3.325 -0.7523 -0.3010  0.0276
  222MOL    H5540277   1.440   5.376   3.295  1.0633 -1.1812  1.7152
  222MOL    C5640278   1.579   4.826   3.229 -0.0523 -0.2081 -0.1922
  222MOL    C5740279   1.601   4.785   3.088 -0.2044 -0.2873  0.0320
  222MOL    C5840280   1.460   4.758   3.308  0.3436  0.1591 -0.4387
  222MOL    O5940281   1.381   4.681   3.250 -0.5899  0.0290  0.1791
  222MOL    O6040282   1.449   4.805   3.432  0.8534  0.9256  0.5475
  222MOL    H6140283   1.671   4.797   3.280  0.5082  2.6384  0.5244
  222MOL    H6240284   1.691   4.826   3.043  0.5577 -0.3101  1.5231
  222MOL    H6340285   1.599   4.676   3.079 -1.5757 -0.2427 -0.4724
  222MOL    H6440286   1.518   4.807   3.021 -0.5877 -1.8482 -0.0365
  222MOL    C6540287   1.339   4.761   3.513 -0.3293  0.5042 -0.2666
  222MOL    C6640288   1.345   4.841   3.639  0.0725  0.0513 -0.5824
  222MOL    C6740289   1.347   4.610   3.546  0.3436 -0.0347 -0.2172
  222MOL    O6840290   1.247   4.561   3.611  0.1815  0.2607 -0.2003
  222MOL    O6940291   1.468   4.550   3.520 -0.5502 -0.2830  0.5975
  222MOL    H7040292   1.243   4.794   3.472 -0.6999  3.3286  2.6220
  222MOL    H7140293   1.246   4.845   3.684 -0.1390 -0.4751 -1.0024
  222MOL    H7240294   1.407   4.797   3.717 -1.2180 -0.0740  0.3951
  222MOL    H7340295   1.372   4.945   3.620  2.1487 -0.1506  1.1336
  222MOL    C7440296   1.511   4.430   3.588 -0.3350 -0.3522 -0.1887
  222MOL    C7540297   1.660   4.416   3.554  0.0123 -0.0792 -0.4100
  222MOL    C7640298   1.424   4.316   3.549 -0.1450  0.5832  0.6671
  222MOL    O7740299   1.447   4.239   3.448 -0.3389 -0.3444 -0.2186
  222MOL    O7840300   1.323   4.292   3.637  0.1352 -0.0350 -0.5897
  222MOL    H7940301   1.490   4.450   3.693  0.2515 -1.3210  0.1127
  222MOL    H8040302   1.675   4.388   3.450 -1.5117  0.6700 -0.8308
  222MOL    H8140303   1.713   4.506   3.585 -0.3147  0.2173 -0.7215
  222MOL    H8240304   1.696   4.335   3.618 -0.6776  0.5660  0.8208
  222MOL    C8340305   1.237   4.178   3.628  0.7769 -0.8725  0.9088
  222MOL    C8440306   1.102   4.212   3.683  0.2278  0.2976  0.0098
  222MOL    C8540307   1.324   4.071   3.699  0.4165  0.5715  0.1631
  222MOL    O8640308   1.440   4.081   3.725  0.4541  0.5319 -1.2417
  222MOL    O8740309   1.244   3.961   3.722  0.4597 -0.2486 -0.0494
  222MOL    H8840310   1.225   4.142   3.526 -1.1758 -1.7009  1.4176
  222MOL    H8940311   1.031   4.129   3.682 -0.1521  0.6225 -0.2294
  222MOL    H9040312   1.116   4.232   3.790  1.1937 -1.0141  0.1422
  222MOL    H9140313   1.057   4.299   3.636  1.3939  0.6743 -0.4335
  222MOL    C9240314   1.299   3.842   3.759  0.1341  0.4508 -0.7313
  222MOL    C9340315   1.188   3.747   3.740 -0.2683 -0.3421  0.1610
  222MOL    C9440316   1.348   3.847   3.908 -0.6764 -0.4556  0.0560
  222MOL    O9540317   1.305   3.924   3.995 -0.0118  0.0333  0.0613
  222MOL    O9640318   1.449   3.752   3.918 -0.0643  0.0941 -0.0523
  222MOL    H9740319   1.381   3.811   3.693 -0.2289 -1.3875 -0.3366
  222MOL    H9840320   1.208   3.650   3.785 -1.5266 -0.4338  0.5591
  222MOL    H9940321   1.094   3.775   3.787 -0.7323 -0.8730 -0.4293
  222MOL   H10040322   1.163   3.738   3.634 -0.3912  1.6468  0.0159
  222MOL   C10140323   1.506   3.716   4.049 -0.2532  0.0270 -0.3944
  222MOL   C10240324   1.633   3.629   4.021  0.8141  0.5882  0.0570
  222MOL   C10340325   1.405   3.651   4.140 -0.0387  0.0106  0.7224
  222MOL   O10440326   1.415   3.650   4.262 -0.2198  0.5493  0.6423
  222MOL   O10540327   1.316   3.579   4.068  0.6217  0.7261 -0.3284
  222MOL   H10640328   1.543   3.806   4.098  0.3215  0.6221 -1.8589
  222MOL   H10740329   1.678   3.664   3.928 -0.7047 -1.3285 -1.4322
  222MOL   H10840330   1.709   3.639   4.099  0.5885  0.7588  0.2582
  222MOL   H10940331   1.619   3.521   4.016 -0.9598  0.7750  0.7946
  222MOL   C11040332   1.227   3.495   4.145 -0.7751 -0.2327  0.1485
  222MOL   C11140333   1.201   3.368   4.063  0.5116 -0.4189  0.9141
  222MOL   C11240334   1.100   3.576   4.188 -0.2744 -0.5323 -0.4058
  222MOL   O11340335   1.068   3.676   4.132  0.2979  0.0573 -0.5337
  222MOL   O11440336   1.044   3.523   4.291 -0.0273  0.0348 -0.1786
  222MOL   H11540337   1.265   3.463   4.242  0.3304  2.2902  0.5919
  222MOL   H11640338   1.284   3.298   4.068  0.8671 -0.0421  0.4107
  222MOL   H11740339   1.112   3.321   4.104 -0.0654  0.7327  1.0073
  222MOL   H11840340   1.177   3.386   3.958  0.4304  1.3592  1.2131
  222MOL   C11940341   0.915   3.560   4.336 -0.6234 -0.1931 -0.2860
  222MOL   C12040342   0.902   3.497   4.477 -0.0233 -0.6832 -0.8595
  222MOL   C12140343   0.804   3.525   4.243 -0.4267 -0.4178  0.2810
  222MOL   O12240344   0.817   3.473   4.134  0.3298 -0.7065 -0.0098
  222MOL   O12340345   0.686   3.561   4.305 -0.1806  0.8480  0.4314
  222MOL   H12440346   0.919   3.667   4.355 -0.9217 -0.1456 -0.5116
  222MOL   H12540347   0.996   3.508   4.531 -0.7795  0.8052  0.1738
  222MOL   H12640348   0.826   3.561   4.522  0.9427 -0.2427  0.1435
  222MOL   H12740349   0.872   3.393   4.468 -1.3997 -0.3433 -0.3294
  222MOL   C12840350   0.560   3.526   4.239 -0.2642 -0.4832  0.7030
  222MOL   C12940351   0.449   3.620   4.287  0.8525 -0.2016 -0.2924
  222MOL   C13040352   0.531   3.378   4.229 -0.0704  0.0147 -0.1473
  222MOL   O13140353   0.445   3.335   4.149  0.2902  0.4535  0.5781
  222MOL   O13240354   0.594   3.310   4.328  0.2663 -0.1577  0.5082
  222MOL   H13340355   0.581   3.554   4.136 -1.0994 -1.7184  0.1873
  222MOL   H13440356   0.474   3.725   4.301 -1.7957  0.3963  0.3730
  222MOL   H13540357   0.365   3.623   4.217  1.1729  0.3116 -0.6566
  222MOL   H13640358   0.419   3.589   4.387 -1.5632  1.8253 -0.3245
  222MOL   C13740359   0.616   3.171   4.315  0.1478 -0.1619 -1.1289
  222MOL   C13840360   0.637   3.119   4.466 -0.0689  0.4651 -0.1261
  222MOL   C13940361   0.740   3.160   4.224 -0.3059  0.3764  0.9528
  222MOL   O14040362   0.852   3.168   4.271 -0.1047  0.1529 -0.3732
  222MOL   O14140363   0.712   3.157   4.097 -0.7393  0.0135 -0.0400
  222MOL   H14240364   0.538   3.109   4.269  0.6980 -0.3447 -1.8166
  222MOL   H14340365   0.699   3.191   4.518 -0.2300  0.8699 -0.4901
  222MOL   H14440366   0.543   3.101   4.519  0.2974  0.3104  0.4761
  222MOL   H14540367   0.706   3.035   4.464  2.9967  2.8681  1.4068
  222MOL   C14640368   0.813   3.177   3.996  0.4207 -0.0918 -0.4202
  222MOL   C14740369   0.723   3.200   3.872 -0.9528 -0.2786  0.0422
  222MOL   C14840370   0.906   3.060   3.992  0.5659  0.1674  0.1146
  222MOL   O14940371   0.891   2.958   4.059 -0.2986 -0.1288  0.4087
  222MOL   O15040372   1.012   3.087   3.910  0.2938 -0.4731 -0.0237
  222MOL   H15140373   0.881   3.261   4.015 -0.8635  0.5703  1.3525
  222MOL   H15240374   0.663   3.288   3.893 -0.8139 -0.2224  0.2098
  222MOL   H15340375   0.779   3.208   3.779 -0.3021  1.6798  0.5816
  222MOL   H15440376   0.657   3.113   3.872 -0.0075 -1.0175  1.2288
  222MOL   C15540377   1.116   2.990   3.887 -0.0614 -0.5446  0.7550
  222MOL   C15640378   1.220   2.978   4.004 -0.3751  0.5227 -0.5633
  222MOL   C15740379   1.182   3.015   3.746  0.5034 -0.7299 -0.4477
  222MOL   O15840380   1.149   2.964   3.641  1.1880  0.0886  0.3800
  222MOL   O15940381   1.281   3.102   3.745  0.5305 -0.1814 -0.0693
  222MOL   H16040382   1.066   2.893   3.877  0.7111 -0.9659  0.9132
  222MOL   H16140383   1.300   2.910   3.977 -0.7093 -1.3451  2.9243
  222MOL   H16240384   1.261   3.067   4.054  0.3715 -2.0684  3.7193
  222MOL   H16340385   1.171   2.933   4.090  2.3664  0.8450  1.2353
  222MOL   C16440386   1.351   3.148   3.630 -0.2145 -0.4995 -0.4244
  222MOL   C16540387   1.493   3.173   3.670 -0.4619 -0.1217  0.4629
  222MOL   C16640388   1.289   3.276   3.572 -0.1254 -0.0201 -0.2252
  222MOL   O16740389   1.192   3.334   3.630  0.0144 -0.3965  1.0993
  222MOL   O16840390   1.342   3.304   3.454 -0.6315  0.3443 -0.1006
  222MOL   H16940391   1.353   3.074   3.551  0.8028 -1.8386  0.8190
  222MOL   H17040392   1.528   3.276   3.656 -1.0896 -0.0350 -0.5305
  222MOL   H17140393   1.519   3.145   3.772 -1.2165 -0.4171  0.5743
  222MOL   H17240394   1.556   3.115   3.603 -0.1185  0.3453  0.3785
  222MOL   C17340395   1.285   3.384   3.358 -0.2080 -1.4590 -0.3297
  222MOL   C17440396   1.370   3.361   3.232 -0.4004 -0.1081 -0.5505
  222MOL   C17540397   1.281   3.529   3.407  0.0214 -0.7700 -0.0404
  222MOL   O17640398   1.179   3.597   3.413  0.1722  0.6012  0.1603
  222MOL   O17740399   1.410   3.572   3.437 -0.8381 -0.1215 -0.0879
  222MOL   H17840400   1.183   3.353   3.338  0.2843 -2.9335 -0.6629
  222MOL   H17940401   1.381   3.452   3.173 -1.7624  0.5692  0.2319
  222MOL   H18040402   1.473   3.341   3.261 -1.0377 -2.7414  0.0743
  222MOL   H18140403   1.345   3.267   3.182  0.7375 -0.4574 -0.4766
  222MOL   H18240404   1.400   3.662   3.464  0.2617 -0.4572  1.5371
  223MOL     C140405   2.499   2.061   1.495  0.5104 -1.1663  0.3166
  223MOL     C240406   2.426   2.164   1.575  1.2590  0.4590  0.5661
  223MOL     C340407   2.564   1.963   1.591 -0.3064 -0.7809 -0.5091
  223MOL     O440408   2.682   1.978   1.625 -0.1707 -0.3670  0.4913
  223MOL     O540409   2.478   1.866   1.634 -0.4643  0.2361  0.1352
  223MOL     H640410   2.442   2.009   1.417  0.9988 -0.5707 -0.4351
  223MOL     H740411   2.494   2.227   1.632  3.3150 -2.5661  1.5778
  223MOL     H840412   2.364   2.229   1.513  1.0680 -0.2056  0.0592
  223MOL     H940413   2.368   2.119   1.656  0.5658  0.8880  0.3140
  223MOL    H1040414   2.572   2.107   1.429 -0.5737  0.4029  0.1960
  223MOL    C1140415   2.525   1.778   1.730  0.3013 -0.4928 -0.1266
  223MOL    C1240416   2.441   1.650   1.726  0.0340 -0.0568 -0.3802
  223MOL    C1340417   2.532   1.838   1.868 -0.2190  0.6182 -0.4491
  223MOL    O1440418   2.639   1.845   1.926  0.0039 -0.1225 -0.1073
  223MOL    O1540419   2.407   1.872   1.917 -0.1130  0.2666  0.2295
  223MOL    H1640420   2.624   1.741   1.702  1.7608  2.0363  1.5459
  223MOL    H1740421   2.488   1.583   1.798 -2.5408 -0.2320  1.2337
  223MOL    H1840422   2.337   1.662   1.757 -0.1221 -0.9583 -0.5304
  223MOL    H1940423   2.433   1.607   1.626  0.1362  1.0971 -0.8843
  223MOL    C2040424   2.395   1.922   2.047 -0.0181 -0.3483 -0.6932
  223MOL    C2140425   2.382   1.815   2.160  0.2822 -0.6820  0.2049
  223MOL    C2240426   2.283   2.019   2.062 -0.4918  0.2205  0.3693
  223MOL    O2340427   2.297   2.141   2.058  0.0134 -0.4176 -0.4081
  223MOL    O2440428   2.163   1.964   2.056  0.0022 -0.3488  0.0321
  223MOL    H2540429   2.487   1.976   2.067 -1.6800  2.0663  0.7559
  223MOL    H2640430   2.290   1.759   2.148  0.1231 -0.2093 -0.8436
  223MOL    H2740431   2.471   1.753   2.162  2.4606  2.3234 -0.3577
  223MOL    H2840432   2.386   1.862   2.259  1.9325  1.2628 -0.7369
  223MOL    C2940433   2.042   2.037   2.090 -0.6282 -0.0154  0.6065
  223MOL    C3040434   1.942   1.944   2.167 -0.5525 -0.8410 -0.2373
  223MOL    C3140435   1.964   2.095   1.969 -0.1364 -0.7086  0.1286
  223MOL    O3240436   1.902   2.201   1.975  0.7284  0.4629 -0.1945
  223MOL    O3340437   1.951   2.018   1.862  0.0460 -0.4251 -0.5856
  223MOL    H3440438   2.076   2.117   2.156 -0.2351 -0.2804  0.7293
  223MOL    H3540439   2.006   1.890   2.237 -0.8015 -0.8638 -0.0281
  223MOL    H3640440   1.875   2.011   2.222 -0.5304 -0.2261 -0.9464
  223MOL    H3740441   1.896   1.876   2.097  0.6580 -1.8127 -0.1033
  223MOL    C3840442   1.893   2.059   1.738  0.1196 -0.9506 -0.0998
  223MOL    C3940443   1.902   1.942   1.637 -0.4614  0.1270 -0.1945
  223MOL    C4040444   1.962   2.185   1.677  0.0031 -0.3518 -0.5150
  223MOL    O4140445   2.085   2.197   1.690  0.1690 -0.0919 -0.9372
  223MOL    O4240446   1.880   2.268   1.604  0.4817  0.9065  0.2734
  223MOL    H4340447   1.787   2.085   1.745 -0.0131 -1.5091 -0.0124
  223MOL    H4440448   2.009   1.926   1.631 -0.5056 -1.1477  2.1317
  223MOL    H4540449   1.853   1.852   1.673  0.0287  1.3593  3.7903
  223MOL    H4640450   1.858   1.967   1.540  0.0343  3.1728  0.3216
  223MOL    C4740451   1.923   2.391   1.558 -0.3856  0.6259  0.6126
  223MOL    C4840452   1.800   2.479   1.590 -0.5501 -0.1116 -0.0269
  223MOL    C4940453   1.944   2.392   1.401 -0.9109  0.3789  0.6982
  223MOL    O5040454   1.927   2.290   1.333  0.5545  0.1549 -0.2603
  223MOL    O5140455   1.963   2.517   1.350  0.5177 -0.0068  0.4821
  223MOL    H5240456   2.015   2.434   1.599  0.5327 -0.3067 -0.4074
  223MOL    H5340457   1.786   2.474   1.698  3.5724 -0.3652  0.6051
  223MOL    H5440458   1.812   2.586   1.569  3.0378 -0.2203  1.1568
  223MOL    H5540459   1.707   2.436   1.553 -0.0248  0.0515 -1.5989
  223MOL    C5640460   1.927   2.543   1.213  0.0694  0.1768  0.9489
  223MOL    C5740461   2.039   2.639   1.164 -0.4974 -0.0530  0.6301
  223MOL    C5840462   1.787   2.607   1.207 -0.4347 -0.2629 -0.1100
  223MOL    O5940463   1.770   2.730   1.186  0.0281 -0.9903 -0.2586
  223MOL    O6040464   1.691   2.522   1.221 -0.0558 -0.0292 -0.3694
  223MOL    H6140465   1.932   2.449   1.158  0.6694  0.8346 -0.1289
  223MOL    H6240466   2.027   2.674   1.061 -0.6763 -0.6603  0.4428
  223MOL    H6340467   2.053   2.727   1.226  0.9562  0.3800 -0.2974
  223MOL    H6440468   2.134   2.587   1.159 -0.0356  0.8519 -0.1602
  223MOL    C6540469   1.558   2.555   1.190  0.3751 -0.2884 -0.4676
  223MOL    C6640470   1.436   2.495   1.266 -0.3223 -0.1003  0.5200
  223MOL    C6740471   1.534   2.520   1.042  0.2525 -0.1295  0.2702
  223MOL    O6840472   1.513   2.605   0.954 -0.3520  0.1935 -0.2891
  223MOL    O6940473   1.546   2.384   1.016  0.2785 -0.1983 -0.1360
  223MOL    H7040474   1.546   2.663   1.201  0.8602 -0.1612 -1.1547
  223MOL    H7140475   1.344   2.501   1.208  0.0091  0.1457  0.0242
  223MOL    H7240476   1.449   2.386   1.264  0.1945 -0.0549  1.2975
  223MOL    H7340477   1.432   2.511   1.374  1.3756 -2.3658  0.9711
  223MOL    C7440478   1.585   2.353   0.885 -0.5269  0.1700  0.0783
  223MOL    C7540479   1.577   2.209   0.873 -0.2643  0.5636  0.2325
  223MOL    C7640480   1.725   2.400   0.847 -0.2178  0.7653  0.1027
  223MOL    O7740481   1.808   2.452   0.927 -0.6625  0.3930  0.4749
  223MOL    O7840482   1.752   2.371   0.720  0.0937  0.4077 -0.5490
  223MOL    H7940483   1.515   2.380   0.805 -1.6536 -0.0385  0.9842
  223MOL    H8040484   1.473   2.187   0.893 -0.4550 -1.5101 -2.7625
  223MOL    H8140485   1.601   2.167   0.776  0.2705  0.9549  0.1878
  223MOL    H8240486   1.646   2.160   0.943 -0.5924 -0.4423 -0.1417
  223MOL    C8340487   1.869   2.419   0.667 -0.3818  0.0503 -0.2174
  223MOL    C8440488   1.866   2.400   0.510  0.0126  0.1938  0.6600
  223MOL    C8540489   1.994   2.343   0.726  0.0289  0.1563  0.5745
  223MOL    O8640490   2.079   2.401   0.800  0.3044 -0.6077 -0.1973
  223MOL    O8740491   2.004   2.211   0.700  0.3935 -0.0972  0.4677
  223MOL    H8840492   1.876   2.526   0.683  0.6028 -0.0714  0.1833
  223MOL    H8940493   1.789   2.464   0.467 -1.3698 -0.7790  1.6527
  223MOL    H9040494   1.961   2.431   0.466 -0.4245  1.9686  0.9345
  223MOL    H9140495   1.832   2.298   0.493  0.4285  0.3675 -1.3721
  223MOL    C9240496   2.103   2.131   0.764 -0.5693  0.2850 -0.2183
  223MOL    C9340497   2.133   2.007   0.681 -0.4297 -0.1799  0.3051
  223MOL    C9440498   2.047   2.089   0.906 -0.0158 -0.2477 -0.3988
  223MOL    O9540499   1.924   2.059   0.920 -0.5047  0.2696 -0.2784
  223MOL    O9640500   2.140   2.094   1.009 -0.2436 -0.0697  0.4041
  223MOL    H9740501   2.203   2.172   0.780  0.6756 -2.5495 -0.3546
  223MOL    H9840502   2.179   1.923   0.733 -0.7287 -0.0599  0.7700
  223MOL    H9940503   2.041   1.966   0.639  0.4653 -1.0458 -0.8391
  223MOL   H10040504   2.202   2.022   0.599  0.5608 -0.8647  1.0011
  223MOL   C10140505   2.102   2.077   1.151  0.0185  0.4934 -0.1838
  223MOL   C10240506   2.208   2.157   1.233 -0.7385 -0.5878  0.6967
  223MOL   C10340507   2.094   1.927   1.177  0.0189 -0.3161  0.2245
  223MOL   O10440508   1.993   1.872   1.209 -0.1100 -0.5232  0.2531
  223MOL   O10540509   2.218   1.865   1.168  0.3192  0.2119 -0.6132
  223MOL   H10640510   2.000   2.116   1.157  0.4989  1.7787 -0.0864
  223MOL   H10740511   2.187   2.152   1.340 -1.9499 -1.9112  0.4170
  223MOL   H10840512   2.311   2.125   1.214  0.0016  1.8619  0.3798
  223MOL   H10940513   2.195   2.264   1.216  0.3077 -1.0900 -4.0575
  223MOL   C11040514   2.232   1.735   1.215  0.5643  0.1210  0.0861
  223MOL   C11140515   2.262   1.751   1.366 -0.1708 -0.1267  0.3381
  223MOL   C11240516   2.351   1.670   1.142  0.4439  0.2409  0.5907
  223MOL   O11340517   2.446   1.628   1.203 -0.1261  0.1012  0.6240
  223MOL   O11440518   2.334   1.676   1.010 -0.1746  0.3596  0.6929
  223MOL   H11540519   2.143   1.674   1.203  1.5893 -0.9878 -2.2017
  223MOL   H11640520   2.193   1.822   1.412  0.5109 -0.7121  2.2870
  223MOL   H11740521   2.268   1.653   1.413 -1.4912 -0.5661 -0.3664
  223MOL   H11840522   2.355   1.806   1.380 -0.4121  0.5420 -0.5701
  223MOL   C11940523   2.430   1.615   0.917 -0.7339 -0.2061 -0.5206
  223MOL   C12040524   2.407   1.690   0.784  0.5787 -0.1426 -0.1677
  223MOL   C12140525   2.413   1.462   0.905  0.5665 -0.4482 -0.2857
  223MOL   O12240526   2.349   1.398   0.996 -0.2056 -0.7271  0.3084
  223MOL   O12340527   2.481   1.407   0.798  0.2640  0.0457 -0.2754
  223MOL   H12440528   2.534   1.631   0.944 -1.2071 -1.1163  1.9065
  223MOL   H12540529   2.305   1.689   0.747  0.4191 -0.5934  0.2766
  223MOL   H12640530   2.456   1.787   0.779 -0.3691  0.4545  1.7403
  223MOL   H12740531   2.449   1.631   0.703 -1.0585 -0.1646 -1.0088
  223MOL   C12840532   2.443   1.274   0.756  0.8012  0.3008  0.3434
  223MOL   C12940533   2.548   1.218   0.657 -0.0552 -0.2412  0.0128
  223MOL   C13040534   2.304   1.275   0.693  1.4224 -0.7839 -0.8380
  223MOL   O13140535   2.225   1.187   0.730  0.3560  0.1639  0.1580
  223MOL   O13240536   2.284   1.367   0.597  0.0221  0.0002  0.0524
  223MOL   H13340537   2.451   1.215   0.847 -0.0445  0.9994  0.8766
  223MOL   H13440538   2.649   1.220   0.699  0.4649  0.9908 -1.2628
  223MOL   H13540539   2.517   1.115   0.643  1.9735 -0.9094  0.2173
  223MOL   H13640540   2.544   1.277   0.566 -0.2169 -0.9775 -0.4631
  223MOL   C13740541   2.154   1.383   0.532 -0.3926  0.1465 -0.5526
  223MOL   C13840542   2.174   1.493   0.421 -0.5938  0.0227 -0.2905
  223MOL   C13940543   2.042   1.428   0.627 -0.2792 -0.5808 -0.3916
  223MOL   O14040544   1.930   1.380   0.616 -0.3805 -0.4828 -0.1642
  223MOL   O14140545   2.064   1.535   0.712  0.2160 -0.7915 -0.0005
  223MOL   H14240546   2.141   1.283   0.493  3.9760 -0.5759 -0.5001
  223MOL   H14340547   2.203   1.590   0.459 -1.0485 -0.4200  1.2214
  223MOL   H14440548   2.246   1.448   0.352  0.9276  1.9190  0.0214
  223MOL   H14540549   2.078   1.512   0.373  0.0400  1.7235 -0.9048
  223MOL   C14640550   1.970   1.563   0.817  0.1570 -0.8181  0.0166
  223MOL   C14740551   2.001   1.708   0.866  0.1301  0.4280  0.3200
  223MOL   C14840552   1.980   1.463   0.936 -0.5692 -0.1595 -0.6240
  223MOL   O14940553   2.014   1.494   1.050  0.1046  0.7465 -0.0029
  223MOL   O15040554   1.921   1.337   0.912 -0.3295  0.2284 -0.2379
  223MOL   H15140555   1.868   1.563   0.778  0.2950  3.7315 -0.6164
  223MOL   H15240556   1.986   1.774   0.781 -0.5376  0.0201  0.1172
  223MOL   H15340557   1.941   1.753   0.946 -0.4469  0.7616 -0.3003
  223MOL   H15440558   2.104   1.716   0.901 -0.0870  0.1170  1.0421
  223MOL   C15540559   1.926   1.236   1.004 -0.3429  0.0481 -0.1608
  223MOL   C15640560   1.917   1.090   0.940  0.5970 -0.0736 -0.3302
  223MOL   C15740561   1.817   1.260   1.100  0.3596  0.0861  0.8990
  223MOL   O15840562   1.700   1.287   1.061 -0.3273  0.3722  0.6157
  223MOL   O15940563   1.846   1.232   1.226 -0.4135 -0.3743 -0.3316
  223MOL   H16040564   2.019   1.245   1.060 -1.2397 -0.4782  1.4809
  223MOL   H16140565   1.967   1.017   1.004  2.1664  1.3628  0.1341
  223MOL   H16240566   1.812   1.062   0.947  0.0255  2.3372  1.5657
  223MOL   H16340567   1.956   1.099   0.838  0.6877 -0.6387 -0.3432
  223MOL   C16440568   1.737   1.206   1.324 -0.1368 -0.3856 -0.1283
  223MOL   C16540569   1.795   1.214   1.470  0.0174 -0.1913 -0.1574
  223MOL   C16640570   1.675   1.066   1.304 -0.4869 -0.5226  0.4746
  223MOL   O16740571   1.731   0.982   1.239  0.0376  0.1102  0.4241
  223MOL   O16840572   1.558   1.061   1.376  0.7100  0.5263  1.0918
  223MOL   H16940573   1.656   1.278   1.318 -0.6235 -1.0303 -1.2934
  223MOL   H17040574   1.724   1.246   1.546 -1.9755 -0.6614 -1.7354
  223MOL   H17140575   1.846   1.122   1.500  0.0310 -1.1036 -2.8160
  223MOL   H17240576   1.879   1.282   1.480  1.2982 -1.6316 -0.9704
  223MOL   C17340577   1.481   0.949   1.397 -0.0849  1.2472 -0.2338
  223MOL   C17440578   1.331   0.985   1.382  0.3727  0.2680  0.9142
  223MOL   C17540579   1.517   0.886   1.537 -0.1574  0.1043 -0.2286
  223MOL   O17640580   1.449   0.895   1.636 -0.1379 -0.3472 -0.1185
  223MOL   O17740581   1.644   0.836   1.533  0.5404  0.0214  0.5574
  223MOL   H17840582   1.512   0.884   1.316 -1.5729  0.7938 -0.4472
  223MOL   H17940583   1.292   0.893   1.338  1.6252  0.4458 -0.5824
  223MOL   H18040584   1.287   1.016   1.477 -1.0690 -0.7778  0.6090
  223MOL   H18140585   1.321   1.068   1.312  1.2000  0.5709  1.1472
  223MOL   H18240586   1.681   0.809   1.615 -0.1938 -0.1822  0.8283
  224MOL     C140587   5.636   5.565   0.765 -0.2564 -0.2279 -0.3393
  224MOL     C240588   5.768   5.628   0.811 -0.0185  0.2042  0.2218
  224MOL     C340589   5.545   5.670   0.705  0.5561 -0.5616 -0.1137
  224MOL     O440590   5.425   5.664   0.722  0.4218  0.5264 -0.2206
  224MOL     O540591   5.605   5.749   0.619 -0.2675 -0.7460  0.6943
  224MOL     H640592   5.650   5.494   0.684 -0.7292  0.5148 -1.0810
  224MOL     H740593   5.835   5.636   0.726 -1.5887 -1.0934 -1.1582
  224MOL     H840594   5.769   5.732   0.845  1.2731  0.0916  0.5678
  224MOL     H940595   5.828   5.562   0.874 -1.3553 -0.7233  0.5359
  224MOL    H1040596   5.580   5.529   0.852 -2.2969 -0.9492 -1.8900
  224MOL    C1140597   5.531   5.845   0.543 -0.0178 -0.3062 -0.2861
  224MOL    C1240598   5.594   5.861   0.402  0.1367  0.1440  0.3589
  224MOL    C1340599   5.519   5.978   0.613  1.2204 -0.2283  0.5028
  224MOL    O1440600   5.411   6.013   0.670 -0.0618 -0.3051  0.7100
  224MOL    O1540601   5.632   6.038   0.618  0.3774  0.3848 -0.1645
  224MOL    H1640602   5.433   5.806   0.516 -0.2419  0.9256 -1.2807
  224MOL    H1740603   5.571   5.780   0.333 -2.9192  1.3077 -0.0359
  224MOL    H1840604   5.545   5.945   0.355  1.2383  0.3690 -0.4138
  224MOL    H1940605   5.700   5.887   0.405  0.4885 -1.2733  0.5559
  224MOL    C2040606   5.650   6.169   0.682  0.6108 -0.5617  0.2731
  224MOL    C2140607   5.636   6.153   0.840  0.1345 -0.5345  0.1674
  224MOL    C2240608   5.561   6.282   0.623  0.5343 -0.4415  0.7843
  224MOL    O2340609   5.490   6.350   0.698 -0.0294  0.4240  0.5184
  224MOL    O2440610   5.578   6.299   0.490  0.5647  0.1800  0.7880
  224MOL    H2540611   5.748   6.204   0.651  0.2227  0.1697 -0.1451
  224MOL    H2640612   5.542   6.104   0.867  0.0625  0.2191  1.3262
  224MOL    H2740613   5.707   6.084   0.885  0.3795 -0.7497 -0.5405
  224MOL    H2840614   5.633   6.255   0.880 -0.6739 -0.3003 -0.4716
  224MOL    C2940615   5.479   6.366   0.416  0.2644  0.5670  0.4856
  224MOL    C3040616   5.470   6.299   0.278 -0.0780  0.2597 -0.3971
  224MOL    C3140617   5.519   6.512   0.394  0.1559 -0.0290 -0.2048
  224MOL    O3240618   5.470   6.608   0.456 -0.8327 -0.4039  0.1521
  224MOL    O3340619   5.618   6.528   0.313  0.0640 -0.1481 -0.2970
  224MOL    H3440620   5.379   6.378   0.457 -0.9895 -2.7009 -1.4728
  224MOL    H3540621   5.428   6.198   0.275  0.2288  0.1059  0.4379
  224MOL    H3640622   5.409   6.366   0.218  1.9572  0.9923 -1.6816
  224MOL    H3740623   5.564   6.282   0.227  0.3984 -0.6458  0.7556
  224MOL    C3840624   5.672   6.658   0.275 -0.4683  0.1350  0.3427
  224MOL    C3940625   5.762   6.638   0.148 -0.4583 -0.6644 -0.4912
  224MOL    C4040626   5.747   6.722   0.386 -0.1052 -0.2513 -0.0613
  224MOL    O4140627   5.718   6.837   0.419 -0.1003 -0.4440  0.1036
  224MOL    O4240628   5.845   6.654   0.437 -0.4614  0.1002  0.3804
  224MOL    H4340629   5.594   6.729   0.249 -0.7961 -0.9501 -1.7097
  224MOL    H4440630   5.792   6.727   0.093  1.2534 -1.5113 -0.9312
  224MOL    H4540631   5.853   6.583   0.173 -1.3574 -1.0348  2.1761
  224MOL    H4640632   5.713   6.579   0.071 -0.7253 -0.5252 -0.4309
  224MOL    C4740633   5.896   6.678   0.571  0.3705 -0.6576 -0.4202
  224MOL    C4840634   6.043   6.721   0.579 -0.1361 -0.1897 -0.1592
  224MOL    C4940635   5.868   6.562   0.673 -0.0714  0.3760 -0.3821
  224MOL    O5040636   5.845   6.442   0.638  0.2443 -0.0708  0.3928
  224MOL    O5140637   5.863   6.596   0.808 -0.9258 -0.0820  0.5221
  224MOL    H5240638   5.832   6.754   0.614 -0.9404 -0.3974 -2.7122
  224MOL    H5340639   6.114   6.641   0.556  1.3002  1.1296 -0.4328
  224MOL    H5440640   6.071   6.773   0.488  1.3846 -0.1998  0.2876
  224MOL    H5540641   6.068   6.788   0.662  0.6226  1.8770 -2.0090
  224MOL    C5640642   5.895   6.508   0.914  0.0709  0.0944 -0.4505
  224MOL    C5740643   5.778   6.502   1.010 -0.6800  0.5450 -0.1813
  224MOL    C5840644   6.030   6.557   0.978 -0.2104 -0.2881  0.1300
  224MOL    O5940645   6.072   6.673   0.943 -0.4997  0.5252 -0.2659
  224MOL    O6040646   6.089   6.468   1.053  0.0422 -0.5675 -0.5438
  224MOL    H6140647   5.914   6.407   0.880 -0.4310 -0.3524  0.5800
  224MOL    H6240648   5.687   6.460   0.966  0.3420  0.3696 -2.2103
  224MOL    H6340649   5.813   6.457   1.103  1.6328  0.8960 -0.8402
  224MOL    H6440650   5.756   6.600   1.053  2.3158  0.8853  0.6865
  224MOL    C6540651   6.214   6.493   1.110 -0.0897 -0.1649 -0.3977
  224MOL    C6640652   6.253   6.350   1.162  0.2335  0.0463  0.6080
  224MOL    C6740653   6.193   6.591   1.226  0.1430 -0.2205  0.6500
  224MOL    O6840654   6.260   6.696   1.231 -0.5791  0.1186  0.2382
  224MOL    O6940655   6.111   6.547   1.322  0.6155  0.5873  0.9541
  224MOL    H7040656   6.288   6.521   1.035  0.6789 -1.6035 -0.1907
  224MOL    H7140657   6.360   6.348   1.183  0.4433 -0.8092 -0.5069
  224MOL    H7240658   6.190   6.314   1.243  1.2707  0.4088  1.5935
  224MOL    H7340659   6.251   6.270   1.087 -1.3877  2.0057 -1.4990
  224MOL    C7440660   6.071   6.633   1.426 -0.2083 -0.6796 -0.9332
  224MOL    C7540661   6.054   6.555   1.556 -0.5463 -1.4359 -0.1942
  224MOL    C7640662   5.937   6.698   1.386 -0.2273 -0.5788  0.1344
  224MOL    O7740663   5.825   6.669   1.431  0.8579 -0.1835 -0.1651
  224MOL    O7840664   5.953   6.786   1.279 -0.6371 -0.2905 -0.4382
  224MOL    H7940665   6.146   6.711   1.442 -0.1068 -0.8860 -0.4060
  224MOL    H8040666   5.983   6.472   1.564 -0.9605 -1.0123  0.5717
  224MOL    H8140667   6.149   6.507   1.577 -0.7665 -0.0924  4.3296
  224MOL    H8240668   6.036   6.619   1.642 -0.7918 -1.8052  0.0305
  224MOL    C8340669   5.851   6.876   1.238 -0.1861  0.1786 -0.2977
  224MOL    C8440670   5.901   6.916   1.100  0.4570 -0.5039  0.0050
  224MOL    C8540671   5.835   6.994   1.343 -0.1529 -0.0685 -0.3023
  224MOL    O8640672   5.729   7.048   1.366  0.6647  0.0490 -0.3178
  224MOL    O8740673   5.954   7.022   1.407  0.0316  0.3298 -0.1311
  224MOL    H8840674   5.753   6.827   1.238  0.5665 -1.4087  1.6243
  224MOL    H8940675   5.914   6.841   1.022 -2.4976  0.1790 -1.2012
  224MOL    H9040676   5.831   6.983   1.049  1.0447  1.8622  2.2080
  224MOL    H9140677   6.000   6.962   1.104  0.7905 -1.2379  0.2060
  224MOL    C9240678   5.949   7.112   1.515 -0.7177  0.1332 -0.1807
  224MOL    C9340679   6.080   7.188   1.532 -0.0863 -0.1952  0.6980
  224MOL    C9440680   5.912   7.034   1.651 -0.5309 -0.0478 -0.1702
  224MOL    O9540681   5.873   6.911   1.650 -0.0929 -0.8316  0.0678
  224MOL    O9640682   5.935   7.104   1.763 -0.3680 -0.0438  0.0127
  224MOL    H9740683   5.871   7.183   1.491 -2.0465 -1.9080 -2.0382
  224MOL    H9840684   6.075   7.276   1.597  0.9569  1.4879 -1.4058
  224MOL    H9940685   6.172   7.134   1.553  0.3209  0.9421  1.9166
  224MOL   H10040686   6.105   7.231   1.434 -0.3073  0.0636  0.7549
  224MOL   C10140687   5.944   7.038   1.895  0.2366 -0.6559 -0.1490
  224MOL   C10240688   5.945   7.150   2.007 -0.0292 -0.3338  0.4227
  224MOL   C10340689   6.065   6.939   1.906  0.0655  0.5662  0.1327
  224MOL   O10440690   6.044   6.829   1.940  0.1618  0.3906 -0.2602
  224MOL   O10540691   6.182   6.998   1.879 -0.2846  0.0872 -0.2372
  224MOL   H10640692   5.855   6.978   1.913  0.1875 -0.1119  1.5203
  224MOL   H10740693   6.041   7.201   2.000  0.2932 -0.8901  0.8015
  224MOL   H10840694   5.857   7.208   1.978 -0.1385 -1.9922 -2.8000
  224MOL   H10940695   5.930   7.105   2.105  1.7658  2.4958  2.0912
  224MOL   C11040696   6.314   6.937   1.878  0.1514  0.2362 -0.1483
  224MOL   C11140697   6.419   7.048   1.891  0.1716  0.0900  0.5694
  224MOL   C11240698   6.331   6.856   1.742  0.3983 -0.4693 -0.2872
  224MOL   O11340699   6.230   6.831   1.681 -0.2554  0.6454  0.8518
  224MOL   O11440700   6.458   6.822   1.707 -0.1011  0.1448 -0.2239
  224MOL   H11540701   6.328   6.870   1.963 -0.8395 -0.4775 -0.5520
  224MOL   H11640702   6.375   7.136   1.939 -0.3411  0.4459 -0.5374
  224MOL   H11740703   6.506   7.012   1.945  1.2136  0.0189 -1.1311
  224MOL   H11840704   6.454   7.081   1.793 -3.3016  1.0221 -0.4529
  224MOL   C11940705   6.481   6.747   1.588  0.2980  0.0884  0.2112
  224MOL   C12040706   6.549   6.611   1.616 -0.4615 -0.4183 -0.9741
  224MOL   C12140707   6.563   6.830   1.488  0.1054  0.3441  0.1453
  224MOL   O12240708   6.603   6.772   1.388  0.0542  0.2140 -0.4270
  224MOL   O12340709   6.583   6.950   1.532 -0.5844 -0.5382 -0.3040
  224MOL   H12440710   6.388   6.726   1.536  0.0214  0.5806  0.5011
  224MOL   H12540711   6.514   6.556   1.703 -0.4743  2.4077  0.8807
  224MOL   H12640712   6.560   6.542   1.532 -0.6471 -0.4427 -0.9792
  224MOL   H12740713   6.651   6.632   1.648 -1.5257  1.3493  1.4079
  224MOL   C12840714   6.657   7.042   1.453 -0.2358 -0.3220 -0.2079
  224MOL   C12940715   6.645   7.173   1.523 -0.1735 -0.4218  0.1588
  224MOL   C13040716   6.606   7.058   1.307  0.0056 -0.6347  0.4346
  224MOL   O13140717   6.488   7.079   1.275  0.0561  0.0293  0.0385
  224MOL   O13240718   6.707   7.060   1.221 -0.3004 -0.4315 -0.2536
  224MOL   H13340719   6.757   7.000   1.444 -0.0980  0.2625 -1.5250
  224MOL   H13440720   6.539   7.193   1.542 -0.4294 -0.9357 -0.7315
  224MOL   H13540721   6.697   7.163   1.619 -0.2862  2.1944  0.5310
  224MOL   H13640722   6.680   7.256   1.462 -3.0490 -0.1347 -1.1717
  224MOL   C13740723   6.690   7.083   1.090 -0.4482 -0.3481 -0.4688
  224MOL   C13840724   6.808   7.007   1.025  0.0320 -0.8749 -0.5147
  224MOL   C13940725   6.703   7.227   1.059 -0.1887 -0.3284 -0.3583
  224MOL   O14040726   6.664   7.270   0.951  0.0938  0.3584 -0.0953
  224MOL   O14140727   6.767   7.294   1.156  0.0638  0.0824  0.0088
  224MOL   H14240728   6.596   7.039   1.056 -0.7090  0.1347 -0.3610
  224MOL   H14340729   6.797   7.019   0.917  1.1202 -2.6583 -0.8499
  224MOL   H14440730   6.906   7.040   1.060 -0.3228  0.1828 -0.5005
  224MOL   H14540731   6.813   6.900   1.044  1.6724 -1.0794 -1.9352
  224MOL   C14640732   6.799   7.432   1.145  1.1422 -0.1531 -0.2165
  224MOL   C14740733   6.924   7.464   1.227 -0.2824 -0.5228  0.0768
  224MOL   C14840734   6.677   7.522   1.175  0.3372 -0.0742  0.4044
  224MOL   O14940735   6.663   7.636   1.133 -0.5628 -0.1830  0.5691
  224MOL   O15040736   6.588   7.457   1.253  0.0277 -0.4752  0.1408
  224MOL   H15140737   6.823   7.444   1.039 -0.2342 -1.8170 -0.7274
  224MOL   H15240738   7.009   7.402   1.201 -0.7596 -1.7615  1.3664
  224MOL   H15340739   6.937   7.572   1.233  1.3024 -0.7044  0.0589
  224MOL   H15440740   6.914   7.423   1.328 -3.4701 -1.5555 -0.5937
  224MOL   C15540741   6.460   7.513   1.284  0.0875  0.1624 -0.6046
  224MOL   C15640742   6.392   7.406   1.357  0.6125 -0.6526  0.3599
  224MOL   C15740743   6.387   7.530   1.144 -0.0292 -0.6394  0.5360
  224MOL   O15840744   6.333   7.637   1.116  0.8905 -0.4556 -0.0790
  224MOL   O15940745   6.385   7.421   1.069  0.2960  0.3856  0.3284
  224MOL   H16040746   6.455   7.614   1.325  0.7849 -0.3538  0.7738
  224MOL   H16140747   6.301   7.430   1.412  1.7937  1.0692  1.5841
  224MOL   H16240748   6.372   7.322   1.290 -1.1526 -0.0143  0.0679
  224MOL   H16340749   6.455   7.370   1.438 -0.4627 -1.2813  0.9350
  224MOL   C16440750   6.321   7.407   0.944  0.1101 -0.5747 -0.1604
  224MOL   C16540751   6.407   7.468   0.832  0.1868  0.0494  0.6404
  224MOL   C16640752   6.175   7.451   0.951  0.3726  0.3412  0.2434
  224MOL   O16740753   6.122   7.519   0.867  0.6406 -0.3804  0.3391
  224MOL   O16840754   6.111   7.399   1.059  0.1068 -0.2687  0.3782
  224MOL   H16940755   6.309   7.302   0.916 -1.3048 -0.8804  1.4502
  224MOL   H17040756   6.344   7.469   0.743  0.7229  1.9199  0.2746
  224MOL   H17140757   6.425   7.572   0.856 -1.3030  0.9634 -2.0433
  224MOL   H17240758   6.494   7.404   0.815 -1.0710 -1.9312  1.4309
  224MOL   C17340759   5.976   7.427   1.081  0.3724  0.0263 -0.0829
  224MOL   C17440760   5.943   7.420   1.234 -0.7524  0.5312 -0.3686
  224MOL   C17540761   5.884   7.328   1.008 -0.1729 -0.0413 -0.1537
  224MOL   O17640762   5.801   7.256   1.067 -0.1571 -0.1549 -0.0712
  224MOL   O17740763   5.901   7.321   0.875 -0.1629  0.0252 -0.2168
  224MOL   H17840764   5.957   7.529   1.046 -2.1644 -0.5219 -0.3967
  224MOL   H17940765   5.842   7.459   1.245 -2.1591 -3.5345  2.6674
  224MOL   H18040766   5.958   7.321   1.277 -0.6820  0.8583  0.3713
  224MOL   H18140767   6.000   7.495   1.289 -0.2648  0.5049 -0.8375
  224MOL   H18240768   5.967   7.377   0.837  1.4715 -1.7079 -0.0420
  225MOL     C140769   4.941   5.469   6.207  0.4958 -0.0745 -0.2521
  225MOL     C240770   4.828   5.564   6.185  0.4668 -0.5181  0.8084
  225MOL     C340771   4.948   5.411   6.339 -0.2661  0.0715  0.4852
  225MOL     O440772   5.048   5.419   6.412  0.0968 -0.1236 -0.1717
  225MOL     O540773   4.841   5.344   6.369 -0.0821  0.4995 -0.0028
  225MOL     H640774   4.935   5.394   6.127  0.1675 -0.5911  0.2526
  225MOL     H740775   4.813   5.625   6.274 -1.1194 -0.4989  0.5565
  225MOL     H840776   4.843   5.608   6.087  0.4894 -2.8950 -0.2974
  225MOL     H940777   4.737   5.504   6.172 -0.2769  0.9218 -0.8229
  225MOL    H1040778   5.033   5.526   6.198  0.3645  0.0146 -1.0977
  225MOL    C1140779   4.825   5.263   6.488  0.0661  0.2692 -0.5678
  225MOL    C1240780   4.904   5.132   6.459 -0.2114  0.0793  0.0038
  225MOL    C1340781   4.680   5.241   6.524  0.8316 -0.7222 -0.0114
  225MOL    O1440782   4.582   5.288   6.459  0.1741  0.2078  0.2330
  225MOL    O1540783   4.665   5.175   6.640 -0.0869  0.1986  1.1907
  225MOL    H1640784   4.863   5.315   6.576 -1.0366  4.0591 -2.2399
  225MOL    H1740785   5.003   5.142   6.503 -1.3634  1.6583  2.3132
  225MOL    H1840786   4.861   5.052   6.520  1.0576  1.4099  2.7031
  225MOL    H1940787   4.906   5.112   6.352  2.0745 -1.3517  0.2712
  225MOL    C2040788   4.540   5.111   6.682 -0.5573 -0.0200  0.0932
  225MOL    C2140789   4.563   5.057   6.824  0.7849  0.3463 -0.0115
  225MOL    C2240790   4.494   4.998   6.586 -0.0787  0.2299  0.3633
  225MOL    O2340791   4.375   4.976   6.559  0.2473 -0.8381  0.6996
  225MOL    O2440792   4.597   4.931   6.537  0.5017 -0.2324  0.3364
  225MOL    H2540793   4.459   5.184   6.686 -1.6448 -1.1524 -0.7816
  225MOL    H2640794   4.581   5.137   6.896 -0.1639  0.1475  0.4416
  225MOL    H2740795   4.482   4.991   6.853  0.9996  0.1514  0.1453
  225MOL    H2840796   4.651   4.993   6.831 -0.2087 -1.0733 -0.2925
  225MOL    C2940797   4.581   4.804   6.460 -0.6550 -0.4171  0.5140
  225MOL    C3040798   4.709   4.716   6.476  0.0474  0.3578  0.3809
  225MOL    C3140799   4.564   4.836   6.308  0.3556  0.2101  0.2117
  225MOL    O3240800   4.506   4.756   6.234 -0.5414 -0.5487  0.3028
  225MOL    O3340801   4.619   4.957   6.279 -1.2110 -0.5468 -0.5605
  225MOL    H3440802   4.502   4.740   6.499 -0.9461  0.7312  1.8685
  225MOL    H3540803   4.746   4.691   6.575  0.3856 -1.6046 -0.2186
  225MOL    H3640804   4.683   4.624   6.422 -3.4421  1.8660 -0.6978
  225MOL    H3740805   4.794   4.758   6.422  0.2585  1.0790  1.2683
  225MOL    C3840806   4.601   5.020   6.152  0.1223  0.2592 -0.3475
  225MOL    C3940807   4.692   5.146   6.146 -0.8511  0.0066  0.3014
  225MOL    C4040808   4.449   5.043   6.116 -0.0722  0.8047  0.3654
  225MOL    O4140809   4.420   5.066   6.002  0.5867 -0.3276  0.4688
  225MOL    O4240810   4.379   5.071   6.229 -0.3716  0.4385  0.4906
  225MOL    H4340811   4.640   4.950   6.079 -2.2190 -0.7873 -0.6277
  225MOL    H4440812   4.674   5.221   6.223  0.7587  0.0683  0.6444
  225MOL    H4540813   4.793   5.108   6.162 -1.6349 -1.4636  1.8914
  225MOL    H4640814   4.685   5.203   6.053 -2.4993 -1.9009 -0.7838
  225MOL    C4740815   4.244   5.118   6.228  0.7024  0.7992  0.2304
  225MOL    C4840816   4.219   5.210   6.352  0.6315  0.0912 -0.1952
  225MOL    C4940817   4.149   4.993   6.222  0.1702 -0.2494 -0.2544
  225MOL    O5040818   4.062   4.983   6.308  0.2750  0.4066  0.0599
  225MOL    O5140819   4.190   4.901   6.123  0.2701 -0.5389  0.4178
  225MOL    H5240820   4.230   5.169   6.134  2.0263 -0.6976 -0.8103
  225MOL    H5340821   4.121   5.257   6.355  0.8321  0.5033 -0.1648
  225MOL    H5440822   4.241   5.158   6.445 -2.7581  2.8621  2.3220
  225MOL    H5540823   4.294   5.286   6.336  1.8754 -0.8344  1.0654
  225MOL    C5640824   4.155   4.764   6.133 -0.6019 -0.0402 -0.1116
  225MOL    C5740825   4.241   4.703   6.028  0.2977 -0.8280 -0.4803
  225MOL    C5840826   4.008   4.744   6.114  0.5093  0.1631  0.4445
  225MOL    O5940827   3.938   4.806   6.036 -0.0896  0.2187 -0.5297
  225MOL    O6040828   3.960   4.650   6.194  0.9401 -0.2134  0.0016
  225MOL    H6140829   4.190   4.732   6.231  1.3342 -1.4761 -1.2341
  225MOL    H6240830   4.223   4.595   6.019  1.3739 -0.9684 -0.9945
  225MOL    H6340831   4.215   4.747   5.932  2.3646 -1.9740 -1.6093
  225MOL    H6440832   4.347   4.726   6.035  0.1230 -0.6426  2.1537
  225MOL    C6540833   3.826   4.604   6.191  0.9045 -0.6227  0.1292
  225MOL    C6640834   3.768   4.609   6.334  0.1666  0.0450 -0.4458
  225MOL    C6740835   3.830   4.460   6.127 -0.2496 -0.3103  0.7654
  225MOL    O6840836   3.930   4.395   6.098  0.0747 -0.3863  0.2828
  225MOL    O6940837   3.704   4.425   6.099 -0.0161 -0.1441  0.1844
  225MOL    H7040838   3.761   4.668   6.131  2.0774 -0.7925 -1.3447
  225MOL    H7140839   3.830   4.543   6.395  2.3790  1.3160 -1.2463
  225MOL    H7240840   3.776   4.713   6.365 -2.9696  0.0142  0.6681
  225MOL    H7340841   3.665   4.576   6.348  0.9283 -1.8118  1.0290
  225MOL    C7440842   3.666   4.321   6.005 -0.2007 -0.0291  0.1751
  225MOL    C7540843   3.692   4.177   6.050 -0.2992 -0.5819  0.4701
  225MOL    C7640844   3.716   4.357   5.860  0.7095  0.1654 -0.7463
  225MOL    O7740845   3.786   4.279   5.801  0.4107  0.4754 -0.3926
  225MOL    O7840846   3.685   4.481   5.822 -0.4261  0.1427 -0.6397
  225MOL    H7940847   3.560   4.345   6.012  0.0265  1.1755 -0.3741
  225MOL    H8040848   3.656   4.111   5.971  1.9747 -1.7495  0.3677
  225MOL    H8140849   3.800   4.165   6.056 -0.4590 -2.2564  0.2622
  225MOL    H8240850   3.639   4.163   6.144 -0.6216 -0.2629  0.3375
  225MOL    C8340851   3.690   4.514   5.687  0.0449  0.0268 -0.3937
  225MOL    C8440852   3.705   4.663   5.683  0.7421  0.3977 -0.9722
  225MOL    C8540853   3.556   4.468   5.628  0.1395 -0.7318 -0.3224
  225MOL    O8640854   3.548   4.381   5.539  0.4979  0.0028 -0.6771
  225MOL    O8740855   3.452   4.530   5.682 -0.0646  0.2807 -0.6284
  225MOL    H8840856   3.776   4.465   5.643 -0.0576  0.7360 -1.4148
  225MOL    H8940857   3.803   4.689   5.724 -0.2806  0.9742  1.1851
  225MOL    H9040858   3.690   4.709   5.586  0.7422  2.4105 -0.0587
  225MOL    H9140859   3.647   4.729   5.748 -2.0700 -2.1283 -0.7917
  225MOL    C9240860   3.319   4.494   5.655  0.7482 -0.5624  0.0484
  225MOL    C9340861   3.216   4.613   5.669  0.6403 -0.0518 -0.0073
  225MOL    C9440862   3.282   4.369   5.734  0.6185  0.4286  0.5152
  225MOL    O9540863   3.351   4.322   5.822 -0.0848 -0.0297  0.7028
  225MOL    O9640864   3.172   4.303   5.674  0.5543  0.5647  0.1713
  225MOL    H9740865   3.312   4.462   5.551 -0.3521  0.9182 -0.3487
  225MOL    H9840866   3.225   4.664   5.765  4.1507  0.8623 -0.7369
  225MOL    H9940867   3.221   4.682   5.585 -0.2319  1.2068  0.9632
  225MOL   H10040868   3.112   4.582   5.677 -0.1708  1.9766 -2.1356
  225MOL   C10140869   3.132   4.167   5.705  0.0624 -0.5966  0.6857
  225MOL   C10240870   3.165   4.078   5.584 -0.5304 -0.2072 -0.4048
  225MOL   C10340871   2.978   4.161   5.746 -0.2754 -0.3756  0.2373
  225MOL   O10440872   2.904   4.061   5.721  0.3750  0.3159  0.1579
  225MOL   O10540873   2.945   4.267   5.811 -0.1930  0.5040  0.3195
  225MOL   H10640874   3.187   4.140   5.795  0.8185 -1.2921  0.0276
  225MOL   H10740875   3.097   4.097   5.500 -0.6846  0.2530 -0.1783
  225MOL   H10840876   3.266   4.080   5.542  0.2408 -1.9150  1.3199
  225MOL   H10940877   3.153   3.975   5.616 -1.6398 -0.6994 -2.3176
  225MOL   C11040878   2.815   4.285   5.861 -0.7145  0.6073 -0.2151
  225MOL   C11140879   2.723   4.299   5.744 -0.0366  0.5436 -0.3748
  225MOL   C11240880   2.813   4.390   5.970  0.7323 -0.7714  0.9051
  225MOL   O11340881   2.889   4.489   5.976  0.4141 -0.2927  0.4631
  225MOL   O11440882   2.707   4.368   6.050 -0.4097 -0.1058 -0.2735
  225MOL   H11540883   2.786   4.191   5.909 -1.3871  2.3841  3.0464
  225MOL   H11640884   2.776   4.374   5.686  1.5659 -0.7549 -0.6436
  225MOL   H11740885   2.713   4.211   5.680 -1.0950  0.4401 -0.0746
  225MOL   H11840886   2.626   4.335   5.777 -1.0141 -1.9947 -0.3698
  225MOL   C11940887   2.668   4.456   6.149  0.1587 -0.8931 -0.7626
  225MOL   C12040888   2.651   4.375   6.273  0.2282  1.2492  0.3403
  225MOL   C12140889   2.542   4.528   6.102 -0.4231  0.3050  0.1011
  225MOL   O12240890   2.519   4.647   6.119  0.0139  0.0707 -0.2732
  225MOL   O12340891   2.457   4.449   6.036 -0.8661  0.4857  0.1074
  225MOL   H12440892   2.740   4.534   6.173 -0.6103 -1.0573  2.3467
  225MOL   H12540893   2.718   4.290   6.285 -1.3627 -0.1427 -0.4632
  225MOL   H12640894   2.649   4.439   6.361  0.6804  1.6678  0.0491
  225MOL   H12740895   2.552   4.330   6.273  0.9284 -0.3212  1.3250
  225MOL   C12840896   2.324   4.494   5.993 -0.0095 -0.1637 -0.2241
  225MOL   C12940897   2.259   4.380   5.896  0.2153  0.7534  0.3487
  225MOL   C13040898   2.335   4.616   5.902  0.1112 -0.8352 -0.3560
  225MOL   O13140899   2.263   4.713   5.920  0.1153  0.0692  0.6044
  225MOL   O13240900   2.440   4.611   5.820  0.6391 -0.1262 -0.2735
  225MOL   H13340901   2.265   4.502   6.084  0.0770 -3.1174  0.1441
  225MOL   H13440902   2.304   4.373   5.796  0.0012  0.3040  0.2805
  225MOL   H13540903   2.255   4.279   5.937  0.4392 -0.6056 -2.8325
  225MOL   H13640904   2.159   4.415   5.871 -0.3943 -1.1075  0.0931
  225MOL   C13740905   2.476   4.726   5.741  0.3989  0.7455  0.0708
  225MOL   C13840906   2.542   4.668   5.611  0.0239  0.0707  0.0484
  225MOL   C13940907   2.571   4.813   5.821  1.2396 -0.0375 -0.1365
  225MOL   O14040908   2.550   4.936   5.846  0.4486  0.3848 -0.1584
  225MOL   O14140909   2.684   4.747   5.856 -0.2241  0.6529 -0.2978
  225MOL   H14240910   2.391   4.784   5.704  0.3880 -0.0232 -1.1607
  225MOL   H14340911   2.604   4.580   5.629 -1.9524 -1.5064 -0.6094
  225MOL   H14440912   2.465   4.649   5.536  2.5593  0.3124 -2.7313
  225MOL   H14540913   2.605   4.745   5.566 -1.3038  1.1020 -0.0889
  225MOL   C14640914   2.804   4.812   5.904  0.2417  0.9699  0.2613
  225MOL   C14740915   2.801   4.825   6.060 -0.3769 -0.6625  0.5165
  225MOL   C14840916   2.846   4.926   5.817 -0.5071  0.1852  0.7664
  225MOL   O14940917   2.850   5.042   5.860  0.1581  0.0678  0.2154
  225MOL   O15040918   2.878   4.891   5.686 -0.1936 -0.3018  0.0685
  225MOL   H15140919   2.888   4.746   5.886  0.5978  1.3949  0.3676
  225MOL   H15240920   2.814   4.725   6.101 -0.0669 -0.9927 -0.3701
  225MOL   H15340921   2.887   4.886   6.090 -0.0398 -1.5358  1.3357
  225MOL   H15440922   2.710   4.872   6.097  0.2853  0.5221  0.6991
  225MOL   C15540923   2.926   4.994   5.596  0.3219  0.4126  0.1722
  225MOL   C15640924   2.930   4.927   5.455  0.0707 -0.2828 -0.0736
  225MOL   C15740925   3.069   5.029   5.652 -0.3657  0.5525  0.3715
  225MOL   O15840926   3.144   4.942   5.704 -0.4126 -0.4232 -0.2226
  225MOL   O15940927   3.091   5.164   5.633  0.1287 -0.3732  0.1651
  225MOL   H16040928   2.862   5.082   5.597  0.1823  0.3196 -0.2831
  225MOL   H16140929   2.975   4.997   5.384  0.6535 -0.5146  0.0631
  225MOL   H16240930   2.992   4.838   5.446  0.4606  0.1084 -1.4072
  225MOL   H16340931   2.829   4.904   5.422 -0.3994 -0.3469  1.3612
  225MOL   C16440932   3.215   5.230   5.665  0.3258  0.5389  0.0003
  225MOL   C16540933   3.184   5.377   5.683 -0.2842  0.4019 -0.3934
  225MOL   C16640934   3.312   5.204   5.556 -0.4697  0.0744  0.0798
  225MOL   O16740935   3.339   5.292   5.469 -0.6827  0.2136  0.0855
  225MOL   O16840936   3.371   5.086   5.568 -0.0109  0.1263  0.0357
  225MOL   H16940937   3.255   5.191   5.759 -1.1916  2.8803  1.6878
  225MOL   H17040938   3.272   5.441   5.668  0.5747 -0.0614  2.3948
  225MOL   H17140939   3.118   5.425   5.611  1.1171  1.6054 -0.9204
  225MOL   H17240940   3.150   5.398   5.784 -0.4831  0.1543 -0.4089
  225MOL   C17340941   3.474   5.039   5.487 -0.0075  0.0523 -0.5580
  225MOL   C17440942   3.445   4.893   5.455  0.1160  0.3971 -0.3369
  225MOL   C17540943   3.608   5.057   5.557  0.8780  0.2838  0.6725
  225MOL   O17640944   3.673   4.962   5.584 -0.3215 -0.4105 -0.1832
  225MOL   O17740945   3.640   5.186   5.594  0.3151  0.2023  0.0337
  225MOL   H17840946   3.484   5.105   5.401 -0.3810  1.7170  0.6348
  225MOL   H17940947   3.350   4.872   5.406 -0.6698  2.2446  0.3596
  225MOL   H18040948   3.519   4.840   5.395  0.5753 -0.2458  0.7909
  225MOL   H18140949   3.448   4.828   5.542 -0.2443  0.6038 -0.1695
  225MOL   H18240950   3.727   5.181   5.629  0.4570 -1.6935 -0.5269
  226MOL     C140951   3.647   1.916   4.432 -0.5461  0.1096  0.7344
  226MOL     C240952   3.555   1.792   4.454 -0.0933 -0.0958 -0.5621
  226MOL     C340953   3.794   1.882   4.446 -0.2013  0.0194 -0.1157
  226MOL     O440954   3.874   1.966   4.491  0.3370  0.0056 -0.2675
  226MOL     O540955   3.826   1.757   4.406 -0.2465  0.5199 -0.1815
  226MOL     H640956   3.629   1.951   4.331  0.5109 -0.0426  0.4964
  226MOL     H740957   3.586   1.707   4.394  0.1815 -0.1608 -0.3259
  226MOL     H840958   3.561   1.757   4.556  1.2793 -1.9121 -1.2517
  226MOL     H940959   3.451   1.818   4.430  0.5297  1.4849 -1.6359
  226MOL    H1040960   3.617   2.001   4.495 -0.7070  0.0586  0.7283
  226MOL    C1140961   3.957   1.708   4.405 -0.6307  0.2222  0.2212
  226MOL    C1240962   3.956   1.579   4.318 -0.0916 -0.4755 -0.0146
  226MOL    C1340963   4.014   1.680   4.543 -0.0814 -0.3808 -0.3553
  226MOL    O1440964   4.111   1.741   4.584  0.1392 -0.2082  0.0226
  226MOL    O1540965   3.958   1.579   4.605 -0.0539  0.3944  0.0920
  226MOL    H1640966   4.020   1.777   4.347 -2.2463  2.8513  1.5059
  226MOL    H1740967   3.869   1.514   4.332  1.9551 -3.5615 -1.0783
  226MOL    H1840968   3.971   1.603   4.213  0.1265  2.8243  0.7396
  226MOL    H1940969   4.044   1.515   4.328 -0.6128 -1.0223  1.2981
  226MOL    C2040970   3.980   1.559   4.743  0.1615 -0.0413 -0.3032
  226MOL    C2140971   3.936   1.415   4.774 -0.1713  0.1888  0.2314
  226MOL    C2240972   3.906   1.649   4.837 -0.2057 -0.3263 -0.0722
  226MOL    O2340973   3.829   1.737   4.790  0.3623 -0.0755  0.4700
  226MOL    O2440974   3.914   1.617   4.970  0.4102 -0.2694 -0.2432
  226MOL    H2540975   4.086   1.560   4.766  1.2075 -0.9266 -4.7842
  226MOL    H2640976   3.828   1.402   4.771 -0.1515 -1.3760  3.8517
  226MOL    H2740977   3.969   1.344   4.698 -1.6379  0.0733 -0.3068
  226MOL    H2840978   3.963   1.390   4.877 -1.5984 -1.5979  0.1951
  226MOL    C2940979   3.838   1.703   5.058  0.2880  0.0310 -0.4275
  226MOL    C3040980   3.914   1.709   5.187  0.0517  0.1440 -0.0902
  226MOL    C3140981   3.696   1.646   5.081  0.3105  0.6777 -0.1046
  226MOL    O3240982   3.617   1.693   5.169 -0.0213  0.2753  0.3557
  226MOL    O3340983   3.660   1.545   4.991 -0.1452  0.3494 -0.2543
  226MOL    H3440984   3.828   1.805   5.021 -0.9825 -0.6969 -2.2046
  226MOL    H3540985   3.868   1.737   5.282 -1.4854 -4.6172  0.7044
  226MOL    H3640986   3.967   1.615   5.201 -1.8320 -0.9296  0.1049
  226MOL    H3740987   3.999   1.775   5.174  0.4004 -0.2927 -0.0418
  226MOL    C3840988   3.525   1.508   4.977  0.8718 -0.3055  1.1474
  226MOL    C3940989   3.525   1.363   4.922 -0.2125  0.0222 -0.8081
  226MOL    C4040990   3.462   1.597   4.871 -0.4546  0.2410  0.8101
  226MOL    O4140991   3.509   1.702   4.820  0.4260  0.1603 -0.0552
  226MOL    O4240992   3.345   1.545   4.827  0.2672  0.0008 -0.0201
  226MOL    H4340993   3.466   1.517   5.068  1.3682  0.2862  1.4145
  226MOL    H4440994   3.522   1.353   4.813  1.1871  0.7166 -0.9195
  226MOL    H4540995   3.607   1.302   4.960 -0.2060  0.5187 -0.0077
  226MOL    H4640996   3.440   1.305   4.957  0.2623  0.5090  1.1870
  226MOL    C4740997   3.282   1.594   4.701  0.1649  0.0619  0.5369
  226MOL    C4840998   3.131   1.614   4.728  0.3462  0.8519 -0.5872
  226MOL    C4940999   3.322   1.496   4.589  0.0315 -0.4049 -0.7755
  226MOL    O5041000   3.238   1.422   4.536 -0.1125 -0.1681  0.3066
  226MOL    O5141001   3.458   1.502   4.557 -0.3481  0.7918  0.4346
  226MOL    H5241002   3.321   1.691   4.671  0.3177 -0.3313 -0.5465
  226MOL    H5341003   3.073   1.652   4.643 -1.0682  0.1233  0.0372
  226MOL    H5441004   3.081   1.524   4.761 -0.6956  0.7518 -2.3734
  226MOL    H5541005   3.117   1.682   4.812  0.5455  1.6492 -1.1805
  226MOL    C5641006   3.522   1.419   4.463  0.0663  0.2939  0.3068
  226MOL    C5741007   3.671   1.407   4.502  0.4540  0.2851  0.7156
  226MOL    C5841008   3.506   1.462   4.310 -0.3590  0.4326  0.1825
  226MOL    O5941009   3.603   1.475   4.243 -0.0340  0.0865  0.0831
  226MOL    O6041010   3.389   1.489   4.267  0.4965 -0.2367  0.1101
  226MOL    H6141011   3.483   1.318   4.473  2.0398 -0.6257 -1.1892
  226MOL    H6241012   3.711   1.509   4.504 -0.6017  0.7429 -0.4693
  226MOL    H6341013   3.673   1.362   4.601  0.6126 -1.6104 -0.1284
  226MOL    H6441014   3.732   1.343   4.438 -1.3235  1.0867 -1.8525
  226MOL    C6541015   3.360   1.535   4.132 -0.1893 -0.1090 -0.2375
  226MOL    C6641016   3.387   1.687   4.123  0.6149 -0.5804 -0.5989
  226MOL    C6741017   3.214   1.501   4.111 -0.0056 -0.0547  0.0834
  226MOL    O6841018   3.188   1.439   4.009 -0.1597  0.5946  0.0090
  226MOL    O6941019   3.127   1.554   4.202 -0.1791  0.9399  0.7168
  226MOL    H7041020   3.426   1.484   4.062  1.2679  1.6315 -0.1501
  226MOL    H7141021   3.361   1.723   4.023  0.0721 -2.7468 -1.2542
  226MOL    H7241022   3.337   1.757   4.189  2.6046  0.2066  0.1242
  226MOL    H7341023   3.495   1.706   4.120  0.2427  1.8406  0.1999
  226MOL    C7441024   2.991   1.517   4.208 -0.0597 -0.2505  0.8647
  226MOL    C7541025   2.908   1.639   4.167  0.8601  0.2322 -0.7522
  226MOL    C7641026   2.949   1.471   4.353  0.2414 -0.4877 -0.0820
  226MOL    O7741027   2.884   1.540   4.432 -0.3065  0.6263  0.1143
  226MOL    O7841028   3.000   1.345   4.378  0.3982 -0.4314 -0.1501
  226MOL    H7941029   2.981   1.431   4.142  1.2066 -0.4159  0.8772
  226MOL    H8041030   2.915   1.653   4.059 -0.7062 -1.5737 -1.1099
  226MOL    H8141031   2.801   1.641   4.189  1.0452 -3.0837  0.6902
  226MOL    H8241032   2.958   1.721   4.217  2.5381 -1.1196 -0.1760
  226MOL    C8341033   2.963   1.267   4.494 -0.4299 -0.2099  0.7381
  226MOL    C8441034   3.061   1.145   4.518  0.1568  0.2880  0.0382
  226MOL    C8541035   2.819   1.217   4.468 -0.8479 -0.2058 -0.3603
  226MOL    O8641036   2.747   1.214   4.566  0.0678  0.2106 -0.4012
  226MOL    O8741037   2.799   1.176   4.338 -0.3005  0.1436 -0.5656
  226MOL    H8841038   2.971   1.341   4.575 -0.0721  0.3472  0.1988
  226MOL    H8941039   3.035   1.095   4.610 -1.0694  0.2456 -0.3218
  226MOL    H9041040   3.047   1.075   4.436 -1.7889  1.0932 -0.3541
  226MOL    H9141041   3.165   1.176   4.511 -0.1419  1.6427  1.3780
  226MOL    C9241042   2.668   1.165   4.282  0.8325  0.6176  0.5422
  226MOL    C9341043   2.664   1.051   4.182 -0.1246 -0.1875  0.1670
  226MOL    C9441044   2.629   1.305   4.219 -0.8648 -0.3778  0.2092
  226MOL    O9541045   2.693   1.340   4.117  0.0928  0.4694  0.2452
  226MOL    O9641046   2.537   1.374   4.286  0.4856  0.2757 -0.0692
  226MOL    H9741047   2.592   1.149   4.358  0.5379  1.5147  0.4455
  226MOL    H9841048   2.700   0.954   4.217 -1.5898 -0.9940 -0.4814
  226MOL    H9941049   2.561   1.028   4.155 -0.2767 -0.4564  0.9454
  226MOL   H10041050   2.719   1.081   4.093  2.0794 -1.0245  1.2302
  226MOL   C10141051   2.514   1.515   4.265  0.0958 -0.0777  0.5673
  226MOL   C10241052   2.450   1.594   4.378  0.3076 -0.5247 -0.3766
  226MOL   C10341053   2.421   1.527   4.140  0.3059 -0.2158 -0.2556
  226MOL   O10441054   2.378   1.423   4.087 -0.2057 -0.2429  0.0430
  226MOL   O10541055   2.401   1.653   4.086  0.3399 -0.0812 -0.0046
  226MOL   H10641056   2.605   1.562   4.230 -0.0635 -0.7890 -0.8087
  226MOL   H10741057   2.513   1.584   4.466  0.0698 -1.0538 -0.2617
  226MOL   H10841058   2.435   1.700   4.357  0.6010 -0.4411 -0.1663
  226MOL   H10941059   2.359   1.539   4.402  2.2792 -3.4848  0.5750
  226MOL   C11041060   2.314   1.676   3.978  0.1918 -0.4535  0.0760
  226MOL   C11141061   2.354   1.813   3.943 -0.1590  0.1287 -0.1346
  226MOL   C11241062   2.166   1.661   4.028 -0.3932 -0.3091  0.0086
  226MOL   O11341063   2.076   1.625   3.947  0.2384  0.1997 -0.1505
  226MOL   O11441064   2.155   1.671   4.161 -0.2665 -0.2092 -0.2026
  226MOL   H11541065   2.337   1.606   3.898 -2.6606 -1.5392  0.1487
  226MOL   H11641066   2.339   1.881   4.027 -0.2607  0.7841 -0.6732
  226MOL   H11741067   2.456   1.817   3.905  0.5623 -0.1865  1.7589
  226MOL   H11841068   2.288   1.848   3.863  1.5405  3.1932 -0.2824
  226MOL   C11941069   2.025   1.650   4.219  0.2542 -0.1254 -0.3807
  226MOL   C12041070   2.042   1.695   4.364  0.1470  0.0727  0.4026
  226MOL   C12141071   1.982   1.498   4.220  0.2562  0.0772  0.0079
  226MOL   O12241072   1.867   1.466   4.206 -0.4366 -0.3027 -0.1474
  226MOL   O12341073   2.094   1.418   4.251  0.6157 -0.0988 -0.0778
  226MOL   H12441074   1.943   1.706   4.173 -1.4709 -1.0865  1.4058
  226MOL   H12541075   1.958   1.755   4.399  0.4194  1.2331 -0.9295
  226MOL   H12641076   2.061   1.607   4.426 -0.5281 -0.0280  0.4729
  226MOL   H12741077   2.134   1.749   4.386  0.6271 -1.4982  2.4978
  226MOL   C12841078   2.077   1.283   4.279 -0.4700  0.3346 -0.0278
  226MOL   C12941079   2.216   1.240   4.334  0.9076 -0.1509 -0.1070
  226MOL   C13041080   2.053   1.200   4.152 -0.0391 -0.2148  0.2327
  226MOL   O13141081   2.042   1.077   4.158  0.1082  0.4734 -0.1646
  226MOL   O13241082   2.057   1.275   4.042  0.7295 -0.1750 -0.1228
  226MOL   H13341083   1.999   1.285   4.355 -0.2065  1.9659  0.2112
  226MOL   H13441084   2.277   1.249   4.244 -0.1400 -0.6421 -0.8842
  226MOL   H13541085   2.244   1.305   4.417 -0.0194  1.8951 -1.3592
  226MOL   H13641086   2.201   1.139   4.372 -0.0248  0.6725  1.7644
  226MOL   C13741087   2.037   1.227   3.915  0.1530 -0.4650 -0.2606
  226MOL   C13841088   2.056   1.334   3.810 -0.3691 -0.4507  0.1315
  226MOL   C13941089   1.906   1.148   3.900  0.2258  0.6202 -0.7433
  226MOL   O14041090   1.909   1.037   3.853  0.1185 -0.2790 -0.3287
  226MOL   O14141091   1.799   1.213   3.943  0.2092  0.6280  0.2067
  226MOL   H14241092   2.116   1.153   3.903  0.2906 -0.7689  2.2765
  226MOL   H14341093   2.054   1.299   3.707  2.3842 -1.6021  0.4307
  226MOL   H14441094   1.971   1.401   3.826  0.8692  1.5359 -1.3959
  226MOL   H14541095   2.155   1.379   3.822 -0.1634 -0.0194 -2.7566
  226MOL   C14641096   1.663   1.166   3.934 -0.4073  0.3727 -0.3949
  226MOL   C14741097   1.591   1.302   3.960 -0.3036  0.2883  0.5919
  226MOL   C14841098   1.638   1.058   4.045 -0.2131 -0.4085 -0.4349
  226MOL   O14941099   1.621   0.937   4.022 -0.2211  0.2674 -0.4258
  226MOL   O15041100   1.639   1.117   4.171  0.1588  0.1217 -0.0437
  226MOL   H15141101   1.645   1.138   3.830 -0.8770 -3.7624  0.7113
  226MOL   H15241102   1.483   1.290   3.958 -0.3539  0.6305  1.1185
  226MOL   H15341103   1.635   1.344   4.050 -2.3465  0.6257  1.4500
  226MOL   H15441104   1.626   1.365   3.878  1.9119  0.3851  1.5724
  226MOL   C15541105   1.612   1.033   4.285  0.0793  0.4442  0.0887
  226MOL   C15641106   1.543   1.112   4.399 -0.4719 -0.4172 -0.7228
  226MOL   C15741107   1.735   0.962   4.343  0.7601  0.1412 -0.7155
  226MOL   O15841108   1.849   0.988   4.313  0.2066  0.1815  0.0599
  226MOL   O15941109   1.698   0.863   4.430 -0.2491  0.3150 -0.3054
  226MOL   H16041110   1.543   0.955   4.254 -0.7405  0.2313  2.3577
  226MOL   H16141111   1.582   1.081   4.497 -1.3691 -1.5751 -0.7216
  226MOL   H16241112   1.567   1.218   4.390 -0.3006 -0.4111 -0.2401
  226MOL   H16341113   1.435   1.102   4.395 -0.5281 -0.4768  0.7845
  226MOL   C16441114   1.793   0.794   4.511 -0.6589 -0.3649  0.5106
  226MOL   C16541115   1.729   0.681   4.593  0.0786  0.5594  0.1959
  226MOL   C16641116   1.841   0.892   4.620  0.7845  0.9219  0.0610
  226MOL   O16741117   1.963   0.901   4.652  0.2860  0.3105  0.8585
  226MOL   O16841118   1.740   0.979   4.671 -0.2047  0.1567  0.2148
  226MOL   H16941119   1.877   0.759   4.450  1.7272  3.0468  1.7073
  226MOL   H17041120   1.683   0.601   4.535 -2.3779 -0.5917  3.5209
  226MOL   H17141121   1.805   0.638   4.659 -1.4123 -1.5917  0.5656
  226MOL   H17241122   1.648   0.717   4.657  0.9982 -0.6525  2.0907
  226MOL   C17341123   1.769   1.087   4.758 -0.2937 -0.3999  0.3306
  226MOL   C17441124   1.641   1.133   4.823  0.1793  0.1243  0.5537
  226MOL   C17541125   1.845   1.199   4.678  0.3443  0.7157 -0.3240
  226MOL   O17641126   1.794   1.303   4.632  0.7816 -0.1068 -0.4800
  226MOL   O17741127   1.976   1.174   4.674  0.6664  0.3342 -0.3052
  226MOL   H17841128   1.827   1.043   4.839 -1.0980  2.2675  2.4617
  226MOL   H17941129   1.639   1.236   4.857 -1.4013  0.6932 -1.2286
  226MOL   H18041130   1.559   1.107   4.757  1.6709 -0.9130 -0.9584
  226MOL   H18141131   1.640   1.067   4.910 -0.5232  0.2754  0.6576
  226MOL   H18241132   2.010   1.101   4.724 -2.0508 -1.1730 -0.5754
  227MOL     C141133   3.000   0.237   4.458 -0.1132 -0.2793 -0.2342
  227MOL     C241134   3.072   0.375   4.439  0.1488 -0.5748  1.0429
  227MOL     C341135   2.908   0.204   4.344 -0.7064 -0.3571  0.1950
  227MOL     O441136   2.928   0.254   4.231 -0.0828  0.8153  0.3303
  227MOL     O541137   2.832   0.099   4.373  1.0705 -0.3012 -0.2849
  227MOL     H641138   3.067   0.151   4.460 -0.3078 -0.5096 -2.5227
  227MOL     H741139   3.123   0.404   4.531  0.0280 -0.3414  1.0376
  227MOL     H841140   3.145   0.380   4.359 -1.6211  2.2208 -0.4969
  227MOL     H941141   2.996   0.452   4.423 -1.0024 -1.9899 -0.4984
  227MOL    H1041142   2.939   0.236   4.549 -1.5679  0.8278 -1.1846
  227MOL    C1141143   2.754   0.030   4.275  0.3269 -0.2484  0.6686
  227MOL    C1241144   2.635   8.120   4.344 -0.0260  0.1416  0.5477
  227MOL    C1341145   2.849   8.065   4.220 -0.0102  0.0664 -0.5470
  227MOL    O1441146   2.962   8.045   4.270  0.3480  0.8428 -0.0047
  227MOL    O1541147   2.791   7.993   4.125  0.7187  0.0522 -0.5860
  227MOL    H1641148   2.720   0.095   4.194  1.1463 -1.4651 -0.6898
  227MOL    H1741149   2.577   0.050   4.394 -1.4478  0.4237 -1.5019
  227MOL    H1841150   2.566   8.067   4.279 -0.5659  0.7237  0.6368
  227MOL    H1941151   2.667   8.054   4.424 -1.0941  1.5348  2.1617
  227MOL    C2041152   2.848   7.883   4.064 -0.2817  0.1513  0.2671
  227MOL    C2141153   2.790   7.871   3.919  0.5308 -0.5256  0.3672
  227MOL    C2241154   2.801   7.759   4.146  0.3214  0.3282 -0.1799
  227MOL    O2341155   2.700   7.697   4.118 -0.2643 -0.4962 -0.1940
  227MOL    O2441156   2.872   7.747   4.262 -0.2263  0.4000 -0.1702
  227MOL    H2541157   2.956   7.889   4.053 -0.0142 -3.6599  0.0612
  227MOL    H2641158   2.810   7.769   3.885 -0.5522 -0.9928  1.0982
  227MOL    H2741159   2.682   7.882   3.920  0.6082  0.2133  1.0180
  227MOL    H2841160   2.834   7.941   3.848 -0.1237 -1.1169 -0.6415
  227MOL    C2941161   2.878   7.623   4.328  0.2758 -0.5088  0.0146
  227MOL    C3041162   2.766   7.599   4.426  0.2905  0.7698 -0.5291
  227MOL    C3141163   3.017   7.610   4.388 -0.4491  0.2856 -0.3900
  227MOL    O3241164   3.034   7.585   4.508 -0.4000  0.1645  0.2436
  227MOL    O3341165   3.113   7.647   4.302 -0.1074  0.2858 -0.3864
  227MOL    H3441166   2.883   7.543   4.253 -0.5433  0.8863 -1.5721
  227MOL    H3541167   2.719   7.688   4.467 -0.3641 -0.6140  1.8292
  227MOL    H3641168   2.691   7.533   4.383 -0.1582  1.8321 -1.3904
  227MOL    H3741169   2.792   7.530   4.507  0.3472  0.1139 -1.1056
  227MOL    C3841170   3.254   7.645   4.331  0.4981  0.3002  0.4965
  227MOL    C3941171   3.337   7.706   4.212  0.3633  0.9437 -0.1261
  227MOL    C4041172   3.315   7.510   4.364  0.4147 -0.0348 -0.2261
  227MOL    O4141173   3.269   7.398   4.326 -0.2356 -0.3197  0.1836
  227MOL    O4241174   3.429   7.514   4.440  0.5653  0.2484  0.0636
  227MOL    H4341175   3.259   7.699   4.426  2.2063  0.3853  0.3671
  227MOL    H4441176   3.315   7.655   4.119  1.0407  2.5791 -1.1997
  227MOL    H4541177   3.298   7.807   4.197 -1.1392  0.5100  0.6806
  227MOL    H4641178   3.443   7.712   4.234  0.2018 -0.2467  1.1028
  227MOL    C4741179   3.503   7.399   4.469 -0.0607 -0.7940 -0.8442
  227MOL    C4841180   3.598   7.438   4.581  0.4377  0.4540 -0.3822
  227MOL    C4941181   3.580   7.358   4.348  0.0652 -0.3917  0.4358
  227MOL    O5041182   3.600   7.244   4.311 -0.1033 -0.0842  0.5423
  227MOL    O5141183   3.629   7.462   4.281  0.5298  0.4146 -0.0261
  227MOL    H5241184   3.442   7.315   4.502 -0.7100  0.0371  0.1074
  227MOL    H5341185   3.553   7.451   4.680 -1.1344  1.3648 -1.1925
  227MOL    H5441186   3.676   7.366   4.605  0.2432  0.2525 -0.3462
  227MOL    H5541187   3.650   7.531   4.558  1.9420 -0.5422 -1.0351
  227MOL    C5641188   3.685   7.451   4.157 -0.1947 -0.2785 -0.1029
  227MOL    C5741189   3.762   7.586   4.139 -0.4921  0.4690 -0.2172
  227MOL    C5841190   3.578   7.443   4.045  0.7681 -0.1873  0.4674
  227MOL    O5941191   3.501   7.536   4.017 -0.7099 -0.5183  0.2998
  227MOL    O6041192   3.577   7.327   3.984  0.0044 -0.1382  0.4928
  227MOL    H6141193   3.766   7.378   4.160 -0.5988 -0.7958 -1.3917
  227MOL    H6241194   3.699   7.674   4.122 -1.5921  0.0036  1.3116
  227MOL    H6341195   3.833   7.610   4.218 -0.6145 -0.2421  0.1116
  227MOL    H6441196   3.822   7.561   4.052  1.2632 -3.4892  2.0539
  227MOL    C6541197   3.468   7.281   3.902  0.1720 -0.0082 -0.4572
  227MOL    C6641198   3.374   7.210   3.992 -0.4408  0.6182 -0.0367
  227MOL    C6741199   3.521   7.194   3.780 -0.4434 -0.4549 -0.5229
  227MOL    O6841200   3.567   7.250   3.679  0.1683  0.0180  0.7772
  227MOL    O6941201   3.491   7.054   3.800  0.0568 -0.0771  0.4094
  227MOL    H7041202   3.406   7.360   3.859  0.4333  0.7017  0.4603
  227MOL    H7141203   3.302   7.158   3.929 -1.1646  0.7087  0.7059
  227MOL    H7241204   3.423   7.131   4.049 -2.3100  1.1139  2.3294
  227MOL    H7341205   3.329   7.286   4.056 -0.7244  1.1102 -0.8114
  227MOL    C7441206   3.516   6.956   3.703 -0.5111  0.9692  0.6761
  227MOL    C7541207   3.447   6.823   3.731  0.6073  0.4214 -0.1057
  227MOL    C7641208   3.675   6.926   3.693 -0.0263 -0.6054  0.7364
  227MOL    O7741209   3.757   6.969   3.777 -0.0234 -0.1531  1.0209
  227MOL    O7841210   3.712   6.861   3.575 -0.3999  0.1215  0.4556
  227MOL    H7941211   3.473   6.997   3.612  0.1417 -0.0193 -0.0749
  227MOL    H8041212   3.491   6.768   3.814 -4.4433 -1.7297  1.3022
  227MOL    H8141213   3.343   6.828   3.761  1.3353 -1.6661  2.9591
  227MOL    H8241214   3.453   6.763   3.640 -0.5640 -0.8883  0.6758
  227MOL    C8341215   3.842   6.810   3.561 -0.2595 -0.4368  0.5659
  227MOL    C8441216   3.909   6.936   3.495 -0.6233  0.2901 -0.5536
  227MOL    C8541217   3.822   6.679   3.479  0.6811 -0.0405  0.6562
  227MOL    O8641218   3.877   6.666   3.370 -0.3125  0.1443  0.6057
  227MOL    O8741219   3.744   6.586   3.545 -0.7023 -0.4093  0.1407
  227MOL    H8841220   3.878   6.777   3.658 -1.6224 -0.5596  1.0526
  227MOL    H8941221   3.898   6.938   3.386 -1.7309  1.0131 -0.4368
  227MOL    H9041222   3.880   7.027   3.547 -2.5342 -1.4435  1.5268
  227MOL    H9141223   4.016   6.929   3.509 -0.6264  2.1385  0.4733
  227MOL    C9241224   3.723   6.453   3.497  0.1617 -0.1962  0.1617
  227MOL    C9341225   3.597   6.456   3.417  0.1942 -0.1484  0.0877
  227MOL    C9441226   3.729   6.345   3.606  0.0547 -0.8381  0.3783
  227MOL    O9541227   3.682   6.230   3.600 -0.6445 -0.3514 -0.0891
  227MOL    O9641228   3.790   6.393   3.712 -0.1580  0.3283 -0.1341
  227MOL    H9741229   3.808   6.427   3.434  0.1329  1.4397 -0.5834
  227MOL    H9841230   3.522   6.512   3.472  1.1775  0.4069  0.9001
  227MOL    H9941231   3.622   6.494   3.318  1.2379 -2.2382 -0.4893
  227MOL   H10041232   3.556   6.358   3.392  1.0527 -0.8758  1.4342
  227MOL   C10141233   3.803   6.315   3.831  0.5186 -0.7161  0.1339
  227MOL   C10241234   3.793   6.422   3.944  0.5037  0.4742  0.3881
  227MOL   C10341235   3.940   6.235   3.834  0.2358  0.6351 -0.7186
  227MOL   O10441236   3.960   6.176   3.941 -0.1259 -0.1667  0.0195
  227MOL   O10541237   4.015   6.225   3.722 -0.3784 -0.0039  0.2046
  227MOL   H10641238   3.719   6.247   3.839 -0.5076  0.3490 -1.2715
  227MOL   H10741239   3.832   6.377   4.036 -0.8772 -0.2315  0.6304
  227MOL   H10841240   3.851   6.512   3.922  0.9748 -0.0490 -0.5173
  227MOL   H10941241   3.692   6.446   3.975  0.8418 -1.2126  2.9206
  227MOL   C11041242   4.137   6.156   3.706 -0.9224  0.2719  0.1248
  227MOL   C11141243   4.240   6.255   3.639 -0.2687  0.3947 -0.3395
  227MOL   C11241244   4.111   6.025   3.626  0.6560 -0.0541  0.3157
  227MOL   O11341245   4.150   5.913   3.667  0.3291 -0.6264  0.1712
  227MOL   O11441246   4.064   6.044   3.501 -0.0310  0.2085  0.3364
  227MOL   H11541247   4.169   6.124   3.805 -1.2163  0.4856  0.2874
  227MOL   H11641248   4.337   6.207   3.640 -1.0334 -1.1686  1.3773
  227MOL   H11741249   4.205   6.278   3.539  1.5435 -0.4940 -1.1861
  227MOL   H11841250   4.246   6.347   3.699 -0.5083 -0.1600  0.5517
  227MOL   C11941251   4.027   5.936   3.412 -0.1935 -0.2420  0.6181
  227MOL   C12041252   3.973   5.996   3.282 -0.5455  0.1545  0.4545
  227MOL   C12141253   3.912   5.850   3.462 -0.0863  0.0451  0.6153
  227MOL   O12241254   3.917   5.733   3.483  0.1906  0.0146  0.0260
  227MOL   O12341255   3.804   5.926   3.476  0.0429  0.0106  0.6869
  227MOL   H12441256   4.112   5.872   3.385 -0.8414 -1.1828  0.7739
  227MOL   H12541257   3.923   5.925   3.216 -1.1756  2.0261 -1.1281
  227MOL   H12641258   3.910   6.084   3.295 -1.7747 -0.8208  1.1438
  227MOL   H12741259   4.061   6.034   3.230 -0.4603  2.5010  2.2402
  227MOL   C12841260   3.693   5.885   3.560 -0.3751 -0.1321  0.1880
  227MOL   C12941261   3.566   5.954   3.517  0.3988  0.6362  0.3595
  227MOL   C13041262   3.731   5.894   3.710  0.8540  0.2055  0.4697
  227MOL   O13141263   3.842   5.927   3.755 -0.2106 -0.1263  1.0663
  227MOL   O13241264   3.632   5.856   3.789 -0.0357  0.0151  0.2757
  227MOL   H13341265   3.673   5.778   3.547 -1.3903  0.2205 -1.3388
  227MOL   H13441266   3.568   5.994   3.415  1.4449 -1.2901 -0.4146
  227MOL   H13541267   3.475   5.894   3.517  0.6807  0.2097  0.7468
  227MOL   H13641268   3.559   6.048   3.572  0.8409  1.6435 -1.2690
  227MOL   C13741269   3.642   5.850   3.932  0.3717 -0.1845  0.0038
  227MOL   C13841270   3.527   5.756   3.977 -0.1421 -0.1425 -0.5325
  227MOL   C13941271   3.621   5.991   3.991  0.8133  0.8395 -0.4039
  227MOL   O14041272   3.582   6.085   3.924  0.0648 -0.4830 -0.3673
  227MOL   O14141273   3.666   6.010   4.121  0.7209  0.4874 -0.1862
  227MOL   H14241274   3.736   5.812   3.971  0.9623 -1.2125 -2.3347
  227MOL   H14341275   3.431   5.801   3.951  0.4397  0.5029 -1.6332
  227MOL   H14441276   3.543   5.652   3.950  2.5823 -0.3758  1.7300
  227MOL   H14541277   3.517   5.748   4.085 -0.1499 -1.7658 -0.6384
  227MOL   C14641278   3.663   6.132   4.189  0.4555 -0.1516 -0.8503
  227MOL   C14741279   3.748   6.111   4.311 -0.6989  0.3617  0.2651
  227MOL   C14841280   3.515   6.150   4.218  0.4467 -0.4372 -0.2748
  227MOL   O14941281   3.446   6.251   4.192  0.6105  0.0818  0.1371
  227MOL   O15041282   3.467   6.046   4.291 -0.0214  0.0541 -0.0499
  227MOL   H15141283   3.706   6.209   4.124 -0.9912  2.0962  0.7470
  227MOL   H15241284   3.854   6.137   4.302 -0.0915 -2.1795 -0.2699
  227MOL   H15341285   3.709   6.177   4.389 -0.3516  1.5139 -0.5146
  227MOL   H15441286   3.752   6.010   4.350  1.9046  0.1641 -0.4143
  227MOL   C15541287   3.329   6.029   4.317  0.3313  0.2178  0.0434
  227MOL   C15641288   3.299   5.926   4.420  0.0232 -0.5517 -0.4256
  227MOL   C15741289   3.241   6.019   4.195 -0.1737  0.7604  0.3966
  227MOL   O15841290   3.288   5.998   4.087  0.0003  0.3033 -0.0954
  227MOL   O15941291   3.108   6.025   4.227 -0.0832  0.8789  0.4026
  227MOL   H16041292   3.308   6.123   4.369  1.1471  0.7490 -0.5737
  227MOL   H16141293   3.191   5.926   4.435 -0.0018 -0.0603 -0.6155
  227MOL   H16241294   3.331   5.824   4.399 -2.8313 -1.9489  1.6461
  227MOL   H16341295   3.326   5.965   4.518 -1.7195 -1.5331  0.4789
  227MOL   C16441296   3.013   6.006   4.122  0.7830  0.4620 -0.3122
  227MOL   C16541297   2.995   6.138   4.051 -0.2167  0.2657  0.4210
  227MOL   C16641298   2.879   5.957   4.196 -0.2386  0.6691  0.7031
  227MOL   O16741299   2.813   5.855   4.165  0.3075  0.8945 -0.0408
  227MOL   O16841300   2.852   6.031   4.300 -0.2825 -0.4297 -0.8524
  227MOL   H16941301   3.043   5.928   4.052  0.5862  0.2474 -0.1579
  227MOL   H17041302   2.943   6.216   4.107 -0.8534  0.6235 -0.6466
  227MOL   H17141303   3.084   6.187   4.013 -1.4455  0.5815 -2.1856
  227MOL   H17241304   2.941   6.115   3.958  0.2337 -1.8749  0.6675
  227MOL   C17341305   2.755   5.989   4.395  0.2066 -0.0247  0.8847
  227MOL   C17441306   2.685   6.107   4.453 -0.2198  0.0528  1.0916
  227MOL   C17541307   2.817   5.897   4.497  0.1450 -0.5139  0.5035
  227MOL   O17641308   2.935   5.857   4.502 -0.1395 -0.2250 -0.5155
  227MOL   O17741309   2.729   5.853   4.589 -0.0010 -0.1234  0.6726
  227MOL   H17841310   2.693   5.915   4.343  1.2485 -1.3512  1.5096
  227MOL   H17941311   2.762   6.167   4.502  0.6270  0.0966 -0.2593
  227MOL   H18041312   2.642   6.183   4.388  0.5286 -0.5653 -0.1524
  227MOL   H18141313   2.609   6.080   4.527  0.0966 -2.3238  0.5783
  227MOL   H18241314   2.772   5.794   4.650  0.1107 -2.9318 -2.0249
  228MOL     C141315   4.337   1.515   2.057 -0.6366  0.1354  0.3239
  228MOL     C241316   4.355   1.468   2.197  0.3467  0.1300 -0.3372
  228MOL     C341317   4.392   1.655   2.050 -0.4544  0.0799  0.2874
  228MOL     O441318   4.471   1.699   1.962  0.6873  0.1695 -0.1950
  228MOL     O541319   4.324   1.735   2.142 -0.4061 -0.1383 -0.4096
  228MOL     H641320   4.397   1.466   1.980 -2.1949  1.1720 -1.5652
  228MOL     H741321   4.341   1.361   2.216 -3.1692  0.8502  1.5575
  228MOL     H841322   4.444   1.512   2.242  0.5139 -0.9430  0.4043
  228MOL     H941323   4.281   1.520   2.258  0.9353  0.2176  0.3182
  228MOL    H1041324   4.233   1.514   2.026 -0.0350  1.1519 -1.8395
  228MOL    C1141325   4.365   1.877   2.162  0.3991  0.2879 -0.3864
  228MOL    C1241326   4.364   1.922   2.310 -0.2731 -0.0967  0.3317
  228MOL    C1341327   4.283   1.969   2.071  0.0949 -0.5853 -0.3381
  228MOL    O1441328   4.188   1.923   2.009  0.4221 -0.2985  0.2417
  228MOL    O1541329   4.324   2.095   2.068 -0.2055 -0.1615 -0.3072
  228MOL    H1641330   4.465   1.902   2.125  1.4766 -0.7256  1.7966
  228MOL    H1741331   4.444   1.886   2.375  2.0597  3.1135 -0.5972
  228MOL    H1841332   4.366   2.031   2.312 -2.0447 -0.0401  0.2902
  228MOL    H1941333   4.269   1.901   2.359  0.2937 -0.5643  1.2463
  228MOL    C2041334   4.237   2.201   2.016 -0.2874  0.0139 -0.1889
  228MOL    C2141335   4.313   2.251   1.896  0.2136  0.3931  0.0239
  228MOL    C2241336   4.218   2.300   2.131  0.5582 -0.2384  0.0021
  228MOL    O2341337   4.224   2.418   2.115 -0.3799 -0.0303 -0.9195
  228MOL    O2441338   4.181   2.235   2.240 -0.0849 -0.2013 -0.4098
  228MOL    H2541339   4.136   2.177   1.985 -0.3555 -1.9854  1.5027
  228MOL    H2641340   4.259   2.327   1.840 -0.9549 -1.3580 -1.2813
  228MOL    H2741341   4.408   2.291   1.930  0.2101 -0.2557  0.8203
  228MOL    H2841342   4.330   2.169   1.826  1.4036  1.5048 -0.9990
  228MOL    C2941343   4.156   2.299   2.366  0.2876 -0.0752  0.1319
  228MOL    C3041344   4.265   2.261   2.472  0.0235 -0.5719  0.1751
  228MOL    C3141345   4.033   2.237   2.429  0.5399  0.1185 -0.0613
  228MOL    O3241346   3.947   2.315   2.485 -0.5955 -0.3325  0.9085
  228MOL    O3341347   4.024   2.102   2.418 -0.4679  0.5881 -0.7665
  228MOL    H3441348   4.139   2.407   2.361  1.2036  0.0446 -0.3728
  228MOL    H3541349   4.351   2.318   2.435 -1.5733  2.4511  0.8931
  228MOL    H3641350   4.240   2.304   2.569 -1.4659  1.4622 -1.0430
  228MOL    H3741351   4.271   2.153   2.481 -3.4082 -0.9052 -0.5554
  228MOL    C3841352   3.902   2.024   2.447  0.0795 -0.6414  0.2299
  228MOL    C3941353   3.932   1.873   2.435  0.5610  0.1790 -0.0931
  228MOL    C4041354   3.783   2.069   2.355 -0.5003 -0.3416 -0.1860
  228MOL    O4141355   3.672   2.086   2.404 -0.6583  0.2863  0.3729
  228MOL    O4241356   3.809   2.097   2.231 -0.7299 -0.4775 -0.0951
  228MOL    H4341357   3.870   2.039   2.550 -2.2596 -2.5520 -0.1706
  228MOL    H4441358   3.836   1.822   2.430  1.1487 -1.2850  2.4819
  228MOL    H4541359   3.989   1.865   2.342 -2.3172  1.7525 -2.0638
  228MOL    H4641360   3.985   1.832   2.521 -2.0624 -1.4439  0.8041
  228MOL    C4741361   3.722   2.165   2.138 -0.5202  0.1559 -0.3054
  228MOL    C4841362   3.805   2.170   2.006  0.8117 -0.5439  0.6787
  228MOL    C4941363   3.682   2.309   2.188 -0.2041  0.7891  0.4382
  228MOL    O5041364   3.566   2.346   2.173 -0.4497  0.2240  0.0333
  228MOL    O5141365   3.792   2.382   2.245  0.2495  0.1164  0.3171
  228MOL    H5241366   3.633   2.107   2.119 -1.8342  2.7540 -2.5243
  228MOL    H5341367   3.834   2.076   1.959 -0.7661 -0.0874 -1.2769
  228MOL    H5441368   3.743   2.224   1.934  0.6835 -0.9032  0.5204
  228MOL    H5541369   3.895   2.229   2.023  0.1029  0.1650  2.0329
  228MOL    C5641370   3.776   2.515   2.290 -0.1695  0.2130 -0.3146
  228MOL    C5741371   3.910   2.597   2.275 -0.0420  0.2701 -0.0852
  228MOL    C5841372   3.718   2.527   2.430  0.4763 -0.3882 -0.0356
  228MOL    O5941373   3.707   2.637   2.477  0.3557 -0.7112  0.1956
  228MOL    O6041374   3.686   2.405   2.487  0.1525 -0.0165  0.0491
  228MOL    H6141375   3.706   2.569   2.226 -0.3543 -1.7359 -1.8152
  228MOL    H6241376   3.979   2.576   2.356 -0.0396  2.8901  0.6272
  228MOL    H6341377   3.969   2.559   2.192  0.3455 -1.5163  0.9786
  228MOL    H6441378   3.887   2.704   2.268 -2.1892 -0.0962  0.8956
  228MOL    C6541379   3.636   2.404   2.616 -0.1546 -0.3332  0.1512
  228MOL    C6641380   3.661   2.268   2.673 -0.3083  0.4681  0.0776
  228MOL    C6741381   3.481   2.428   2.612  0.1135  0.4886  0.0359
  228MOL    O6841382   3.425   2.481   2.519  0.3715  0.0990 -0.7808
  228MOL    O6941383   3.418   2.379   2.720  0.3890  0.1231  0.6138
  228MOL    H7041384   3.682   2.479   2.680 -0.0049  0.6879 -1.1221
  228MOL    H7141385   3.620   2.271   2.774 -0.3612  2.8914  0.0173
  228MOL    H7241386   3.608   2.186   2.625  1.6680 -1.0101  0.3913
  228MOL    H7341387   3.765   2.239   2.684 -0.3869 -0.5154 -1.6018
  228MOL    C7441388   3.276   2.382   2.717 -0.9474  0.3841 -0.1893
  228MOL    C7541389   3.247   2.386   2.865 -0.0839 -0.5233 -0.1254
  228MOL    C7641390   3.213   2.265   2.645  0.1506  0.3120 -1.0865
  228MOL    O7741391   3.172   2.164   2.699  0.2691  0.4049 -0.5607
  228MOL    O7841392   3.209   2.282   2.510 -0.2516 -0.0376 -0.3707
  228MOL    H7941393   3.243   2.478   2.678 -1.4046  0.1825 -0.3062
  228MOL    H8041394   3.284   2.294   2.909  1.7487  0.0875 -0.3636
  228MOL    H8141395   3.281   2.477   2.915  0.6185 -0.0370 -1.4475
  228MOL    H8241396   3.140   2.379   2.886 -0.3002 -2.4348 -1.7548
  228MOL    C8341397   3.152   2.186   2.424  0.0697 -0.2882  0.8867
  228MOL    C8441398   3.204   2.209   2.280 -0.1456  0.1826  0.3648
  228MOL    C8541399   2.996   2.202   2.428 -0.4978 -1.1850  0.3611
  228MOL    O8641400   2.942   2.293   2.488  0.0094 -0.1091  0.3342
  228MOL    O8741401   2.926   2.117   2.359  0.2842 -0.0212 -0.4166
  228MOL    H8841402   3.168   2.083   2.458  0.3505 -0.2626  0.8323
  228MOL    H8941403   3.310   2.235   2.277  0.0003 -0.3899  0.5788
  228MOL    H9041404   3.195   2.116   2.224  2.2491 -0.7858  1.5343
  228MOL    H9141405   3.151   2.293   2.234  0.6140  0.6640  0.3569
  228MOL    C9241406   2.782   2.126   2.361 -1.0819  0.3092 -0.0134
  228MOL    C9341407   2.734   1.999   2.305 -0.5139  0.5131  0.2829
  228MOL    C9441408   2.728   2.244   2.276  0.1679 -0.1916 -0.6319
  228MOL    O9541409   2.654   2.329   2.330  0.1548 -0.1953  0.4972
  228MOL    O9641410   2.767   2.243   2.149  0.1626  0.7268 -0.3543
  228MOL    H9741411   2.757   2.125   2.467  2.4497 -1.4555  0.8808
  228MOL    H9841412   2.626   1.998   2.318 -0.4351  0.8325  0.9972
  228MOL    H9941413   2.760   1.977   2.202 -0.3909  0.8075  0.2495
  228MOL   H10041414   2.773   1.910   2.355 -0.3000 -0.2670 -1.2448
  228MOL   C10141415   2.765   2.359   2.063  0.1325  0.0605 -0.2189
  228MOL   C10241416   2.716   2.305   1.928  1.1352  0.3111  0.9883
  228MOL   C10341417   2.907   2.425   2.061  0.4847  0.1384 -0.1037
  228MOL   O10441418   2.946   2.493   2.157  0.7197  0.1022  0.0904
  228MOL   O10541419   2.972   2.407   1.942 -0.2685 -0.1613  0.2852
  228MOL   H10641420   2.692   2.434   2.092 -1.0942 -0.6084 -1.4957
  228MOL   H10741421   2.777   2.227   1.881 -0.7674 -0.5268 -0.1581
  228MOL   H10841422   2.617   2.261   1.929  0.8583  0.9488  2.3723
  228MOL   H10941423   2.725   2.380   1.850  0.4740 -0.4216  0.2010
  228MOL   C11041424   3.105   2.444   1.930 -0.1400  0.5971  0.0430
  228MOL   C11141425   3.119   2.579   1.864  0.4261 -0.4921  0.1059
  228MOL   C11241426   3.167   2.326   1.849  0.2062 -0.5860 -0.3431
  228MOL   O11341427   3.232   2.345   1.742  0.1173 -0.2660  0.2618
  228MOL   O11441428   3.162   2.209   1.914 -0.3127  0.0411 -0.0964
  228MOL   H11541429   3.164   2.444   2.021  2.8778 -1.9561 -1.8193
  228MOL   H11641430   3.111   2.667   1.928  1.3500 -2.2246  2.6595
  228MOL   H11741431   3.219   2.595   1.822  0.2068  2.8792  0.7442
  228MOL   H11841432   3.046   2.591   1.784  0.8312  2.0381  0.0651
  228MOL   C11941433   3.184   2.082   1.859  0.0956  0.0677 -0.5765
  228MOL   C12041434   3.121   1.977   1.947 -0.1585 -0.7359 -0.1809
  228MOL   C12141435   3.331   2.047   1.829  0.3409  0.5567 -0.1614
  228MOL   O12241436   3.420   2.122   1.867 -0.2285  0.2263 -0.3532
  228MOL   O12341437   3.347   1.932   1.778 -0.2735 -0.1997 -0.0789
  228MOL   H12441438   3.122   2.081   1.769 -1.0653  2.4141  0.1523
  228MOL   H12541439   3.140   2.000   2.051  0.9322 -2.8868  0.1336
  228MOL   H12641440   3.013   1.970   1.929 -0.1064 -1.5712 -0.1798
  228MOL   H12741441   3.160   1.876   1.933  0.7193 -0.5660  1.0099
  228MOL   C12841442   3.469   1.862   1.774 -0.1539 -0.5780 -0.4453
  228MOL   C12941443   3.474   1.757   1.666  0.5680  0.2585  0.5305
  228MOL   C13041444   3.505   1.823   1.921 -0.7619 -0.2451  0.1874
  228MOL   O13141445   3.619   1.828   1.967 -0.5164 -0.3004 -0.2526
  228MOL   O13241446   3.397   1.785   1.993  0.2422  0.7555  0.1591
  228MOL   H13341447   3.537   1.937   1.735 -2.3044  2.4803  1.4986
  228MOL   H13441448   3.382   1.699   1.668  0.6874 -0.0605 -1.9205
  228MOL   H13541449   3.476   1.795   1.564  0.3214 -1.1994 -0.0327
  228MOL   H13641450   3.550   1.680   1.680  0.1830  0.1179  1.8732
  228MOL   C13741451   3.413   1.737   2.130  0.2198  0.4141 -0.4458
  228MOL   C13841452   3.463   1.843   2.229  0.2766  0.1540 -0.1139
  228MOL   C13941453   3.484   1.600   2.133  0.0472  0.0154 -0.2500
  228MOL   O14041454   3.598   1.596   2.184 -0.6564  0.1679 -0.0868
  228MOL   O14141455   3.434   1.520   2.034 -0.8118  0.4603  0.2166
  228MOL   H14241456   3.309   1.719   2.155  1.2554 -2.1364  2.4275
  228MOL   H14341457   3.560   1.890   2.211 -0.4188  1.5633 -0.2531
  228MOL   H14441458   3.388   1.922   2.222 -0.1151 -0.4519 -3.3606
  228MOL   H14541459   3.465   1.811   2.333  0.2419 -1.0029 -0.4702
  228MOL   C14641460   3.512   1.400   1.993 -0.1730 -0.8325 -0.1718
  228MOL   C14741461   3.511   1.396   1.836  0.5370  0.4135  0.5438
  228MOL   C14841462   3.456   1.270   2.060  0.3810 -0.2007 -0.4704
  228MOL   O14941463   3.522   1.167   2.051 -0.1270 -0.1295  0.1454
  228MOL   O15041464   3.342   1.285   2.131  0.4109  0.3407 -0.4922
  228MOL   H15141465   3.616   1.414   2.024 -0.1249 -0.9673 -0.2720
  228MOL   H15241466   3.576   1.471   1.792 -0.0809  1.9699  2.2466
  228MOL   H15341467   3.549   1.303   1.793 -1.2096 -0.0289 -0.0872
  228MOL   H15441468   3.410   1.407   1.797  0.9888 -0.5480 -0.9375
  228MOL   C15541469   3.274   1.179   2.194  0.5453 -0.4680 -0.0580
  228MOL   C15641470   3.135   1.237   2.211 -0.6177  0.7690  0.2453
  228MOL   C15741471   3.339   1.136   2.330 -0.3802  0.2908  0.2404
  228MOL   O15841472   3.432   1.203   2.379  0.0332  0.6820 -0.9327
  228MOL   O15941473   3.272   1.032   2.390  0.7486  0.1853  0.5119
  228MOL   H16041474   3.268   1.102   2.117 -0.0847 -1.0013  0.5242
  228MOL   H16141475   3.086   1.244   2.114  0.4313  5.5370 -0.0310
  228MOL   H16241476   3.085   1.171   2.283  1.0648 -0.2024  0.5351
  228MOL   H16341477   3.150   1.337   2.250  0.4091  1.0387 -0.8253
  228MOL   C16441478   3.323   0.992   2.515  0.0717  0.1630 -0.3536
  228MOL   C16541479   3.289   0.843   2.539  0.1768 -0.3310  0.2614
  228MOL   C16641480   3.263   1.075   2.629 -0.6037 -0.1401  0.7982
  228MOL   O16741481   3.169   1.153   2.606 -0.2929 -0.1112 -0.6588
  228MOL   O16841482   3.320   1.047   2.745 -0.3636  0.4259  0.0503
  228MOL   H16941483   3.432   0.994   2.511  0.1418 -0.8412  0.8017
  228MOL   H17041484   3.348   0.774   2.479  0.0220  0.2144 -0.5293
  228MOL   H17141485   3.301   0.810   2.642  1.6568  0.4844  0.3594
  228MOL   H17241486   3.184   0.818   2.520 -0.2334  1.2887  0.3199
  228MOL   C17341487   3.294   1.133   2.862 -0.3471 -0.1419  0.0156
  228MOL   C17441488   3.426   1.135   2.948  0.2061  0.2718  0.2048
  228MOL   C17541489   3.169   1.093   2.942 -0.1750 -0.1953 -0.4593
  228MOL   O17641490   3.179   1.041   3.057  0.1296 -0.4812  0.0658
  228MOL   O17741491   3.048   1.109   2.874  0.0022 -0.3098 -0.2557
  228MOL   H17841492   3.280   1.239   2.842  1.8470 -0.2138 -2.1381
  228MOL   H17941493   3.515   1.148   2.886 -1.2249  0.6662 -1.8228
  228MOL   H18041494   3.419   1.225   3.009  1.0926 -0.8716  2.0428
  228MOL   H18141495   3.433   1.044   3.008 -1.2971 -1.2538 -1.8686
  228MOL   H18241496   3.068   1.138   2.786 -1.0417 -1.0877 -0.7493
  229MOL     C141497   5.604   5.078   6.537  0.2830  0.6173 -0.6118
  229MOL     C241498   5.489   4.976   6.538 -0.5711  0.0074 -0.8885
  229MOL     C341499   5.674   5.101   6.666  0.6085  0.0565 -0.1992
  229MOL     O441500   5.638   5.190   6.743 -0.3992 -0.3952  0.4514
  229MOL     O541501   5.754   5.005   6.689  0.0700  0.3040 -0.1770
  229MOL     H641502   5.673   5.051   6.457  0.5402 -1.2982  0.2235
  229MOL     H741503   5.512   4.903   6.615 -0.7255  0.6664 -0.2051
  229MOL     H841504   5.390   5.010   6.569 -0.6104 -1.6934  0.8911
  229MOL     H941505   5.479   4.928   6.441 -1.5587 -0.1840 -0.7031
  229MOL    H1041506   5.561   5.173   6.504 -1.7387 -0.3973 -0.9748
  229MOL    C1141507   5.821   4.994   6.819 -0.5169  0.3383 -0.3342
  229MOL    C1241508   5.967   4.950   6.784 -0.8171  0.6330  0.2418
  229MOL    C1341509   5.745   4.878   6.893 -0.1627  0.8380 -0.3695
  229MOL    O1441510   5.678   4.794   6.826  0.0624 -0.0998 -0.0681
  229MOL    O1541511   5.768   4.870   7.037  0.2960 -0.6524 -0.3121
  229MOL    H1641512   5.825   5.083   6.882  2.1817 -0.8212  1.2183
  229MOL    H1741513   6.030   4.946   6.873 -0.2712 -1.7044 -0.2132
  229MOL    H1841514   5.975   4.859   6.725 -0.8963  0.7854 -0.0010
  229MOL    H1941515   6.017   5.026   6.724  1.5519 -0.4946  0.7206
  229MOL    C2041516   5.710   4.773   7.116  0.6828 -0.0286 -0.4108
  229MOL    C2141517   5.678   4.829   7.251  0.4558 -0.1833 -0.1132
  229MOL    C2241518   5.812   4.659   7.133 -0.9568  1.0729  0.9840
  229MOL    O2341519   5.933   4.678   7.118  0.2729  0.0954  0.7165
  229MOL    O2441520   5.750   4.542   7.167  0.7419  0.5232  0.1872
  229MOL    H2541521   5.618   4.728   7.077 -0.1196  1.2279 -0.0212
  229MOL    H2641522   5.651   4.750   7.321 -0.8326  0.7069  0.4009
  229MOL    H2741523   5.766   4.884   7.284 -0.7983  1.6461  0.2750
  229MOL    H2841524   5.594   4.898   7.248 -0.1309 -0.7652  2.4878
  229MOL    C2941525   5.824   4.423   7.186 -0.4712 -0.2977 -0.4976
  229MOL    C3041526   5.732   4.306   7.169 -0.0461 -0.4286  0.3482
  229MOL    C3141527   5.897   4.430   7.323 -0.1129  0.0133 -0.5555
  229MOL    O3241528   5.854   4.500   7.414  0.4605 -0.2289  0.1682
  229MOL    O3341529   6.002   4.350   7.328  0.3289 -0.1669 -0.4166
  229MOL    H3441530   5.885   4.416   7.096  1.3273  1.8405  0.5220
  229MOL    H3541531   5.699   4.285   7.068 -1.0471 -0.3748  0.6528
  229MOL    H3641532   5.793   4.220   7.195 -1.5761 -0.8543  2.7691
  229MOL    H3741533   5.651   4.310   7.243 -0.0187 -0.8300  0.3999
  229MOL    C3841534   6.080   4.336   7.446 -0.6853 -0.0977  0.2286
  229MOL    C3941535   6.218   4.310   7.390 -0.5140 -0.8149 -0.0628
  229MOL    C4041536   6.031   4.222   7.541  1.0202 -0.1118  0.8010
  229MOL    O4141537   5.938   4.150   7.505  0.1898 -0.2764 -0.9095
  229MOL    O4241538   6.097   4.209   7.655 -1.2101 -0.0162  0.4163
  229MOL    H4341539   6.084   4.427   7.506  0.2573 -0.0228  0.0530
  229MOL    H4441540   6.285   4.282   7.472  0.0758  0.1458 -0.2040
  229MOL    H4541541   6.211   4.229   7.318 -1.9548 -0.7137 -0.0369
  229MOL    H4641542   6.258   4.396   7.337  1.0519 -1.6139 -0.2317
  229MOL    C4741543   6.085   4.080   7.730  0.0009 -0.2015  0.1512
  229MOL    C4841544   6.129   4.097   7.875 -0.0287 -0.6982  0.3029
  229MOL    C4941545   6.174   3.971   7.669  0.3225  0.4577  0.3925
  229MOL    O5041546   6.144   3.853   7.678  0.1957 -0.2945  0.2710
  229MOL    O5141547   6.292   4.014   7.622  0.2503 -0.0253  0.2619
  229MOL    H5241548   5.985   4.038   7.718 -0.6264  0.7750  1.8427
  229MOL    H5341549   6.083   4.026   7.945  0.7370  0.4255  1.9869
  229MOL    H5441550   6.236   4.109   7.888 -0.0324 -1.9067  1.5901
  229MOL    H5541551   6.079   4.185   7.915  1.8689  1.0137 -1.0357
  229MOL    C5641552   6.389   3.932   7.559  0.0050  0.5233  0.6272
  229MOL    C5741553   6.527   3.968   7.597 -0.0267  0.1027  0.0383
  229MOL    C5841554   6.361   3.933   7.407  0.4269 -0.1497  0.0237
  229MOL    O5941555   6.448   3.959   7.324  0.2360 -0.2434  0.0915
  229MOL    O6041556   6.243   3.889   7.384  0.0685 -0.1742  0.1600
  229MOL    H6141557   6.386   3.825   7.579  0.1051  0.4610  0.3157
  229MOL    H6241558   6.523   3.951   7.704  2.1773  1.4111  0.3535
  229MOL    H6341559   6.603   3.911   7.544 -1.3121 -1.0534 -0.5893
  229MOL    H6441560   6.545   4.075   7.595 -2.1493  0.5579  2.7013
  229MOL    C6541561   6.201   3.863   7.247 -0.4495 -0.6146 -0.0929
  229MOL    C6641562   6.054   3.819   7.240  0.0342 -0.0634  0.2560
  229MOL    C6741563   6.292   3.755   7.182 -0.3384  0.8951 -0.1290
  229MOL    O6841564   6.341   3.658   7.248 -0.8262 -0.0364 -0.0692
  229MOL    O6941565   6.316   3.778   7.056  0.6838 -0.0270 -0.4294
  229MOL    H7041566   6.217   3.958   7.196  0.7077 -1.9531 -2.3333
  229MOL    H7141567   5.991   3.898   7.281 -0.0084  0.7525 -1.3594
  229MOL    H7241568   6.019   3.800   7.139 -1.7639 -1.0969  1.0356
  229MOL    H7341569   6.044   3.729   7.301  0.1259 -0.9363 -1.0090
  229MOL    C7441570   6.386   3.692   6.972 -0.3038 -0.3483  0.2946
  229MOL    C7541571   6.306   3.560   6.940 -0.1295 -0.2500  0.1519
  229MOL    C7641572   6.537   3.667   7.012 -0.1242  0.0450  0.1669
  229MOL    O7741573   6.589   3.558   6.999  0.2072 -0.5551 -0.6443
  229MOL    O7841574   6.596   3.780   7.060  0.3001  0.1767 -0.0358
  229MOL    H7941575   6.400   3.745   6.878  0.3942  2.3989  1.8897
  229MOL    H8041576   6.206   3.557   6.984  0.3501  2.4087  1.5334
  229MOL    H8141577   6.282   3.524   6.841  1.0717  1.4328 -0.7850
  229MOL    H8241578   6.351   3.479   6.997 -0.4596  1.0533  2.3387
  229MOL    C8341579   6.736   3.789   7.104  0.0107 -0.3322 -0.2835
  229MOL    C8441580   6.836   3.798   6.993 -0.1360 -0.7670 -0.1125
  229MOL    C8541581   6.774   3.672   7.210 -0.3599  0.0912 -0.9676
  229MOL    O8641582   6.881   3.609   7.205  0.6732 -0.2218 -0.0470
  229MOL    O8741583   6.679   3.659   7.300  0.4058  0.0668 -0.4933
  229MOL    H8841584   6.728   3.883   7.159  1.5367 -0.1518 -0.3332
  229MOL    H8941585   6.814   3.881   6.925  1.0855 -1.5338 -1.4743
  229MOL    H9041586   6.938   3.821   7.023 -0.1170  0.2004 -0.8873
  229MOL    H9141587   6.823   3.706   6.937 -0.3566  0.7551 -2.6755
  229MOL    C9241588   6.699   3.576   7.422 -0.1927 -0.4887  0.6122
  229MOL    C9341589   6.551   3.553   7.483  0.1968  0.1514 -0.5987
  229MOL    C9441590   6.786   3.640   7.523 -0.3252  0.2870  0.0201
  229MOL    O9541591   6.821   3.756   7.516 -0.1671  0.5016 -0.2076
  229MOL    O9641592   6.792   3.572   7.636  0.2202  0.6095  0.6350
  229MOL    H9741593   6.733   3.479   7.387 -3.0618 -0.9185 -1.1572
  229MOL    H9841594   6.510   3.647   7.520  1.3207 -0.4635  2.3520
  229MOL    H9941595   6.484   3.521   7.404 -0.8064 -0.1252  0.3595
  229MOL   H10041596   6.539   3.488   7.569 -0.9085  2.2864  0.8997
  229MOL   C10141597   6.845   3.617   7.761 -0.1941  0.4842  0.0556
  229MOL   C10241598   6.810   3.502   7.864 -0.5013  0.5185  0.3945
  229MOL   C10341599   6.767   3.744   7.808  0.4161  0.5753  0.0433
  229MOL   O10441600   6.645   3.740   7.807  0.2606  0.1188 -0.7067
  229MOL   O10541601   6.841   3.849   7.861  0.1371  0.0215  0.5490
  229MOL   H10641602   6.953   3.623   7.755 -0.2457  0.5613 -0.9245
  229MOL   H10741603   6.715   3.493   7.916 -0.8648 -0.5880 -0.4364
  229MOL   H10841604   6.815   3.406   7.813  0.0518 -0.3163  1.9993
  229MOL   H10941605   6.887   3.492   7.940 -0.0082  2.8839  0.2438
  229MOL   C11041606   6.771   3.951   7.935 -0.0380  0.5897  0.3393
  229MOL   C11141607   6.877   4.058   7.964 -0.0585 -0.1191 -0.6958
  229MOL   C11241608   6.725   3.889   8.072 -0.3244  0.1209  0.0358
  229MOL   O11341609   6.629   3.944   8.119  0.3482  0.2974  0.3195
  229MOL   O11441610   6.803   3.779   8.122 -0.3230  0.0747 -0.0925
  229MOL   H11541611   6.691   4.001   7.881 -0.4770 -1.2633 -0.7235
  229MOL   H11641612   6.914   4.114   7.878 -0.5882  2.5191  0.7467
  229MOL   H11741613   6.843   4.137   8.030  0.0210  1.1056 -2.1039
  229MOL   H11841614   6.964   4.014   8.013  0.2054  2.0672  0.8826
  229MOL   C11941615   6.761   3.723   0.101  0.4595 -0.3519 -0.3449
  229MOL   C12041616   6.873   3.614   0.139 -0.3009  0.4626 -0.0928
  229MOL   C12141617   6.619   3.660   0.096  0.5156  0.4298 -0.4465
  229MOL   O12241618   6.528   3.723   0.152 -0.1777 -0.5023  1.2849
  229MOL   O12341619   6.610   3.537   0.032 -0.3086  0.0075 -0.1090
  229MOL   H12441620   6.758   3.801   0.177 -2.9010  0.7061 -1.4919
  229MOL   H12541621   6.968   3.660   0.167  0.3122 -0.0184 -1.3443
  229MOL   H12641622   6.855   3.549   0.225  0.2990  0.5657  0.1115
  229MOL   H12741623   6.895   3.544   0.059  0.2413 -0.9016  1.2299
  229MOL   C12841624   6.490   3.464   0.017  0.1280 -0.1592  0.1304
  229MOL   C12941625   6.518   3.340   8.083 -0.2417  0.0522 -0.0553
  229MOL   C13041626   6.372   3.554   8.102 -0.4374  0.5933 -0.5236
  229MOL   O13141627   6.286   3.603   0.026 -0.0057  0.1526  0.1214
  229MOL   O13241628   6.395   3.599   7.974 -0.0493 -0.5104  0.2410
  229MOL   H13341629   6.461   3.422   0.113  0.6806  0.0857  0.4106
  229MOL   H13441630   6.601   3.287   8.129  0.0845  0.5224 -0.1034
  229MOL   H13541631   6.429   3.277   8.078 -0.6632  0.7731 -2.0370
  229MOL   H13641632   6.550   3.364   7.982  1.3844 -0.9792  0.2025
  229MOL   C13741633   6.312   3.684   7.903 -0.3464 -0.0786 -0.2844
  229MOL   C13841634   6.350   3.822   7.945 -0.6502 -0.3652  0.6108
  229MOL   C13941635   6.164   3.652   7.915  0.1655 -0.0590 -0.4741
  229MOL   O14041636   6.092   3.728   7.976 -0.3310 -0.6673  0.1763
  229MOL   O14141637   6.129   3.530   7.858 -0.3830 -0.2143  0.3662
  229MOL   H14241638   6.348   3.683   7.800 -1.2743 -0.2497 -0.6170
  229MOL   H14341639   6.295   3.852   8.034 -0.0343 -1.5097  1.3854
  229MOL   H14441640   6.456   3.843   7.961 -0.3683  1.2759 -2.7710
  229MOL   H14541641   6.317   3.885   7.862 -0.1428 -0.2411  0.5052
  229MOL   C14641642   5.995   3.480   7.866 -0.0921  0.6033 -0.3106
  229MOL   C14741643   5.903   3.559   7.776  0.3127  0.4917  0.2144
  229MOL   C14841644   5.938   3.460   8.009  0.1685  0.0415  0.6410
  229MOL   O14941645   5.824   3.481   8.036  0.8156 -0.1652  0.2211
  229MOL   O15041646   6.027   3.430   8.107  0.3320 -0.0261 -0.8060
  229MOL   H15141647   6.016   3.382   7.821  1.7293  1.4720 -1.3998
  229MOL   H15241648   5.800   3.522   7.784 -0.0624  1.6561  0.9625
  229MOL   H15341649   5.913   3.667   7.788  0.9814  0.4851 -0.2745
  229MOL   H15441650   5.930   3.533   7.673 -1.4890 -0.2173 -0.1083
  229MOL   C15541651   5.984   3.412   0.094 -0.4999 -0.5774  0.0640
  229MOL   C15641652   5.966   3.557   0.154  0.2950 -0.4756  0.0879
  229MOL   C15741653   6.091   3.327   0.164  0.3172  0.5682  0.3742
  229MOL   O15841654   6.205   3.321   0.122  0.5290 -0.2944  0.0500
  229MOL   O15941655   6.046   3.271   0.276  0.1949  0.6392 -0.1093
  229MOL   H16041656   5.888   3.362   0.082 -1.0652  0.7970 -1.3503
  229MOL   H16141657   5.945   3.555   0.260 -0.9833  1.3320 -0.1184
  229MOL   H16241658   6.050   3.625   0.136 -0.1625  0.0464 -0.0953
  229MOL   H16341659   5.887   3.607   0.097  1.9720  1.6996 -0.4152
  229MOL   C16441660   6.129   3.193   0.369  0.6376 -0.1214  0.0629
  229MOL   C16541661   6.048   3.125   0.477  0.4377 -0.2099  0.6008
  229MOL   C16641662   6.248   3.271   0.429 -0.5980 -0.0207 -0.5308
  229MOL   O16741663   6.360   3.218   0.436 -0.3297 -0.0388 -0.1920
  229MOL   O16841664   6.217   3.393   0.467  0.1916  0.2359 -0.6234
  229MOL   H16941665   6.160   3.107   0.310 -0.3754 -0.8335  0.5510
  229MOL   H17041666   5.983   3.196   0.527 -2.0589 -1.1686 -1.1590
  229MOL   H17141667   5.995   3.038   0.437  0.9819 -0.5119  0.5224
  229MOL   H17241668   6.114   3.069   0.543  0.3694 -0.9346  0.0677
  229MOL   C17341669   6.316   3.484   0.521 -0.2537  0.2490 -0.1896
  229MOL   C17441670   6.243   3.582   0.617 -0.0125 -0.3778 -0.0599
  229MOL   C17541671   6.388   3.557   0.407  1.3266 -0.2731 -0.9171
  229MOL   O17641672   6.509   3.564   0.395  0.8035 -0.3952  0.0771
  229MOL   O17741673   6.294   3.603   0.323  0.0062 -0.3038  0.0383
  229MOL   H17841674   6.385   3.431   0.586 -0.5577 -1.8435 -1.5196
  229MOL   H17941675   6.194   3.530   0.700  0.6910 -0.9417  0.0033
  229MOL   H18041676   6.320   3.631   0.676  0.2216  0.2785 -0.9139
  229MOL   H18141677   6.170   3.650   0.573 -0.1716 -0.2638  0.3745
  229MOL   H18241678   6.328   3.637   0.242  0.4310 -1.6852 -0.3691
  230MOL     C141679   0.568   7.945   3.170  0.0238 -0.7347  0.0352
  230MOL     C241680   0.709   7.992   3.155  0.1543 -0.1438  0.5949
  230MOL     C341681   0.497   7.961   3.036 -0.5740 -0.7681 -0.0044
  230MOL     O441682   0.548   7.927   2.929  0.5776  0.0898 -0.1616
  230MOL     O541683   0.373   8.002   3.053 -0.1641 -0.0604  0.3376
  230MOL     H641684   0.566   7.841   3.204 -1.0848  0.0360  2.4670
  230MOL     H741685   0.779   7.958   3.231  0.7960 -1.1522 -0.4143
  230MOL     H841686   0.757   7.960   3.062  0.6535  2.0746  0.0619
  230MOL     H941687   0.720   8.100   3.163 -1.1370 -0.0107  0.5877
  230MOL    H1041688   0.517   7.998   3.251  1.9358 -0.9720  1.4289
  230MOL    C1141689   0.281   8.021   2.942  0.4036  0.4752 -0.2263
  230MOL    C1241690   0.317   0.015   2.873 -0.6853 -0.0684 -0.2196
  230MOL    C1341691   0.134   8.010   2.994 -0.6804  0.1879  0.6121
  230MOL    O1441692   0.041   8.011   2.916 -0.3940  0.1046 -0.3077
  230MOL    O1541693   0.123   7.993   3.129  0.8700 -0.6325  0.1289
  230MOL    H1641694   0.288   7.939   2.871  0.3217  0.0220  0.2939
  230MOL    H1741695   0.424   0.029   2.858 -0.3536 -1.7383  0.5278
  230MOL    H1841696   0.260   0.012   2.780 -0.0180 -1.7849 -0.5941
  230MOL    H1941697   0.272   0.085   2.943 -2.1851 -1.7149  0.4914
  230MOL    C2041698   8.138   7.977   3.186 -0.0055 -0.2042  0.9724
  230MOL    C2141699   0.011   8.016   3.327  1.0053  0.0029  0.3691
  230MOL    C2241700   8.088   7.836   3.170 -0.3854 -0.3950  0.3389
  230MOL    O2341701   0.007   7.739   3.143  0.4518 -0.2775 -0.4372
  230MOL    O2441702   7.954   7.831   3.194 -0.1734 -0.5383  0.2594
  230MOL    H2541703   8.070   8.040   3.129  0.9353 -0.5628 -0.5577
  230MOL    H2641704   0.025   8.123   3.345 -1.0319  0.7254 -1.9619
  230MOL    H2741705   8.075   7.974   3.383  2.0839 -1.6039  0.7902
  230MOL    H2841706   0.102   7.975   3.369  0.6832 -1.1115 -0.0092
  230MOL    C2941707   7.884   7.703   3.189  0.4280  0.9561  0.4902
  230MOL    C3041708   7.735   7.721   3.182 -0.3825  0.2272 -0.8823
  230MOL    C3141709   7.905   7.618   3.316  0.6277 -0.1824 -0.1340
  230MOL    O3241710   7.952   7.667   3.419  0.6746  0.4247  0.1714
  230MOL    O3341711   7.877   7.490   3.285  0.2527  0.3328 -0.5575
  230MOL    H3441712   7.917   7.638   3.108 -0.4437 -1.1980  1.8114
  230MOL    H3541713   7.685   7.745   3.276 -0.2514 -2.5017 -0.0581
  230MOL    H3641714   7.722   7.796   3.103 -0.6925  2.3477  1.1482
  230MOL    H3741715   7.696   7.624   3.151 -1.7855  0.0985  1.2229
  230MOL    C3841716   7.828   7.405   3.389  0.3138  0.2715 -0.6034
  230MOL    C3941717   7.842   7.259   3.371 -1.6399  0.1746  1.0824
  230MOL    C4041718   7.680   7.434   3.417  0.5094 -0.5907 -0.4164
  230MOL    O4141719   7.607   7.496   3.336 -0.0879  0.6084  0.3053
  230MOL    O4241720   7.639   7.383   3.532 -0.0141 -0.1247 -0.0726
  230MOL    H4341721   7.889   7.419   3.478  1.6343  1.2556 -1.6374
  230MOL    H4441722   7.896   7.207   3.450  0.7163  1.6091  0.4587
  230MOL    H4541723   7.750   7.201   3.361 -1.2609 -0.0687 -1.3665
  230MOL    H4641724   7.892   7.240   3.276 -4.6508 -2.5689 -0.0583
  230MOL    C4741725   7.499   7.351   3.545 -0.2491  0.6642  0.4913
  230MOL    C4841726   7.459   7.368   3.684 -0.4084  0.6915 -0.1401
  230MOL    C4941727   7.473   7.206   3.500  0.3716 -0.1971 -0.5236
  230MOL    O5041728   7.557   7.122   3.504 -0.2897 -0.0716 -0.1315
  230MOL    O5141729   7.356   7.193   3.448  0.0337  0.1201  0.2650
  230MOL    H5241730   7.436   7.411   3.479 -1.6069 -0.8624  0.3758
  230MOL    H5341731   7.363   7.330   3.720  2.1136 -4.0671  2.0685
  230MOL    H5441732   7.526   7.320   3.755  0.1254  0.9444 -0.4650
  230MOL    H5541733   7.470   7.470   3.719  0.3770  0.4737  0.2612
  230MOL    C5641734   7.295   7.069   3.428 -0.0880 -0.1644  0.7806
  230MOL    C5741735   7.153   7.099   3.378 -0.5005  0.5885 -0.0452
  230MOL    C5841736   7.282   6.980   3.555  0.2244 -0.2642 -0.6514
  230MOL    O5941737   7.319   6.862   3.551  0.5130 -0.3123 -0.3207
  230MOL    O6041738   7.217   7.041   3.661 -0.0422 -0.2594 -0.5030
  230MOL    H6141739   7.349   7.019   3.349 -0.8170 -0.0149  0.1845
  230MOL    H6241740   7.096   7.174   3.433  0.1739  0.3063  1.0733
  230MOL    H6341741   7.149   7.121   3.271  1.2692  0.3571 -0.1834
  230MOL    H6441742   7.094   7.008   3.381  1.9501 -1.1227 -1.5241
  230MOL    C6541743   7.251   7.003   3.798  0.3426 -0.3278 -0.0599
  230MOL    C6641744   7.175   7.092   3.898 -0.3078  0.4228 -0.8622
  230MOL    C6741745   7.396   7.019   3.828 -0.3797  0.0928  0.1546
  230MOL    O6841746   7.453   7.123   3.863  0.5492  0.2313  0.2033
  230MOL    O6941747   7.467   6.908   3.814  0.1814  0.1259  0.2071
  230MOL    H7041748   7.223   6.898   3.800 -1.4797  0.1279 -0.8234
  230MOL    H7141749   7.179   7.051   3.999  2.5086 -1.2502 -1.5880
  230MOL    H7241750   7.208   7.195   3.905 -1.0003  0.5258  1.0054
  230MOL    H7341751   7.072   7.095   3.860 -0.6339  3.0921  0.1822
  230MOL    C7441752   7.606   6.913   3.848  0.5917  0.5873 -0.3109
  230MOL    C7541753   7.678   6.783   3.795  0.2255 -0.6529  0.2864
  230MOL    C7641754   7.624   6.930   4.000  1.1569 -0.6756  0.2735
  230MOL    O7741755   7.692   7.013   4.061  0.4238 -0.1419  0.3885
  230MOL    O7841756   7.547   6.840   4.064  0.2231  0.1024  0.1441
  230MOL    H7941757   7.658   6.987   3.787 -1.1443  0.4188 -2.0592
  230MOL    H8041758   7.635   6.697   3.847 -1.5570 -0.8610 -1.4683
  230MOL    H8141759   7.669   6.768   3.688 -2.2712 -0.0661  0.3627
  230MOL    H8241760   7.786   6.779   3.806  0.3483 -1.2741 -1.1250
  230MOL    C8341761   7.525   6.844   4.204 -0.0939  0.0012  1.5212
  230MOL    C8441762   7.453   6.720   4.245 -0.0133  0.7437  0.1600
  230MOL    C8541763   7.449   6.965   4.245 -0.1880 -0.5639  0.0662
  230MOL    O8641764   7.406   7.044   4.161 -0.3201  0.0379 -0.3641
  230MOL    O8741765   7.441   6.981   4.378 -0.2257 -0.1855 -0.1015
  230MOL    H8841766   7.623   6.847   4.253  0.9325 -0.2892 -0.4460
  230MOL    H8941767   7.345   6.723   4.232 -0.4787 -1.4173  2.9832
  230MOL    H9041768   7.487   6.628   4.199 -0.4293  2.1052 -2.9913
  230MOL    H9141769   7.460   6.709   4.354 -1.0261 -2.1016 -0.0229
  230MOL    C9241770   7.343   7.079   4.430  0.4725 -0.4700 -0.5222
  230MOL    C9341771   7.357   7.093   4.581 -0.0969 -0.8226  0.3461
  230MOL    C9441772   7.204   7.030   4.398  0.3585 -0.3369 -0.0456
  230MOL    O9541773   7.176   6.917   4.350 -0.2959  0.2805  0.4909
  230MOL    O9641774   7.109   7.116   4.433 -0.1558 -0.3919  0.7125
  230MOL    H9741775   7.356   7.176   4.381 -1.9670  0.1272 -0.0866
  230MOL    H9841776   7.284   7.163   4.621  0.9310 -0.0832  0.9208
  230MOL    H9941777   7.322   6.997   4.621  0.1750 -0.0548  2.4664
  230MOL   H10041778   7.455   7.129   4.610 -0.2997 -0.1790  0.2279
  230MOL   C10141779   6.972   7.095   4.419 -0.0616 -0.0896  0.0400
  230MOL   C10241780   6.910   7.238   4.421  0.2863 -0.2020  0.2544
  230MOL   C10341781   6.910   7.014   4.527 -0.6798  0.6852 -0.4194
  230MOL   O10441782   6.795   6.967   4.511  0.3052  0.2819 -0.9050
  230MOL   O10541783   6.993   6.982   4.624 -0.6622  0.5965  0.2926
  230MOL   H10641784   6.955   7.053   4.320  1.2335  2.5022 -1.3151
  230MOL   H10741785   6.912   7.294   4.514  3.0329  2.1073 -1.1307
  230MOL   H10841786   6.969   7.289   4.345  3.1792 -1.5561  1.5069
  230MOL   H10941787   6.805   7.233   4.392  0.4602  4.1876 -1.5303
  230MOL   C11041788   6.967   6.887   4.728 -0.1965  0.7285 -0.7588
  230MOL   C11141789   7.093   6.882   4.823  0.8241 -0.3116 -0.0265
  230MOL   C11241790   6.940   6.748   4.668  0.3827 -0.6251 -0.7154
  230MOL   O11341791   6.843   6.683   4.704 -0.2598  0.3619  0.1017
  230MOL   O11441792   7.040   6.707   4.585 -0.6958 -0.6727 -0.7497
  230MOL   H11541793   6.874   6.919   4.777 -0.0349 -0.8817  0.6454
  230MOL   H11641794   7.152   6.972   4.804  1.5513 -1.0362 -1.1928
  230MOL   H11741795   7.051   6.873   4.923  0.1679 -1.5741 -0.4111
  230MOL   H11841796   7.144   6.789   4.802 -1.0299 -1.0103 -1.6090
  230MOL   C11941797   7.056   6.576   4.528 -0.7277 -0.7693  0.1188
  230MOL   C12041798   7.210   6.564   4.513  0.1784  0.8260  0.1033
  230MOL   C12141799   6.989   6.559   4.396  0.3055 -0.5631  0.4367
  230MOL   O12241800   6.906   6.467   4.372 -0.3216  0.1132  0.4117
  230MOL   O12341801   7.025   6.653   4.304  0.1814  0.0017 -0.7115
  230MOL   H12441802   7.041   6.492   4.596 -1.0546 -1.0129 -0.2580
  230MOL   H12541803   7.256   6.636   4.446  0.2912  1.0553  0.4262
  230MOL   H12641804   7.262   6.563   4.609  2.4349 -0.1631 -1.1063
  230MOL   H12741805   7.230   6.464   4.474 -0.5358  0.5941  0.3160
  230MOL   C12841806   6.969   6.660   4.170  0.7986 -0.4540 -0.1441
  230MOL   C12941807   7.080   6.724   4.082  1.2920  0.1350  0.3611
  230MOL   C13041808   6.837   6.741   4.171 -0.1350 -0.1799 -0.4743
  230MOL   O13141809   6.834   6.842   4.105  0.1048  0.2478 -0.1437
  230MOL   O13241810   6.740   6.695   4.259  0.1583 -0.7180 -0.4993
  230MOL   H13341811   6.948   6.557   4.140 -2.8128 -0.4159  1.9772
  230MOL   H13441812   7.110   6.826   4.109 -0.4093  0.7513 -0.0176
  230MOL   H13541813   7.172   6.667   4.079 -0.2107 -2.2830 -1.2558
  230MOL   H13641814   7.036   6.734   3.983 -2.1145 -0.4022  1.7555
  230MOL   C13741815   6.616   6.758   4.264  0.6878 -0.3752 -0.1240
  230MOL   C13841816   6.543   6.714   4.388 -0.1720 -0.4153 -0.3277
  230MOL   C13941817   6.533   6.725   4.143  0.6534 -0.4920 -0.6723
  230MOL   O14041818   6.495   6.811   4.060  0.3349 -0.2823  0.0552
  230MOL   O14141819   6.501   6.596   4.135  0.0237 -0.0271 -0.5729
  230MOL   H14241820   6.632   6.865   4.272 -0.9612 -0.1866  0.9500
  230MOL   H14341821   6.512   6.609   4.389 -3.4815  0.4475 -2.3827
  230MOL   H14441822   6.596   6.742   4.479  0.5512  2.1764 -1.5170
  230MOL   H14541823   6.456   6.776   4.411  0.2265  0.0647 -0.0989
  230MOL   C14641824   6.434   6.547   4.020 -0.5580  0.2209  0.5435
  230MOL   C14741825   6.342   6.430   4.074  0.3226 -0.5710  0.2876
  230MOL   C14841826   6.537   6.492   3.920 -0.3857  0.0277 -0.3302
  230MOL   O14941827   6.660   6.503   3.932  0.0989  0.1432 -0.2793
  230MOL   O15041828   6.482   6.421   3.822 -0.4688  0.2718  0.3768
  230MOL   H15141829   6.362   6.610   3.969  0.4894 -2.0439 -4.0367
  230MOL   H15241830   6.395   6.356   4.132 -1.0909 -2.9864 -1.3832
  230MOL   H15341831   6.267   6.465   4.145  1.6896 -1.3714  2.1272
  230MOL   H15441832   6.300   6.367   3.996  0.0252 -0.0616  0.0304
  230MOL   C15541833   6.552   6.339   3.722  0.3470  0.3420  0.0582
  230MOL   C15641834   6.485   6.355   3.586  0.6646  0.3603 -0.2356
  230MOL   C15741835   6.540   6.190   3.762  0.6745 -0.0607  0.2578
  230MOL   O15841836   6.486   6.153   3.865  0.6682  0.0074 -0.1902
  230MOL   O15941837   6.595   6.110   3.668 -0.1923 -0.6735 -0.3710
  230MOL   H16041838   6.654   6.374   3.702  0.8268 -0.5130  0.9624
  230MOL   H16141839   6.502   6.454   3.543  1.2664 -0.8478 -2.8921
  230MOL   H16241840   6.512   6.284   3.508 -0.0519 -1.6739  1.3414
  230MOL   H16341841   6.380   6.347   3.613  0.9653  1.3311  1.2854
  230MOL   C16441842   6.583   5.973   3.681  0.8412 -0.0572  0.2501
  230MOL   C16541843   6.684   5.911   3.588 -0.4972  0.1300 -0.8889
  230MOL   C16641844   6.438   5.924   3.642 -0.6347  0.2820  0.7950
  230MOL   O16741845   6.365   5.859   3.713  0.5174 -0.6114 -0.1329
  230MOL   O16841846   6.395   5.965   3.515 -0.4748 -0.6351  0.1048
  230MOL   H16941847   6.596   5.938   3.783 -0.4376 -0.2500  0.3544
  230MOL   H17041848   6.785   5.923   3.627 -0.7378 -1.1838  0.1371
  230MOL   H17141849   6.671   5.803   3.589  1.0982 -0.0873  2.4592
  230MOL   H17241850   6.693   5.947   3.485 -0.5738  0.7483 -0.6802
  230MOL   C17341851   6.263   5.939   3.462 -0.2904  0.1994 -0.1006
  230MOL   C17441852   6.285   5.932   3.307  0.3406 -0.4936 -0.0816
  230MOL   C17541853   6.151   6.026   3.525  0.1667  0.5037  0.5445
  230MOL   O17641854   6.057   5.983   3.581  0.3806  0.5810  0.0073
  230MOL   O17741855   6.176   6.156   3.509  0.8477  0.2020 -0.2206
  230MOL   H17841856   6.239   5.835   3.481  0.2429 -0.2703 -1.9650
  230MOL   H17941857   6.293   6.037   3.278  1.4456 -0.6012 -0.1695
  230MOL   H18041858   6.375   5.874   3.290 -0.5547 -1.3246 -2.2438
  230MOL   H18141859   6.210   5.884   3.244 -1.3749  1.1406  0.6428
  230MOL   H18241860   6.127   6.217   3.562  0.0168 -1.0833  0.5155
  231MOL     C141861   2.684   6.909   0.734 -0.1142 -0.3458 -0.2185
  231MOL     C241862   2.782   6.969   0.631  0.5309  0.5073 -0.6482
  231MOL     C341863   2.659   6.759   0.709 -0.3131 -0.2007  0.2747
  231MOL     O441864   2.743   6.690   0.651  0.4479  0.0535 -0.1338
  231MOL     O541865   2.526   6.725   0.733 -0.1171  0.4156 -0.2682
  231MOL     H641866   2.731   6.923   0.832 -1.7613 -2.3206  0.8905
  231MOL     H741867   2.756   7.074   0.625  0.7867  0.4918 -2.1371
  231MOL     H841868   2.886   6.955   0.660  0.7499  1.6842 -0.8497
  231MOL     H941869   2.763   6.920   0.535  0.0701 -0.8782  0.1258
  231MOL    H1041870   2.591   6.967   0.734 -0.3669 -0.7333 -1.6081
  231MOL    C1141871   2.464   6.602   0.694  0.1425 -0.0713 -0.1523
  231MOL    C1241872   2.312   6.627   0.681  0.2783  0.2838  0.5810
  231MOL    C1341873   2.506   6.491   0.796 -0.3798 -0.0675 -0.1647
  231MOL    O1441874   2.560   6.389   0.759 -0.1908  0.4432 -0.4962
  231MOL    O1541875   2.465   6.520   0.929  0.3887  0.1194  0.1310
  231MOL    H1641876   2.495   6.572   0.594 -2.3517  0.9283 -1.2557
  231MOL    H1741877   2.289   6.684   0.592  0.0185  1.9435  1.6909
  231MOL    H1841878   2.257   6.533   0.677  1.1313 -0.1704 -0.5767
  231MOL    H1941879   2.282   6.682   0.771 -1.5514  2.4925 -1.3205
  231MOL    C2041880   2.491   6.430   1.035 -0.1544 -0.2122  0.3391
  231MOL    C2141881   2.354   6.392   1.086 -0.4715 -0.5506 -0.0423
  231MOL    C2241882   2.591   6.503   1.128  0.3421 -0.6830  0.1195
  231MOL    O2341883   2.548   6.555   1.237 -0.6387  0.5607  0.3032
  231MOL    O2441884   2.715   6.496   1.071  0.3872 -0.6050  0.0402
  231MOL    H2541885   2.534   6.335   1.002  0.5786 -0.0869  0.9210
  231MOL    H2641886   2.290   6.341   1.014 -0.4010  0.3770 -0.7734
  231MOL    H2741887   2.361   6.321   1.169 -0.1741  0.2626  0.6368
  231MOL    H2841888   2.292   6.473   1.124 -2.1458 -1.4064 -0.8800
  231MOL    C2941889   2.827   6.568   1.131  0.5254  0.5753  0.4406
  231MOL    C3041890   2.817   6.724   1.106  0.1789  0.0420 -0.4716
  231MOL    C3141891   2.953   6.510   1.071  0.0242 -0.8909 -0.0439
  231MOL    O3241892   2.958   6.411   0.993 -0.2110 -0.1762 -0.1340
  231MOL    O3341893   3.063   6.584   1.104 -0.4951  0.1001 -0.1840
  231MOL    H3441894   2.826   6.546   1.237 -3.8147  1.6661  0.7544
  231MOL    H3541895   2.883   6.783   1.169 -1.5907  0.3639  1.1137
  231MOL    H3641896   2.845   6.748   1.004  0.5716  0.3051 -0.3013
  231MOL    H3741897   2.719   6.770   1.121  0.8700  2.1006 -2.0633
  231MOL    C3841898   3.193   6.551   1.050  0.0136  0.3214  1.2127
  231MOL    C3941899   3.301   6.613   1.136  0.2408 -0.2038  0.5896
  231MOL    C4041900   3.208   6.606   0.906  0.0653  0.6112 -0.2321
  231MOL    O4141901   3.160   6.717   0.879 -0.3280  0.2961  0.4339
  231MOL    O4241902   3.290   6.535   0.831 -0.3302 -0.0776  0.2814
  231MOL    H4341903   3.203   6.443   1.037 -0.0723  0.2921  1.3788
  231MOL    H4441904   3.397   6.580   1.098 -0.9289 -1.2839 -1.5645
  231MOL    H4541905   3.302   6.722   1.130  2.5107 -0.1504  1.5380
  231MOL    H4641906   3.287   6.586   1.240  0.4048 -1.6351  0.2500
  231MOL    C4741907   3.328   6.584   0.700 -0.2866 -0.0044 -0.5276
  231MOL    C4841908   3.400   6.470   0.624  0.4864  0.3567  0.2390
  231MOL    C4941909   3.429   6.699   0.700  0.0821 -0.6229 -0.5532
  231MOL    O5041910   3.497   6.724   0.796 -0.1792  0.1089 -0.3349
  231MOL    O5141911   3.422   6.776   0.587  0.0637 -0.2276 -0.2441
  231MOL    H5241912   3.239   6.622   0.649 -1.2712  0.2822  1.3604
  231MOL    H5341913   3.332   6.384   0.620  0.3010  0.4612  1.0934
  231MOL    H5441914   3.413   6.500   0.520 -1.0061  0.5288  0.0937
  231MOL    H5541915   3.493   6.453   0.678 -0.4487 -0.1070  1.7572
  231MOL    C5641916   3.495   6.895   0.565  1.1014  0.4156  0.5463
  231MOL    C5741917   3.435   6.956   0.428  0.2615 -0.7197  0.0826
  231MOL    C5841918   3.644   6.862   0.554 -0.3826 -0.0857 -0.7348
  231MOL    O5941919   3.688   6.748   0.574 -0.1152  0.2509 -0.0382
  231MOL    O6041920   3.712   6.964   0.510 -0.0481  0.2939 -0.3924
  231MOL    H6141921   3.462   6.961   0.645 -2.0445 -1.6264  1.0139
  231MOL    H6241922   3.339   6.921   0.390 -0.5503  0.2415  1.1936
  231MOL    H6341923   3.440   7.064   0.433  1.8737 -0.8263  1.2457
  231MOL    H6441924   3.508   6.923   0.354  1.3989  0.2195  0.7776
  231MOL    C6541925   3.857   6.950   0.482  0.1022  0.4140 -0.6671
  231MOL    C6641926   3.922   7.087   0.499 -0.2053 -0.1948 -0.2673
  231MOL    C6741927   3.885   6.882   0.353 -0.7931 -0.5219 -0.4149
  231MOL    O6841928   3.800   6.833   0.283  0.0611  0.0552  0.1487
  231MOL    O6941929   4.020   6.867   0.339  0.1655  0.0967 -1.0360
  231MOL    H7041930   3.909   6.887   0.554 -1.0557 -0.6222 -0.7261
  231MOL    H7141931   3.875   7.167   0.441  0.9373 -0.7297 -1.9719
  231MOL    H7241932   3.917   7.122   0.602 -2.2931  2.8075 -1.3334
  231MOL    H7341933   4.029   7.089   0.477 -0.3505  1.9571 -0.8932
  231MOL    C7441934   4.079   6.748   0.284 -0.1664  0.3635 -0.0056
  231MOL    C7541935   4.072   6.745   0.129 -1.2189 -0.2792 -0.5966
  231MOL    C7641936   4.033   6.619   0.357  0.1836  0.1275 -0.6756
  231MOL    O7741937   4.010   6.521   0.288  0.7103  0.1935  0.3338
  231MOL    O7841938   4.023   6.633   0.492 -0.2672  0.1746 -0.0593
  231MOL    H7941939   4.183   6.758   0.316 -0.7321  2.4025  1.3265
  231MOL    H8041940   4.141   6.817   0.085 -2.4482  2.1381  1.3656
  231MOL    H8141941   4.108   6.647   0.098 -0.1949 -0.8060  2.1681
  231MOL    H8241942   3.972   6.763   0.091 -0.6743 -0.4920 -2.1927
  231MOL    C8341943   3.997   6.526   0.581  0.2386 -0.0228  0.4271
  231MOL    C8441944   3.967   6.588   0.718  0.6087 -0.4365  0.0871
  231MOL    C8541945   4.115   6.432   0.587 -1.1212  0.1939 -0.2212
  231MOL    O8641946   4.230   6.473   0.588 -0.1884 -0.1079 -0.3487
  231MOL    O8741947   4.068   6.307   0.560  0.4519 -0.0775 -0.5266
  231MOL    H8841948   3.900   6.486   0.549 -0.6820  1.9623  0.6673
  231MOL    H8941949   4.052   6.637   0.765  0.5431 -0.4334  0.2024
  231MOL    H9041950   3.893   6.666   0.698 -0.9686 -1.5759  1.4081
  231MOL    H9141951   3.931   6.505   0.778  2.9947 -2.2931 -0.9829
  231MOL    C9241952   4.151   6.200   0.532 -0.0284  0.4244 -0.0460
  231MOL    C9341953   4.084   6.111   0.431 -0.0031 -0.1502  0.2384
  231MOL    C9441954   4.181   6.119   0.656  0.2679 -0.5062 -0.2422
  231MOL    O9541955   4.291   6.062   0.658 -0.4997 -0.3751 -0.1970
  231MOL    O9641956   4.088   6.118   0.750 -0.1895  0.1018 -0.1353
  231MOL    H9741957   4.244   6.233   0.487 -0.4795 -0.2794 -1.5515
  231MOL    H9841958   4.148   6.024   0.417 -0.0919 -0.0769 -0.6228
  231MOL    H9941959   3.983   6.083   0.463 -0.6619  0.9570 -0.8589
  231MOL   H10041960   4.077   6.158   0.333 -0.5068 -1.7584 -0.5128
  231MOL   C10141961   4.119   6.091   0.884 -0.3921  0.8650  0.6153
  231MOL   C10241962   3.986   6.105   0.954  0.1623  0.0943 -0.4103
  231MOL   C10341963   4.219   6.192   0.943  0.2189 -0.4697  0.3262
  231MOL   O10441964   4.324   6.151   0.995  0.1296 -0.8398  0.4498
  231MOL   O10541965   4.172   6.325   0.937  0.0970  0.0530  0.2675
  231MOL   H10641966   4.155   5.988   0.885 -2.7032 -0.0470 -1.6503
  231MOL   H10741967   3.917   6.022   0.938  1.9421 -1.5887  0.3925
  231MOL   H10841968   4.004   6.110   1.062 -0.1137  0.8841 -0.3953
  231MOL   H10941969   3.938   6.202   0.940 -1.7798 -0.7325  0.3342
  231MOL   C11041970   4.243   6.429   1.003  0.4382 -0.1721  0.0805
  231MOL   C11141971   4.140   6.533   1.044  0.3902  0.3834 -0.4952
  231MOL   C11241972   4.345   6.487   0.903  0.2635  1.0450  0.2616
  231MOL   O11341973   4.340   6.606   0.870 -0.3594  0.3620 -0.0758
  231MOL   O11441974   4.432   6.391   0.854  0.3165 -0.4776 -0.8695
  231MOL   H11541975   4.293   6.383   1.087  0.6269 -0.5777 -0.2515
  231MOL   H11641976   4.192   6.627   1.065 -1.7307  1.0921  1.9273
  231MOL   H11741977   4.048   6.550   0.987  1.3330  1.4052 -1.7208
  231MOL   H11841978   4.096   6.498   1.138  0.3979 -1.1573 -1.0524
  231MOL   C11941979   4.538   6.426   0.771 -0.5183  0.3333 -0.0594
  231MOL   C12041980   4.609   6.302   0.724 -0.0765 -0.2825  0.2925
  231MOL   C12141981   4.641   6.527   0.850  0.4913  0.1116  0.5426
  231MOL   O12241982   4.688   6.496   0.961  0.6011  0.0457 -0.1621
  231MOL   O12341983   4.649   6.648   0.791 -1.0359 -0.2623  0.0150
  231MOL   H12441984   4.499   6.476   0.683 -0.1791 -0.5681 -0.7329
  231MOL   H12541985   4.693   6.328   0.660  0.3084 -2.1124  0.0088
  231MOL   H12641986   4.637   6.247   0.814  0.1757  0.3058  0.5748
  231MOL   H12741987   4.554   6.239   0.654 -0.6761 -1.5443  1.8548
  231MOL   C12841988   4.719   6.753   0.861  0.4386  0.2819 -0.5473
  231MOL   C12941989   4.640   6.879   0.839  0.3214 -0.0467  0.0920
  231MOL   C13041990   4.869   6.762   0.812 -0.2581  0.0823 -0.8123
  231MOL   O13141991   4.905   6.835   0.724  0.4848 -0.5334 -0.3970
  231MOL   O13241992   4.958   6.689   0.887  0.2445  0.7551 -0.0404
  231MOL   H13341993   4.732   6.738   0.968  1.4662 -0.0148 -0.7095
  231MOL   H13441994   4.671   6.967   0.894 -0.4351  0.6957 -0.6582
  231MOL   H13541995   4.643   6.908   0.734  1.0815 -0.9461 -0.1435
  231MOL   H13641996   4.538   6.849   0.863  0.7771 -1.2739  0.5596
  231MOL   C13741997   5.092   6.658   0.836  0.0666  0.1437  0.3512
  231MOL   C13841998   5.103   6.506   0.856  0.6023  0.5122 -0.2918
  231MOL   C13941999   5.205   6.738   0.906 -0.0965 -0.9312 -0.6444
  231MOL   O14042000   5.180   6.830   0.988  0.0968  0.1316 -0.4320
  231MOL   O14142001   5.325   6.697   0.874  0.3798 -0.2806  0.4816
  231MOL   H14242002   5.101   6.669   0.728  0.4695  0.0350  0.3730
  231MOL   H14342003   5.069   6.480   0.957 -1.6190 -2.0547 -1.6351
  231MOL   H14442004   5.039   6.451   0.788  2.9133 -0.3636 -1.8190
  231MOL   H14542005   5.207   6.478   0.835  1.0041  0.1308  1.9967
  231MOL   C14642006   5.450   6.735   0.933  0.1435  0.2494 -0.2777
  231MOL   C14742007   5.555   6.704   0.840  0.1460 -0.4720  0.5537
  231MOL   C14842008   5.464   6.652   1.063 -0.0039  0.2902  0.4359
  231MOL   O14942009   5.505   6.700   1.167 -0.2667  0.5353  0.1854
  231MOL   O15042010   5.426   6.523   1.053 -0.9943 -0.3628 -0.3699
  231MOL   H15142011   5.456   6.837   0.971  0.6386  0.2755 -0.4207
  231MOL   H15242012   5.531   6.742   0.741 -0.8702 -0.3563  0.8318
  231MOL   H15342013   5.657   6.733   0.864  0.6127 -1.3355 -0.3956
  231MOL   H15442014   5.565   6.596   0.838  4.7397 -0.1191 -1.4720
  231MOL   C15542015   5.422   6.431   1.170 -0.4073 -0.4921  0.3986
  231MOL   C15642016   5.359   6.297   1.117  0.0452  0.1216 -0.0318
  231MOL   C15742017   5.329   6.484   1.277  1.2593 -0.2734 -0.5757
  231MOL   O15842018   5.360   6.467   1.394  0.1925 -0.8231  0.2622
  231MOL   O15942019   5.209   6.523   1.236  0.2451 -0.1923  0.0236
  231MOL   H16042020   5.520   6.416   1.214 -0.0089  2.1590  0.5412
  231MOL   H16142021   5.259   6.307   1.076 -0.1683  0.4102  0.5560
  231MOL   H16242022   5.420   6.254   1.038  1.6314  1.0129  0.6789
  231MOL   H16342023   5.354   6.224   1.198  2.8607 -0.0595  0.0410
  231MOL   C16442024   5.114   6.578   1.318 -0.0534  0.5535  0.5930
  231MOL   C16542025   4.991   6.589   1.224  0.3816  0.5892 -0.5277
  231MOL   C16642026   5.144   6.724   1.358 -0.0200  1.5253 -0.4739
  231MOL   O16742027   5.079   6.783   1.447  0.0444 -0.6048 -0.1996
  231MOL   O16842028   5.244   6.784   1.289  0.6356 -0.6097  0.1807
  231MOL   H16942029   5.087   6.515   1.403 -2.3295 -1.1763 -1.3414
  231MOL   H17042030   4.898   6.610   1.277 -1.6090 -0.3366 -3.5312
  231MOL   H17142031   5.003   6.673   1.156 -0.3541 -1.0570 -2.7248
  231MOL   H17242032   4.987   6.498   1.165  2.6771  1.1691 -1.6366
  231MOL   C17342033   5.274   6.919   1.296 -0.9378  0.4632 -0.0016
  231MOL   C17442034   5.371   6.943   1.414 -0.5026  0.4511 -0.5803
  231MOL   C17542035   5.158   7.014   1.283 -0.7054  0.6742  0.1898
  231MOL   O17642036   5.145   7.109   1.356 -0.1360 -0.5697 -0.2538
  231MOL   O17742037   5.092   6.998   1.169  0.2755 -0.4410 -0.6097
  231MOL   H17842038   5.324   6.934   1.200  1.0999 -1.2304  0.7641
  231MOL   H17942039   5.322   6.994   1.497  0.9006 -0.0322  0.5678
  231MOL   H18042040   5.404   6.844   1.445  2.6313  1.1834 -1.3332
  231MOL   H18142041   5.463   6.997   1.391 -0.1427 -0.6328 -1.7265
  231MOL   H18242042   5.124   6.918   1.131 -1.2137 -0.8833 -0.9742
  232MOL     C142043   1.251   2.753   5.915 -0.3277 -0.3417  0.1484
  232MOL     C242044   1.378   2.707   5.844  0.1327 -0.0821  0.2251
  232MOL     C342045   1.256   2.887   5.975  0.9582  0.3385  0.4097
  232MOL     O442046   1.362   2.938   5.996  0.6499  0.2288  0.2378
  232MOL     O542047   1.133   2.943   6.001 -0.7897 -1.0237  0.8276
  232MOL     H642048   1.162   2.767   5.855 -1.0501  0.3270  1.3578
  232MOL     H742049   1.414   2.773   5.766  1.7494 -2.1034 -0.7849
  232MOL     H842050   1.469   2.713   5.903  2.3237 -0.1383 -3.0570
  232MOL     H942051   1.374   2.605   5.804 -0.4846 -0.0509  0.2025
  232MOL    H1042052   1.224   2.694   6.002  0.5740 -1.5325 -0.3603
  232MOL    C1142053   1.130   3.080   6.035  0.3823 -0.2411 -0.8539
  232MOL    C1242054   0.987   3.114   6.096 -0.9502 -0.5645  0.2362
  232MOL    C1342055   1.154   3.159   5.907 -0.2686  0.5245  0.2134
  232MOL    O1442056   1.247   3.243   5.898  0.2599 -0.3596 -0.0117
  232MOL    O1542057   1.074   3.123   5.799 -0.6102  0.4802  0.2578
  232MOL    H1642058   1.197   3.118   6.112 -0.9684 -0.1642  0.3001
  232MOL    H1742059   0.970   3.221   6.109  0.5990 -0.1231 -1.1485
  232MOL    H1842060   0.916   3.086   6.018 -1.5083 -1.9639  1.2418
  232MOL    H1942061   0.961   3.058   6.186 -1.9270 -2.0009 -0.9198
  232MOL    C2042062   1.078   3.186   5.669  0.1878 -0.3693  0.2385
  232MOL    C2142063   1.221   3.153   5.614 -0.0480 -0.1621 -0.1908
  232MOL    C2242064   1.034   3.332   5.685  0.2050 -0.0073  0.0065
  232MOL    O2342065   0.978   3.381   5.784  0.0180 -0.5849  0.0655
  232MOL    O2442066   1.055   3.406   5.575  0.1544 -0.4963 -0.0018
  232MOL    H2542067   1.014   3.132   5.599  1.5656 -1.1118 -0.4634
  232MOL    H2642068   1.233   3.048   5.585 -1.1218 -0.1699 -0.6329
  232MOL    H2742069   1.234   3.206   5.520  0.8304 -2.9561 -1.7214
  232MOL    H2842070   1.300   3.184   5.682 -1.1438  1.3131  0.4143
  232MOL    C2942071   0.995   3.534   5.568  0.3584  0.7710 -0.6122
  232MOL    C3042072   0.844   3.540   5.528  0.1607 -0.1440 -0.2108
  232MOL    C3142073   1.087   3.615   5.478 -0.8046 -0.9163  0.8987
  232MOL    O3242074   1.204   3.576   5.453  0.2023 -0.5417  0.6991
  232MOL    O3342075   1.024   3.736   5.446 -0.1418  0.3841  0.1809
  232MOL    H3442076   1.015   3.579   5.665  1.6775 -0.7075 -0.1590
  232MOL    H3542077   0.808   3.638   5.560 -0.1443 -1.1399  2.6270
  232MOL    H3642078   0.837   3.534   5.419  1.1348 -0.3487 -0.2719
  232MOL    H3742079   0.786   3.466   5.584  1.0084 -0.4612  0.2586
  232MOL    C3842080   1.087   3.813   5.346  0.3188 -0.3755 -0.3136
  232MOL    C3942081   1.048   3.961   5.353  0.2139  0.0749 -0.9740
  232MOL    C4042082   1.042   3.742   5.217  0.0755  0.1457 -0.0851
  232MOL    O4142083   1.124   3.698   5.139  0.1228 -0.5799  0.3484
  232MOL    O4242084   0.907   3.742   5.203  0.3299 -0.4541 -0.3216
  232MOL    H4342085   1.195   3.803   5.342  0.4728 -1.5410  4.2305
  232MOL    H4442086   1.124   4.019   5.406 -0.9243  1.0743 -0.4250
  232MOL    H4542087   1.053   4.008   5.255 -0.3530  3.3409  0.4998
  232MOL    H4642088   0.945   3.974   5.385  0.6978  1.2997  0.1318
  232MOL    C4742089   0.844   3.690   5.091 -0.2884 -0.2723 -0.4770
  232MOL    C4842090   0.700   3.720   5.102 -0.5605  0.3908  0.0010
  232MOL    C4942091   0.868   3.534   5.076  0.5983 -0.7834 -0.0582
  232MOL    O5042092   0.933   3.487   4.981 -0.2083  0.0057  0.1593
  232MOL    O5142093   0.813   3.455   5.175  0.2773 -0.4077 -0.5645
  232MOL    H5242094   0.867   3.739   4.997  0.4717 -0.7476 -0.5426
  232MOL    H5342095   0.634   3.680   5.025 -0.8440  1.1278 -0.1384
  232MOL    H5442096   0.667   3.684   5.199  0.1854 -3.2327 -0.9904
  232MOL    H5542097   0.677   3.826   5.108 -1.1328  0.3560 -1.3000
  232MOL    C5642098   0.834   3.319   5.172  0.7596  0.3001 -0.2149
  232MOL    C5742099   0.771   3.270   5.300 -0.1116  0.7246 -0.0936
  232MOL    C5842100   0.980   3.276   5.177  0.5387 -0.8054  0.7922
  232MOL    O5942101   1.070   3.344   5.226 -0.3127 -1.0033 -1.1294
  232MOL    O6042102   0.993   3.157   5.120  0.1777  0.0290 -0.1636
  232MOL    H6142103   0.786   3.278   5.083  3.0186 -0.0936 -1.2994
  232MOL    H6242104   0.663   3.288   5.308 -0.8276 -3.5383  0.7167
  232MOL    H6342105   0.770   3.162   5.303  0.4492  0.7505  1.4816
  232MOL    H6442106   0.822   3.303   5.391  0.9942  3.9019 -1.7921
  232MOL    C6542107   1.115   3.095   5.096 -0.7509 -0.2389  0.6841
  232MOL    C6642108   1.100   3.000   4.979 -1.0552  0.4960 -0.6458
  232MOL    C6742109   1.180   3.033   5.219  0.1534 -0.5132  0.0016
  232MOL    O6842110   1.128   3.056   5.327  0.4923  0.5465  0.3780
  232MOL    O6942111   1.289   2.961   5.193  0.3853 -0.2299  0.4263
  232MOL    H7042112   1.191   3.166   5.063  0.9233 -2.2214  0.1079
  232MOL    H7142113   1.044   2.912   5.011 -0.2687  0.6166  1.1244
  232MOL    H7242114   1.047   3.044   4.894 -0.9249 -0.2855 -1.1356
  232MOL    H7342115   1.195   2.964   4.939 -1.9231 -0.1045 -2.2119
  232MOL    C7442116   1.363   2.890   5.287  0.5411 -0.3466 -0.6059
  232MOL    C7542117   1.489   2.964   5.336  0.1521 -0.0714 -0.5764
  232MOL    C7642118   1.396   2.762   5.211 -0.7624  0.5885  0.5744
  232MOL    O7742119   1.344   2.655   5.231  0.8685 -0.0746  0.1043
  232MOL    O7842120   1.494   2.780   5.118  0.2844 -0.4237 -0.3320
  232MOL    H7942121   1.304   2.872   5.378  0.4618  0.6070 -0.4581
  232MOL    H8042122   1.472   3.043   5.409  0.6142  1.7716 -2.4254
  232MOL    H8142123   1.575   2.901   5.359 -0.7564 -1.2615 -0.3551
  232MOL    H8242124   1.528   3.022   5.253 -1.4417  0.2909 -1.0866
  232MOL    C8342125   1.562   2.668   5.058  0.0162  0.3956  0.3319
  232MOL    C8442126   1.702   2.711   5.005 -0.2118  0.0795 -0.4022
  232MOL    C8542127   1.476   2.606   4.944 -0.8941  0.2441 -0.5552
  232MOL    O8642128   1.495   2.487   4.922  0.9046 -0.4892  0.6814
  232MOL    O8742129   1.390   2.692   4.885 -0.0788 -0.4633  0.3505
  232MOL    H8842130   1.577   2.594   5.137  2.0005 -0.9641 -1.2743
  232MOL    H8942131   1.770   2.627   4.997 -1.2137 -0.8655  0.7610
  232MOL    H9042132   1.695   2.761   4.908 -0.9698 -1.3070 -1.0637
  232MOL    H9142133   1.734   2.789   5.075  0.3857  2.8303 -3.5784
  232MOL    C9242134   1.337   2.653   4.759  0.6467 -0.1057  0.5738
  232MOL    C9342135   1.437   2.693   4.649  0.6928  0.5111  0.5921
  232MOL    C9442136   1.190   2.698   4.743 -0.0754 -0.0360 -0.4181
  232MOL    O9542137   1.132   2.735   4.845 -0.2399 -0.1732 -0.0230
  232MOL    O9642138   1.133   2.688   4.622  0.3252  0.0362 -0.3233
  232MOL    H9742139   1.318   2.546   4.745  2.4385 -0.1638 -1.7549
  232MOL    H9842140   1.473   2.796   4.647  1.3661  0.2553 -1.7238
  232MOL    H9942141   1.516   2.622   4.621  0.5747  0.2836  0.8329
  232MOL   H10042142   1.390   2.697   4.550 -0.7996  2.1369  1.3561
  232MOL   C10142143   0.999   2.741   4.588 -0.3519  0.2072  0.4891
  232MOL   C10242144   0.957   2.679   4.449  0.7206  0.0154  0.0290
  232MOL   C10342145   0.997   2.896   4.583 -0.4137 -0.4086  0.7903
  232MOL   O10442146   0.933   2.966   4.668 -0.0322  0.4131  0.0827
  232MOL   O10542147   1.080   2.946   4.487 -0.2841 -0.0992  0.2135
  232MOL   H10642148   0.939   2.703   4.671 -0.7630 -1.8830 -0.7295
  232MOL   H10742149   1.027   2.706   4.370 -1.2404  0.3307 -1.6576
  232MOL   H10842150   0.949   2.570   4.459  0.3442  0.1752  1.6002
  232MOL   H10942151   0.859   2.719   4.425  0.5520 -0.9683 -0.9950
  232MOL   C11042152   1.113   3.085   4.483 -0.2996  0.2617 -0.4874
  232MOL   C11142153   1.179   3.115   4.346  0.7967 -0.0206 -0.2676
  232MOL   C11242154   1.199   3.131   4.596 -0.1990 -0.2256 -0.6877
  232MOL   O11342155   1.259   3.051   4.673  0.7488 -0.3971 -0.2378
  232MOL   O11442156   1.206   3.261   4.597  0.1945 -0.0890  0.4455
  232MOL   H11542157   1.017   3.137   4.491 -0.9905 -1.1345  0.5650
  232MOL   H11642158   1.287   3.110   4.342  0.7615 -0.2611 -0.8692
  232MOL   H11742159   1.131   3.073   4.258  1.8799 -2.7167  0.3890
  232MOL   H11842160   1.160   3.220   4.324 -0.1104 -0.2156 -0.4272
  232MOL   C11942161   1.299   3.339   4.673 -0.2656 -0.7746 -0.0622
  232MOL   C12042162   1.210   3.428   4.751 -0.0604 -0.4951  0.1914
  232MOL   C12142163   1.401   3.408   4.583  0.4693 -0.2669 -0.0446
  232MOL   O12242164   1.379   3.429   4.462 -0.5029 -0.1888  0.0881
  232MOL   O12342165   1.519   3.443   4.641  0.2628  0.1855  0.6664
  232MOL   H12442166   1.368   3.280   4.734  1.7861 -0.1525 -1.7059
  232MOL   H12542167   1.104   3.415   4.730 -0.1638  0.1523  0.3181
  232MOL   H12642168   1.223   3.404   4.857 -0.9766 -0.6155  0.2810
  232MOL   H12742169   1.222   3.535   4.739  0.6253 -0.4243  1.3414
  232MOL   C12842170   1.612   3.513   4.563 -0.0092  0.5938  0.1103
  232MOL   C12942171   1.752   3.459   4.604  0.2571  0.1757  0.3623
  232MOL   C13042172   1.589   3.658   4.595 -0.2196  0.1881  0.0036
  232MOL   O13142173   1.677   3.730   4.645 -0.2860 -0.5186  0.0978
  232MOL   O13242174   1.469   3.705   4.551  0.6070 -0.0955  0.4021
  232MOL   H13342175   1.611   3.495   4.455 -3.0572 -1.4157  0.3913
  232MOL   H13442176   1.770   3.368   4.546 -1.3354  1.3435 -2.0389
  232MOL   H13542177   1.830   3.530   4.574 -1.0133  1.3237 -0.2592
  232MOL   H13642178   1.759   3.444   4.712 -0.3436  1.1237  0.5416
  232MOL   C13742179   1.429   3.837   4.573  1.1079 -0.4437  0.0767
  232MOL   C13842180   1.303   3.871   4.501 -0.4579  0.3979  0.3707
  232MOL   C13942181   1.535   3.938   4.536  0.9576 -0.0998  0.2342
  232MOL   O14042182   1.571   4.029   4.608 -0.1766  0.1510 -0.2984
  232MOL   O14142183   1.579   3.917   4.413  0.2554  0.6509 -0.6821
  232MOL   H14242184   1.411   3.842   4.680  0.5884  0.6902 -0.0564
  232MOL   H14342185   1.269   3.969   4.536 -3.3515  0.5089 -2.4790
  232MOL   H14442186   1.304   3.855   4.393  0.9953  0.8955  0.3046
  232MOL   H14542187   1.221   3.812   4.543 -1.6350  0.8147 -1.2799
  232MOL   C14642188   1.690   3.996   4.377 -0.4924 -0.1534  0.2036
  232MOL   C14742189   1.695   4.004   4.217  0.0802 -0.2017 -0.0395
  232MOL   C14842190   1.819   3.930   4.432  0.2729 -0.1053  0.3607
  232MOL   O14942191   1.877   3.975   4.526 -0.6527 -0.3125  0.6074
  232MOL   O15042192   1.854   3.824   4.362 -0.3774 -0.1504 -0.0813
  232MOL   H15142193   1.678   4.100   4.406  0.2507  0.0995 -0.3669
  232MOL   H15242194   1.729   3.910   4.174 -0.7756 -0.6747  0.2892
  232MOL   H15342195   1.601   4.028   4.168 -0.2177  1.4599  1.2863
  232MOL   H15442196   1.770   4.077   4.188  0.3815 -0.4465  0.1264
  232MOL   C15542197   1.990   3.774   4.384  0.4760 -0.5372  0.4031
  232MOL   C15642198   2.078   3.846   4.279 -0.4129 -0.2184  0.4674
  232MOL   C15742199   2.002   3.624   4.354  1.0880 -0.2232  0.1348
  232MOL   O15842200   2.067   3.553   4.430 -0.7376 -0.3324 -0.0031
  232MOL   O15942201   1.958   3.582   4.227 -0.4756  0.4091 -0.2934
  232MOL   H16042202   2.019   3.794   4.487  0.1850 -0.1714  0.4139
  232MOL   H16142203   2.182   3.813   4.290 -0.2663 -0.3530 -1.1280
  232MOL   H16242204   2.044   3.824   4.178  0.9125  2.5319 -0.6192
  232MOL   H16342205   2.063   3.953   4.292  0.8701 -0.2527  2.4833
  232MOL   C16442206   1.985   3.457   4.164  0.4537  0.3713 -0.3400
  232MOL   C16542207   1.983   3.458   4.007 -0.7642  0.6030 -0.5521
  232MOL   C16642208   1.888   3.343   4.217  0.0222 -0.7065  0.6405
  232MOL   O16742209   1.917   3.276   4.316  0.3823  0.4901  0.5700
  232MOL   O16842210   1.777   3.329   4.140  0.2496 -0.1958  1.0582
  232MOL   H16942211   2.088   3.432   4.190  1.1633  1.7688 -1.7551
  232MOL   H17042212   1.895   3.516   3.979 -0.6843  1.4534  0.8992
  232MOL   H17142213   2.070   3.505   3.961 -0.3635 -0.5043 -0.9474
  232MOL   H17242214   1.968   3.359   3.965  3.6243  0.8621 -3.0598
  232MOL   C17342215   1.691   3.224   4.172  0.0975 -0.0584 -0.2229
  232MOL   C17442216   1.602   3.180   4.053  0.2674 -0.3973  0.5570
  232MOL   C17542217   1.603   3.255   4.291 -0.3302  0.1233 -0.6944
  232MOL   O17642218   1.593   3.190   4.392  0.3977 -0.7245  0.1519
  232MOL   O17742219   1.531   3.366   4.259 -0.3000  0.3491 -0.1595
  232MOL   H17842220   1.748   3.137   4.202  2.0362  0.8925 -1.0624
  232MOL   H17942221   1.671   3.160   3.970 -0.4753  0.9533 -0.4048
  232MOL   H18042222   1.542   3.089   4.057 -1.6000  0.7681 -0.2123
  232MOL   H18142223   1.547   3.262   4.007 -3.1930 -2.2706  1.1756
  232MOL   H18242224   1.471   3.386   4.330  1.0509 -0.2884  1.1971
  233MOL     C142225   5.930   0.480   4.912 -0.3721 -0.1686  0.0401
  233MOL     C242226   5.851   0.441   4.779 -0.9351  0.4901  0.0779
  233MOL     C342227   6.039   0.580   4.887  0.2455 -0.4982  0.1473
  233MOL     O442228   6.135   0.550   4.817  0.2649  0.4331  0.1647
  233MOL     O542229   6.011   0.696   4.946  0.2394 -0.0217 -0.4320
  233MOL     H642230   5.862   0.498   4.996  0.2019  0.7604  0.3150
  233MOL     H742231   5.909   0.402   4.696 -1.4396  0.6435 -0.3452
  233MOL     H842232   5.770   0.372   4.802 -1.1504  0.3791 -1.0212
  233MOL     H942233   5.795   0.532   4.754  0.0546  1.1998  0.4111
  233MOL    H1042234   5.977   0.393   4.956 -0.8971 -0.2654  0.4208
  233MOL    C1142235   6.112   0.798   4.947  0.1833  1.1480 -0.2506
  233MOL    C1242236   6.235   0.760   5.031  0.2107  0.2054 -0.7243
  233MOL    C1342237   6.056   0.933   4.983 -0.3928  0.6267  0.0328
  233MOL    O1442238   5.955   0.931   5.055  0.1218  0.3470 -0.0937
  233MOL    O1542239   6.129   1.047   4.951  0.2117 -0.8985 -0.3744
  233MOL    H1642240   6.157   0.807   4.848 -1.7158  0.1813 -1.2242
  233MOL    H1742241   6.304   0.841   5.007 -1.3109  1.2659 -1.5952
  233MOL    H1842242   6.216   0.754   5.138  0.6044 -0.2245 -0.6762
  233MOL    H1942243   6.275   0.661   5.008 -0.6565  0.1260 -1.9231
  233MOL    C2042244   6.076   1.170   4.989  0.2085  0.0454 -0.1313
  233MOL    C2142245   6.087   1.274   4.870 -0.7121  0.4281 -0.2033
  233MOL    C2242246   6.130   1.213   5.119  0.3531 -0.4567 -0.4420
  233MOL    O2342247   6.062   1.250   5.211 -0.6626  0.1056  0.3318
  233MOL    O2442248   6.259   1.189   5.135 -0.0667 -0.3824  0.3493
  233MOL    H2542249   5.971   1.158   5.017  0.1403  0.6773 -0.1124
  233MOL    H2642250   6.183   1.260   4.821  0.1187  0.7875  1.3113
  233MOL    H2742251   6.011   1.259   4.793  0.5575 -1.6114 -1.0917
  233MOL    H2842252   6.084   1.378   4.904 -0.8761  0.0209  1.0768
  233MOL    C2942253   6.333   1.209   5.257 -0.3363  0.1053 -0.6208
  233MOL    C3042254   6.462   1.292   5.231 -0.1985 -0.8286  0.9086
  233MOL    C3142255   6.371   1.069   5.312  0.4768  0.6170  0.5988
  233MOL    O3242256   6.364   0.963   5.245  0.1062  0.1289  0.0565
  233MOL    O3342257   6.406   1.078   5.441  0.6203  0.5812 -0.4119
  233MOL    H3442258   6.276   1.261   5.334  1.4528  0.4795  0.4914
  233MOL    H3542259   6.502   1.320   5.328 -0.4286  1.3396  0.4080
  233MOL    H3642260   6.529   1.232   5.170 -0.5188  0.6422 -0.9370
  233MOL    H3742261   6.435   1.386   5.182  3.6234  1.1187  2.3760
  233MOL    C3842262   6.456   0.961   5.515  0.1223 -0.8314 -0.4326
  233MOL    C3942263   6.572   0.890   5.450 -0.4958 -0.2135 -0.2907
  233MOL    C4042264   6.344   0.868   5.552  0.0531  0.9943  0.4808
  233MOL    O4142265   6.355   0.749   5.569 -0.3384 -0.4127  0.1273
  233MOL    O4242266   6.227   0.937   5.556 -0.5640 -0.4053  0.3009
  233MOL    H4342267   6.503   0.998   5.606 -0.3811 -1.6728  0.1704
  233MOL    H4442268   6.662   0.943   5.481 -2.0361  0.7044  2.9117
  233MOL    H4542269   6.584   0.791   5.494 -0.9486 -0.7584 -1.3675
  233MOL    H4642270   6.587   0.874   5.344 -0.3462 -0.8804 -0.1708
  233MOL    C4742271   6.097   0.875   5.563  0.2917  0.1923  0.9027
  233MOL    C4842272   5.994   0.966   5.496  0.5174  0.0490 -0.3215
  233MOL    C4942273   6.074   0.845   5.717 -0.0885 -0.2362 -0.8268
  233MOL    O5042274   6.055   0.727   5.751  0.0079  0.4443  0.2691
  233MOL    O5142275   6.072   0.955   5.790 -0.1451 -0.2586 -0.0038
  233MOL    H5242276   6.102   0.780   5.510 -1.7416 -0.6927  2.2263
  233MOL    H5342277   5.889   0.935   5.502  0.2778  1.0606  1.0968
  233MOL    H5442278   5.983   1.056   5.556 -1.9164 -0.5895  0.2673
  233MOL    H5542279   6.023   1.008   5.400  0.7825 -0.0992 -0.3056
  233MOL    C5642280   6.094   0.944   5.929  1.2320  0.3770  0.1716
  233MOL    C5742281   6.041   1.079   5.981 -0.4051  0.0662 -0.3365
  233MOL    C5842282   6.241   0.949   5.958 -0.0434 -0.3265 -0.1243
  233MOL    O5942283   6.330   0.982   5.877  0.0167 -0.3796  0.1921
  233MOL    O6042284   6.264   0.923   6.091  0.1169 -0.0950  0.3363
  233MOL    H6142285   6.048   0.859   5.979  0.9068  0.6071  0.2590
  233MOL    H6242286   6.083   1.163   5.926 -1.0998 -0.1326 -1.1813
  233MOL    H6342287   5.933   1.095   5.971 -0.5945 -0.5848  0.6215
  233MOL    H6442288   6.060   1.088   6.088  1.9829  2.3015 -0.8874
  233MOL    C6542289   6.397   0.942   6.151 -0.0725 -0.0187 -0.0075
  233MOL    C6642290   6.391   0.914   6.302 -0.0333  1.1392 -0.2533
  233MOL    C6742291   6.459   1.077   6.125  0.1093  0.0231  0.1663
  233MOL    O6842292   6.578   1.093   6.096  0.1657 -0.2214 -0.0978
  233MOL    O6942293   6.370   1.174   6.137  0.1790  0.4306  0.9086
  233MOL    H7042294   6.466   0.867   6.111  0.1034 -0.1808  0.5926
  233MOL    H7142295   6.338   0.993   6.355  0.1437  0.1725  1.3932
  233MOL    H7242296   6.349   0.817   6.330  1.3607  0.9780  1.3749
  233MOL    H7342297   6.494   0.917   6.339  0.5816  0.5668 -1.8889
  233MOL    C7442298   6.414   1.310   6.125  0.1763  0.5096 -0.7229
  233MOL    C7542299   6.415   1.371   6.265 -0.3870  0.0836  0.3168
  233MOL    C7642300   6.320   1.377   6.019  0.2352 -0.3194 -0.1398
  233MOL    O7742301   6.237   1.467   6.044  0.1922  0.1904 -0.0908
  233MOL    O7842302   6.334   1.320   5.901  0.1405 -0.0627  0.1625
  233MOL    H7942303   6.514   1.316   6.083  0.5428 -0.0832  0.0487
  233MOL    H8042304   6.493   1.321   6.322 -1.5053  0.5326  2.2952
  233MOL    H8142305   6.430   1.479   6.263  0.0613  0.0630  1.8491
  233MOL    H8242306   6.314   1.360   6.306  0.0481  2.1519  1.9950
  233MOL    C8342307   6.259   1.362   5.785  0.0708  0.0806 -0.1822
  233MOL    C8442308   6.268   1.260   5.672 -0.1703  0.0156 -0.0630
  233MOL    C8542309   6.284   1.504   5.726 -0.4869  0.4730  0.4464
  233MOL    O8642310   6.398   1.547   5.704  0.3233  0.7401 -0.2848
  233MOL    O8742311   6.168   1.565   5.699 -0.3054  0.1093  0.1626
  233MOL    H8842312   6.157   1.362   5.822 -0.9600  0.9805 -2.9229
  233MOL    H8942313   6.371   1.224   5.669 -0.4878 -1.1828  1.9209
  233MOL    H9042314   6.212   1.171   5.700 -0.6239  0.4615  0.4556
  233MOL    H9142315   6.242   1.294   5.572  3.5994  0.4830 -0.9495
  233MOL    C9242316   6.176   1.705   5.679  0.1213  0.4966 -0.1255
  233MOL    C9342317   6.071   1.776   5.755  0.7099  0.4919 -0.0628
  233MOL    C9442318   6.167   1.734   5.528  0.0046  0.3026  0.1695
  233MOL    O9542319   6.196   1.650   5.444 -0.5025  0.1396  0.1391
  233MOL    O9642320   6.129   1.859   5.496 -0.1965  0.1952  0.0844
  233MOL    H9742321   6.271   1.752   5.707  0.4621 -0.6595  0.6565
  233MOL    H9842322   6.065   1.739   5.857  1.0040 -1.9458 -0.9181
  233MOL    H9942323   6.088   1.884   5.752 -0.1112  0.6193 -0.3749
  233MOL   H10042324   5.976   1.763   5.703 -0.5890  2.2738  1.7512
  233MOL   C10142325   6.124   1.894   5.359  0.4232 -0.1103 -0.5741
  233MOL   C10242326   6.108   2.048   5.347  0.1239 -0.0207 -0.6870
  233MOL   C10342327   6.015   1.819   5.287 -0.2417  0.5990  0.4029
  233MOL   O10442328   5.915   1.769   5.343  0.2816 -0.2273 -0.6553
  233MOL   O10542329   6.026   1.835   5.158 -0.1840 -0.0452 -0.1180
  233MOL   H10642330   6.218   1.864   5.312  1.1577 -0.4191  1.0573
  233MOL   H10742331   6.190   2.113   5.377  1.7616 -2.2508 -0.2209
  233MOL   H10842332   6.097   2.074   5.242  0.6459 -2.4466 -1.3788
  233MOL   H10942333   6.013   2.082   5.389 -0.4615 -1.7373 -0.5782
  233MOL   C11042334   5.923   1.789   5.064 -0.3864  0.1861 -1.1120
  233MOL   C11142335   5.962   1.647   5.014 -0.0443  0.5405 -0.3108
  233MOL   C11242336   5.907   1.889   4.948  0.4872  0.2190  0.2468
  233MOL   O11342337   5.891   1.851   4.836  0.2033  0.0989  0.1517
  233MOL   O11442338   5.902   2.018   4.980 -0.8639 -0.3545 -0.1740
  233MOL   H11542339   5.823   1.790   5.107  0.3107  1.2254  0.5445
  233MOL   H11642340   6.060   1.650   4.966  0.8270 -2.5188  1.1091
  233MOL   H11742341   5.970   1.567   5.088 -1.6968  2.5024  2.0870
  233MOL   H11842342   5.902   1.593   4.941  0.9030 -0.9769  0.0172
  233MOL   C11942343   5.859   2.122   4.890  0.1125 -0.9458 -0.3821
  233MOL   C12042344   5.953   2.165   4.778  0.0426 -0.1074  0.3508
  233MOL   C12142345   5.822   2.238   4.979  0.1370  0.5741  0.1372
  233MOL   O12242346   5.709   2.286   4.985  0.1876  0.9031  0.5464
  233MOL   O12342347   5.930   2.275   5.051  0.2280 -0.2147  0.0304
  233MOL   H12442348   5.765   2.083   4.852 -1.7092 -0.6163  3.5335
  233MOL   H12542349   6.034   2.225   4.820 -0.8367  0.6092  1.0629
  233MOL   H12642350   5.997   2.075   4.734  2.9039  0.9103  1.0115
  233MOL   H12742351   5.912   2.231   4.703 -0.3685  0.3448  0.9658
  233MOL   C12842352   5.916   2.368   5.155  0.1905 -0.8437  0.1388
  233MOL   C12942353   6.057   2.395   5.212 -0.5175 -0.0023  0.4366
  233MOL   C13042354   5.814   2.321   5.261 -0.3787 -0.2946  0.5944
  233MOL   O13142355   5.787   2.204   5.285  0.0292 -0.6764 -0.4330
  233MOL   O13242356   5.774   2.425   5.330  0.2481  0.4513 -0.2233
  233MOL   H13342357   5.872   2.455   5.106  0.1867 -0.6271  0.5283
  233MOL   H13442358   6.089   2.311   5.273  1.6460 -0.1166 -0.8000
  233MOL   H13542359   6.127   2.415   5.131 -0.8942 -1.9395 -0.3799
  233MOL   H13642360   6.052   2.479   5.282 -0.9150  2.8926 -2.9520
  233MOL   C13742361   5.708   2.405   5.459  0.2788 -0.1194  0.7283
  233MOL   C13842362   5.678   2.539   5.523 -0.4192  0.5129  0.0409
  233MOL   C13942363   5.796   2.322   5.553  0.1414  0.1694 -0.9907
  233MOL   O14042364   5.916   2.344   5.574  0.0270 -0.1362 -0.1546
  233MOL   O14142365   5.741   2.216   5.607 -0.1072  0.1777 -0.2236
  233MOL   H14242366   5.614   2.351   5.441  2.0320 -2.1777 -2.6619
  233MOL   H14342367   5.768   2.585   5.563  0.0783 -1.1810  0.9028
  233MOL   H14442368   5.618   2.610   5.466 -1.7639 -0.6959 -0.0744
  233MOL   H14542369   5.624   2.526   5.616 -1.4503 -1.3831 -0.7976
  233MOL   C14642370   5.813   2.148   5.703 -0.4172  0.1159  0.9119
  233MOL   C14742371   5.730   2.018   5.705 -0.4743  0.2708  0.1452
  233MOL   C14842372   5.820   2.220   5.837  0.0141  0.5073  0.3091
  233MOL   O14942373   5.754   2.321   5.859  0.5274 -0.9200 -0.9026
  233MOL   O15042374   5.892   2.157   5.921 -0.1056 -0.5274  0.1469
  233MOL   H15142375   5.913   2.130   5.666 -0.2516  1.0633  0.8961
  233MOL   H15242376   5.667   2.025   5.794 -2.2423 -0.5976 -1.0207
  233MOL   H15342377   5.656   2.007   5.626 -0.8440 -0.0591  0.5303
  233MOL   H15442378   5.787   1.925   5.707 -1.7276 -0.5426 -1.2700
  233MOL   C15542379   5.920   2.209   6.054  0.3393 -0.0261  0.7304
  233MOL   C15642380   6.054   2.160   6.097 -0.8515 -0.6989 -0.2182
  233MOL   C15742381   5.810   2.163   6.156 -0.1236  0.4512  0.6195
  233MOL   O15842382   5.767   2.243   6.237 -0.0864 -0.4123  0.1618
  233MOL   O15942383   5.782   2.033   6.146 -0.0131  0.2553 -0.0783
  233MOL   H16042384   5.929   2.318   6.049  1.7981 -0.0948  1.5698
  233MOL   H16142385   6.138   2.181   6.031  1.1549  0.3483  2.5979
  233MOL   H16242386   6.068   2.209   6.193  1.0189  0.2093 -0.9212
  233MOL   H16342387   6.069   2.055   6.121  0.5459 -0.0830  1.7447
  233MOL   C16442388   5.705   1.966   6.250 -0.0639  0.1250 -0.2968
  233MOL   C16542389   5.770   1.826   6.278 -0.5607 -0.7709  0.5704
  233MOL   C16642390   5.562   1.942   6.188 -0.2667 -0.9379 -0.1711
  233MOL   O16742391   5.465   2.005   6.222 -0.3066 -0.2809  0.1981
  233MOL   O16842392   5.561   1.843   6.096  0.3138 -0.2880 -0.2952
  233MOL   H16942393   5.688   2.025   6.340  0.2508  0.3765 -0.3976
  233MOL   H17042394   5.741   1.783   6.374  0.7649 -0.6055  1.0565
  233MOL   H17142395   5.758   1.753   6.198  3.3101 -0.1193 -0.7141
  233MOL   H17242396   5.877   1.838   6.290 -0.6163 -1.0282  1.3932
  233MOL   C17342397   5.440   1.786   6.039  0.4748 -0.5505  0.6163
  233MOL   C17442398   5.370   1.881   5.932  0.2847  0.5495 -0.5966
  233MOL   C17542399   5.347   1.735   6.150  0.0828 -0.1133  0.2086
  233MOL   O17642400   5.224   1.738   6.139 -0.0231  0.6998  0.2793
  233MOL   O17742401   5.419   1.667   6.247 -0.4857 -0.0633 -0.3611
  233MOL   H17842402   5.473   1.694   5.990  0.1219 -0.6086  0.4870
  233MOL   H17942403   5.265   1.855   5.919  0.4884 -0.4257 -0.3409
  233MOL   H18042404   5.383   1.978   5.980  1.8088  1.0044 -1.9160
  233MOL   H18142405   5.426   1.881   5.839  0.0598 -3.1076 -0.8187
  233MOL   H18242406   5.361   1.616   6.303  1.4836 -0.5065  1.3419
  234MOL     C142407   7.373   0.164   0.994  0.0656  0.7940 -0.3668
  234MOL     C242408   7.233   0.105   0.974 -0.3149  0.0768  0.6929
  234MOL     C342409   7.480   0.057   1.017 -0.3822 -0.3637 -0.3983
  234MOL     O442410   7.453   8.088   1.047  0.1045 -0.4094 -0.3357
  234MOL     O542411   7.602   0.110   0.991 -0.2511  0.2907 -0.3709
  234MOL     H642412   7.392   0.230   0.909 -1.8791  0.5006 -1.0578
  234MOL     H742413   7.161   0.186   0.985  0.0327  0.7883 -1.9232
  234MOL     H842414   7.219   0.064   0.874  1.7295 -0.9359  0.8051
  234MOL     H942415   7.209   0.026   1.046  2.8404 -1.5436  0.0599
  234MOL    H1042416   7.372   0.238   1.074 -1.8017  0.2571  0.1389
  234MOL    C1142417   7.717   0.028   0.992 -0.1630  0.0763 -0.3818
  234MOL    C1242418   7.839   0.120   1.024 -0.8730 -0.1372 -0.6193
  234MOL    C1342419   7.742   8.092   0.863  0.1197 -0.1214 -0.9017
  234MOL    O1442420   7.667   8.100   0.766 -0.1266  0.0802 -0.1431
  234MOL    O1542421   7.850   8.012   0.869  0.4647 -0.4763  0.1845
  234MOL    H1642422   7.711   8.104   1.074  0.8188  0.8943  0.4295
  234MOL    H1742423   7.828   0.221   0.986  2.2502  0.3870 -0.2764
  234MOL    H1842424   7.859   0.133   1.131 -0.0196 -1.6010 -0.5884
  234MOL    H1942425   7.935   0.076   0.996 -0.0253  1.3378 -0.1002
  234MOL    C2042426   7.888   7.915   0.765 -0.0096  0.2794 -0.7992
  234MOL    C2142427   7.995   7.829   0.836  1.1093  0.3142  0.3251
  234MOL    C2242428   7.956   7.985   0.638  0.1927  0.1044 -0.0487
  234MOL    O2342429   8.077   7.979   0.612 -0.4203 -0.2408  0.1412
  234MOL    O2442430   7.865   8.051   0.565  0.2527  0.2417 -0.2918
  234MOL    H2542431   7.805   7.848   0.746 -1.5755  2.5310 -2.1555
  234MOL    H2642432   8.040   7.777   0.751 -1.3241  0.2592 -0.9741
  234MOL    H2742433   8.070   7.884   0.893  0.7413 -1.8111  2.9501
  234MOL    H2842434   7.947   7.762   0.906 -1.7326  0.4421 -1.4113
  234MOL    C2942435   7.901   8.093   0.432  0.1980  0.1304  0.2553
  234MOL    C3042436   7.793   0.044   0.392  0.5603 -0.3167 -0.3951
  234MOL    C3142437   7.915   7.980   0.332 -0.1583  0.5450  0.1131
  234MOL    O3242438   8.018   7.954   0.268  0.0836 -0.1306 -0.1261
  234MOL    O3342439   7.799   7.914   0.328 -0.1886 -0.1346  0.0317
  234MOL    H3442440   7.997   8.145   0.431 -0.5764  1.6045  1.0886
  234MOL    H3542441   7.794   0.129   0.460 -2.6707 -0.2288 -0.4011
  234MOL    H3642442   7.829   0.099   0.305 -1.6398 -0.0837 -1.1888
  234MOL    H3742443   7.691   0.010   0.376 -0.0553  0.6157  1.4096
  234MOL    C3842444   7.783   7.800   0.247  0.6205  0.3796  0.2267
  234MOL    C3942445   7.639   7.747   0.249 -0.4256 -0.8503  0.2096
  234MOL    C4042446   7.872   7.691   0.306  0.0717  0.5921  0.5064
  234MOL    O4142447   7.878   7.671   0.427  0.1524  0.5111 -0.2244
  234MOL    O4242448   7.939   7.628   0.212  0.4521  0.2697 -0.8280
  234MOL    H4342449   7.795   7.818   0.141 -2.5000  0.5421 -0.1514
  234MOL    H4442450   7.609   7.690   0.337 -2.4370  0.9391  0.7210
  234MOL    H4542451   7.575   7.830   0.220  0.2168  0.5185  2.5876
  234MOL    H4642452   7.634   7.672   0.170  2.1653  1.0407 -1.8337
  234MOL    C4742453   8.003   7.504   0.232 -0.2833  0.6110  0.4982
  234MOL    C4842454   8.119   7.505   0.128  0.7599  0.2390 -0.2951
  234MOL    C4942455   7.901   7.392   0.207 -0.4478 -0.4626  0.0554
  234MOL    O5042456   7.920   7.284   0.259  0.2069 -0.1259 -0.0447
  234MOL    O5142457   7.800   7.421   0.128  0.0519 -0.0276  0.6123
  234MOL    H5242458   8.028   7.490   0.337 -1.3552  2.3763  1.0108
  234MOL    H5342459   8.081   7.508   0.027 -1.3425 -0.5212  0.4580
  234MOL    H5442460   0.041   7.589   0.122  0.7543  0.1803 -1.1147
  234MOL    H5542461   0.044   7.425   0.147  1.0738  0.9178  1.4977
  234MOL    C5642462   7.720   7.322   0.058 -0.1615  0.1974 -0.0582
  234MOL    C5742463   7.623   7.257   0.153 -0.1490  0.3854  0.2606
  234MOL    C5842464   7.810   7.223   8.122  0.7221 -0.0804  0.4963
  234MOL    O5942465   7.773   7.106   8.109  0.5835 -0.0931  0.1540
  234MOL    O6042466   7.908   7.285   8.051 -0.0776  0.5635 -0.1689
  234MOL    H6142467   7.665   7.383   8.134 -0.3508  0.7494  0.5546
  234MOL    H6242468   7.673   7.205   0.235 -1.3350  0.3176  0.9421
  234MOL    H6342469   7.561   7.330   0.204 -0.7928 -1.1337  1.6947
  234MOL    H6442470   7.550   7.190   0.108  0.6373 -1.6416  1.8982
  234MOL    C6542471   8.001   7.207   7.971 -0.4439  0.2555 -0.2216
  234MOL    C6642472   8.088   7.116   8.064 -0.1550  0.8919 -0.3624
  234MOL    C6742473   8.085   7.306   7.889 -0.0109 -0.6629 -0.5405
  234MOL    O6842474   8.070   7.314   7.768  0.0080  0.0187  0.7634
  234MOL    O6942475   0.037   7.373   7.964 -0.2323 -0.5084 -0.1651
  234MOL    H7042476   7.945   7.147   7.899  0.0334 -0.7183  0.2100
  234MOL    H7142477   8.100   7.178   0.006 -1.0737 -2.3285  2.0897
  234MOL    H7242478   8.036   7.027   8.099 -1.0538  1.3262 -0.5732
  234MOL    H7342479   0.031   7.092   8.008  0.4565  2.9656 -0.3128
  234MOL    C7442480   0.136   7.460   7.901 -0.6766 -0.5862  0.1662
  234MOL    C7542481   0.268   7.462   7.985 -0.5092  0.6751 -0.2877
  234MOL    C7642482   0.075   7.596   7.884  0.3341 -0.7127  0.5054
  234MOL    O7742483   0.048   7.645   7.779  0.5323  0.1963  0.5469
  234MOL    O7842484   0.049   7.662   7.992 -0.3470  0.2092  0.3815
  234MOL    H7942485   0.163   7.413   7.807 -1.9024 -2.6312  0.8046
  234MOL    H8042486   0.351   7.503   7.928  0.9066 -0.1968  1.1282
  234MOL    H8142487   0.246   7.509   8.081 -2.0523  2.5018 -1.5161
  234MOL    H8242488   0.297   7.359   8.007 -0.0600  0.8137 -0.2374
  234MOL    C8342489   8.106   7.777   7.999 -0.1331  0.2650  0.2157
  234MOL    C8442490   8.132   7.856   8.126  0.5725 -0.4090 -0.2689
  234MOL    C8542491   7.962   7.724   7.987 -0.4442  0.0586 -0.1442
  234MOL    O8642492   7.906   7.645   8.065 -0.1405 -0.2334 -0.0090
  234MOL    O8742493   7.907   7.763   7.877  0.5287 -0.2541  1.1234
  234MOL    H8842494   8.113   7.844   7.913  1.3598 -1.0290 -0.6754
  234MOL    H8942495   8.048   7.923   8.144  0.4590 -0.8056  0.7041
  234MOL    H9042496   8.135   7.824   0.082 -0.0812 -1.2322 -0.5047
  234MOL    H9142497   0.058   7.932   8.097  0.9508 -0.9867 -0.8341
  234MOL    C9242498   7.776   7.723   7.850 -0.1996  0.4275  0.0527
  234MOL    C9342499   7.752   7.703   7.700 -0.1540  0.2480 -0.9729
  234MOL    C9442500   7.674   7.818   7.916  0.2977 -0.1425  0.6255
  234MOL    O9542501   7.597   7.785   8.006 -0.3121  0.2877 -0.1079
  234MOL    O9642502   7.695   7.948   7.868 -0.3208 -0.1313  0.1076
  234MOL    H9742503   7.755   7.625   7.894  0.7014  1.0366  1.9030
  234MOL    H9842504   7.654   7.662   7.675  0.0164 -1.5439  1.1592
  234MOL    H9942505   7.759   7.802   7.655 -0.6118  0.8727  0.2987
  234MOL   H10042506   7.834   7.642   7.662 -1.2910 -0.7079 -1.8976
  234MOL   C10142507   7.619   8.059   7.914  0.1340 -0.3193  0.1674
  234MOL   C10242508   7.621   0.014   7.804 -0.1602  0.4085 -0.5256
  234MOL   C10342509   7.678   8.117   8.044 -0.0933  1.3754 -0.1804
  234MOL   O10442510   7.783   8.069   8.082 -0.4272 -0.0757  1.0618
  234MOL   O10542511   7.614   0.075   8.089  0.0964 -0.4807 -0.8097
  234MOL   H10642512   7.515   8.034   7.933  0.3383  0.7353  2.8586
  234MOL   H10742513   7.586   0.109   7.843  1.7579 -0.2317  2.8750
  234MOL   H10842514   7.721   0.043   7.773 -0.3668  2.2107  0.4504
  234MOL   H10942515   7.556   0.007   7.717  0.0616  1.1131 -0.7533
  234MOL   C11042516   7.672   0.160   0.042 -0.5307 -0.1814 -0.4920
  234MOL   C11142517   7.565   0.232   0.130 -0.2059  0.8018 -0.4585
  234MOL   C11242518   7.767   0.266   8.121 -0.0269 -0.1039 -0.2707
  234MOL   O11342519   7.855   0.324   0.041  0.2780 -0.0366  0.0226
  234MOL   O11442520   7.734   0.300   7.998 -0.3679 -0.4175  0.0970
  234MOL   H11542521   7.738   0.104   0.109  1.9671  1.0765 -1.7981
  234MOL   H11642522   7.504   0.156   0.179  1.3092 -0.6084 -0.7302
  234MOL   H11742523   7.611   0.290   0.210 -0.3559 -0.4824  0.5698
  234MOL   H11842524   7.496   0.298   0.077 -0.3309  0.1142 -1.1751
  234MOL   C11942525   7.826   0.382   7.928 -0.1866  0.6420 -0.3640
  234MOL   C12042526   7.739   0.437   7.820  0.0945  0.0889  0.8095
  234MOL   C12142527   7.939   0.297   7.862 -0.5740 -0.1198  0.0254
  234MOL   O12242528   8.042   0.350   7.813  0.5174  0.1647  0.3275
  234MOL   O12342529   7.913   0.165   7.858  0.0184 -0.1547  0.6992
  234MOL   H12442530   7.862   0.473   7.976  1.8282  0.3474 -1.2735
  234MOL   H12542531   7.795   0.511   7.762 -0.3322 -0.3411 -0.1566
  234MOL   H12642532   7.720   0.352   7.756 -0.5469  1.1221 -0.3955
  234MOL   H12742533   7.644   0.481   7.851 -0.5468  0.0674 -1.0881
  234MOL   C12842534   8.020   0.078   7.824 -0.8267  0.0004 -0.0377
  234MOL   C12942535   7.972   8.083   7.800  0.5271 -0.4859  0.0909
  234MOL   C13042536   8.139   0.073   7.926  0.8394  0.4307  0.2890
  234MOL   O13142537   0.102   0.033   7.890 -0.3257  0.5708 -0.3326
  234MOL   O13242538   8.100   0.118   8.046 -0.1026  0.0886  0.2468
  234MOL   H13342539   8.064   0.098   7.726 -1.8353 -1.1996 -0.7584
  234MOL   H13442540   7.953   8.035   7.896 -0.4893 -0.0193  0.1280
  234MOL   H13542541   7.881   8.080   7.741  0.8428 -1.3858 -0.3555
  234MOL   H13642542   8.038   8.012   7.751 -0.6747 -2.5054  1.3368
  234MOL   C13742543   0.039   0.130   0.004 -0.4159 -0.1717 -0.5369
  234MOL   C13842544   8.098   0.124   0.127 -0.2557  0.6793 -0.2659
  234MOL   C13942545   0.120   0.258   0.000 -0.8728 -0.0161 -0.1701
  234MOL   O14042546   0.239   0.263   0.029 -0.4689  0.1623  0.0226
  234MOL   O14142547   0.050   0.368   8.104 -0.1481 -0.2017  0.0724
  234MOL   H14242548   0.096   0.037   8.145 -2.4252 -1.4338 -0.4563
  234MOL   H14342549   8.146   0.092   0.220  0.2286 -2.6229 -1.5730
  234MOL   H14442550   8.043   0.216   0.144 -0.5708  0.0449  2.4864
  234MOL   H14542551   8.019   0.052   0.107  1.1411 -1.3037  1.1439
  234MOL   C14642552   0.113   0.497   8.090  0.0750  0.5657 -0.2515
  234MOL   C14742553   0.004   0.594   8.122 -0.0752 -0.5738 -0.0345
  234MOL   C14842554   0.164   0.512   7.946  0.2050  0.7739 -0.1616
  234MOL   O14942555   0.147   0.613   7.882 -0.1776 -0.0004  0.5133
  234MOL   O15042556   0.229   0.400   7.900 -0.6445  0.4043  0.1688
  234MOL   H15142557   0.204   0.497   0.002 -0.4477 -0.6944  0.5564
  234MOL   H15242558   8.128   0.575   0.080 -1.9190 -0.0905 -0.3402
  234MOL   H15342559   0.036   0.698   8.111  0.6091 -0.8389 -0.5775
  234MOL   H15442560   8.063   0.578   8.062  0.6016 -0.7547 -0.9886
  234MOL   C15542561   0.275   0.404   7.768  0.4700 -0.5740  0.5034
  234MOL   C15642562   0.335   0.266   7.753  0.9301 -0.6345  0.1346
  234MOL   C15742563   0.390   0.502   7.748  0.2653  0.4587 -0.4322
  234MOL   O15842564   0.477   0.515   7.835 -0.3778  0.6456 -0.4403
  234MOL   O15942565   0.384   0.569   7.640  0.0399  0.1407 -0.4206
  234MOL   H16042566   0.193   0.409   7.696 -0.5116  0.9664  1.7229
  234MOL   H16142567   0.373   0.264   7.651 -0.7760 -2.8503 -0.4994
  234MOL   H16242568   0.414   0.242   7.825  1.8630  0.4748 -0.5122
  234MOL   H16342569   0.263   0.185   7.764 -0.4494  0.4257 -0.9698
  234MOL   C16442570   0.466   0.677   7.607 -0.1266  0.0510  0.1920
  234MOL   C16542571   0.366   0.782   7.551  0.0113  0.1823 -0.3813
  234MOL   C16642572   0.592   0.638   7.524 -0.0020  0.0133  0.0856
  234MOL   O16742573   0.606   0.685   7.414 -0.0987 -0.9468  0.0607
  234MOL   O16842574   0.678   0.547   7.584  0.0848 -0.3016 -1.0023
  234MOL   H16942575   0.516   0.724   7.691 -1.7598  1.7601  0.2322
  234MOL   H17042576   0.291   0.817   7.621  0.7761  0.8559  0.1145
  234MOL   H17142577   0.421   0.871   7.519  0.1640  0.5263  0.8195
  234MOL   H17242578   0.317   0.755   7.458  1.0985  0.3783 -1.0235
  234MOL   C17342579   0.793   0.490   7.533 -0.2868  1.0004  0.3675
  234MOL   C17442580   0.910   0.584   7.521 -0.1469 -0.7826  0.2695
  234MOL   C17542581   0.764   0.417   7.401 -0.9047  0.5131 -0.6886
  234MOL   O17642582   0.817   0.433   7.294 -0.1141  0.3173 -0.0928
  234MOL   O17742583   0.664   0.331   7.426 -0.0648 -0.1902 -0.1317
  234MOL   H17842584   0.825   0.418   7.609 -1.9678 -0.6290 -0.4243
  234MOL   H17942585   0.928   0.629   7.619 -3.4994  4.1360 -1.2061
  234MOL   H18042586   0.998   0.530   7.484 -1.3768 -2.4050 -0.3504
  234MOL   H18142587   0.898   0.672   7.457  1.1616 -1.3745 -0.8172
  234MOL   H18242588   0.646   0.344   7.518 -1.6669  0.1180 -0.4814
  235MOL     C142589   5.662   2.104   1.699 -0.6138 -0.2065  0.0502
  235MOL     C242590   5.708   2.054   1.833 -0.6679  0.3464  0.6285
  235MOL     C342591   5.550   2.210   1.713 -0.0717 -0.2860  0.2021
  235MOL     O442592   5.437   2.176   1.680  0.4348  0.4869  0.5358
  235MOL     O542593   5.594   2.332   1.757  0.3032 -0.4522 -0.1390
  235MOL     H642594   5.750   2.148   1.652  0.8173 -0.9928  1.9185
  235MOL     H742595   5.774   1.969   1.818 -0.2640  0.2566  2.7771
  235MOL     H842596   5.771   2.125   1.886  1.5417 -0.1321 -1.2975
  235MOL     H942597   5.627   2.012   1.894 -0.9426  0.1284  0.1144
  235MOL    H1042598   5.628   2.025   1.632 -1.9092  0.1735  0.2624
  235MOL    C1142599   5.505   2.446   1.775  0.3308 -0.7690  0.1126
  235MOL    C1242600   5.583   2.563   1.716 -0.0970  0.5424 -0.2027
  235MOL    C1342601   5.461   2.467   1.915 -0.5246  0.0715  0.0149
  235MOL    O1442602   5.439   2.572   1.976  0.0806  0.0194 -0.7744
  235MOL    O1542603   5.434   2.352   1.971  0.0395  0.0741  0.0598
  235MOL    H1642604   5.420   2.434   1.708  0.5593 -2.3544  0.0821
  235MOL    H1742605   5.525   2.655   1.721  0.4740  0.8491  0.8442
  235MOL    H1842606   5.682   2.580   1.758  0.3599 -0.0150 -1.0503
  235MOL    H1942607   5.601   2.543   1.611 -0.9657 -1.8630  0.0511
  235MOL    C2042608   5.370   2.348   2.094  0.6806 -0.9285  0.0143
  235MOL    C2142609   5.389   2.199   2.153 -0.3906 -0.3031 -0.0083
  235MOL    C2242610   5.223   2.381   2.088  0.0973 -0.3235  0.8244
  235MOL    O2342611   5.169   2.376   1.980 -0.1701 -0.3455  0.0740
  235MOL    O2442612   5.167   2.432   2.201 -0.2062 -0.5136  0.0677
  235MOL    H2542613   5.403   2.427   2.162 -0.2601  0.4990 -1.1439
  235MOL    H2642614   5.360   2.122   2.082  0.4454 -0.8483  0.2252
  235MOL    H2742615   5.492   2.196   2.189 -0.8140 -0.3094  1.2216
  235MOL    H2842616   5.328   2.174   2.240 -0.4413  1.9822  0.6563
  235MOL    C2942617   5.033   2.462   2.206  0.3785 -0.5208 -0.4945
  235MOL    C3042618   5.013   2.560   2.318 -0.4353 -0.1387 -0.1997
  235MOL    C3142619   4.961   2.328   2.232 -0.0221  0.3819  0.6306
  235MOL    O3242620   5.017   2.217   2.248  0.1622 -0.5538 -0.1761
  235MOL    O3342621   4.832   2.344   2.222 -0.0395 -0.2373  0.2369
  235MOL    H3442622   4.997   2.506   2.114  2.5325 -1.3538 -1.7954
  235MOL    H3542623   5.081   2.644   2.329 -0.1460 -0.3490 -0.3716
  235MOL    H3642624   4.912   2.602   2.311 -0.8106 -0.5170  2.5979
  235MOL    H3742625   5.027   2.509   2.413  0.8404 -1.6226 -1.1490
  235MOL    C3842626   4.752   2.233   2.243 -0.0689 -0.4856 -0.6303
  235MOL    C3942627   4.618   2.263   2.173  0.4542  0.0398 -0.1072
  235MOL    C4042628   4.728   2.205   2.395  0.5848 -0.2969 -0.3723
  235MOL    O4142629   4.677   2.096   2.431 -0.1363  0.1962  0.3399
  235MOL    O4242630   4.757   2.308   2.487  0.1477 -0.2595 -0.6165
  235MOL    H4342631   4.798   2.151   2.187 -1.2009  0.2694 -2.6971
  235MOL    H4442632   4.632   2.248   2.066  1.0786 -3.0705  0.3350
  235MOL    H4542633   4.539   2.198   2.209 -0.2299 -0.1263 -1.8573
  235MOL    H4642634   4.587   2.366   2.188 -1.9377 -0.6255 -0.3757
  235MOL    C4742635   4.733   2.299   2.629 -0.3133  0.1487  0.1739
  235MOL    C4842636   4.589   2.313   2.665 -0.8142 -0.1741  0.5003
  235MOL    C4942637   4.811   2.406   2.702  0.6248  0.1548 -0.2997
  235MOL    O5042638   4.871   2.376   2.808 -0.5866 -0.5759 -0.1464
  235MOL    O5142639   4.802   2.528   2.635 -0.1903 -0.0886  0.9145
  235MOL    H5242640   4.771   2.204   2.667  1.0619  0.3748 -0.5792
  235MOL    H5342641   4.539   2.391   2.608 -1.5874 -1.2232 -0.2722
  235MOL    H5442642   4.534   2.221   2.644 -2.6181  1.4041 -1.8822
  235MOL    H5542643   4.577   2.335   2.771  2.7677 -1.2173  1.2060
  235MOL    C5642644   4.857   2.649   2.681 -0.0928  0.0368 -0.0123
  235MOL    C5742645   4.818   2.765   2.588 -1.2776 -0.0430 -0.6380
  235MOL    C5842646   5.005   2.648   2.722  0.8462 -0.0870 -0.0627
  235MOL    O5942647   5.074   2.554   2.685  0.4898 -0.6981  0.4760
  235MOL    O6042648   5.054   2.753   2.806  0.5720 -0.3036  0.6251
  235MOL    H6142649   4.812   2.680   2.775 -0.9847  0.1830 -0.4871
  235MOL    H6242650   4.877   2.854   2.611  0.3471 -0.6338 -2.4032
  235MOL    H6342651   4.828   2.747   2.481  0.0051  1.4849 -0.7927
  235MOL    H6442652   4.716   2.797   2.608 -0.7582  1.9782 -1.0918
  235MOL    C6542653   5.197   2.771   2.824  0.6005 -0.6941 -0.5286
  235MOL    C6642654   5.226   2.833   2.961  0.3565 -0.5741 -0.4787
  235MOL    C6742655   5.249   2.854   2.711 -0.3463 -0.0011 -0.0706
  235MOL    O6842656   5.332   2.812   2.631  0.0052 -0.6771  0.1886
  235MOL    O6942657   5.206   2.980   2.720 -0.0060 -0.1616 -0.4790
  235MOL    H7042658   5.242   2.672   2.819  1.9593 -0.1489  0.8308
  235MOL    H7142659   5.334   2.847   2.966  0.0396  1.7936  0.2316
  235MOL    H7242660   5.169   2.923   2.985  0.2495 -0.8185  0.1965
  235MOL    H7342661   5.209   2.759   3.040 -1.1840 -0.2046 -0.4534
  235MOL    C7442662   5.249   3.077   2.623 -0.2701 -0.0177  0.0641
  235MOL    C7542663   5.231   3.209   2.699  0.2018 -0.2283 -0.3095
  235MOL    C7642664   5.152   3.071   2.502  0.4171  0.2974  0.3197
  235MOL    O7742665   5.061   2.997   2.491 -0.4739  0.0336  0.0701
  235MOL    O7842666   5.169   3.175   2.414  0.2198  0.0154 -0.1930
  235MOL    H7942667   5.348   3.073   2.577 -0.0623 -1.3425  0.6059
  235MOL    H8042668   5.125   3.230   2.716 -0.0065 -0.8888 -0.8054
  235MOL    H8142669   5.271   3.199   2.800  1.4338  0.1796 -0.7435
  235MOL    H8242670   5.287   3.293   2.658  1.4965 -2.2888 -2.9078
  235MOL    C8342671   5.077   3.219   2.317  0.1997  0.4078 -0.0820
  235MOL    C8442672   5.153   3.268   2.191  0.1951  0.1305 -0.0422
  235MOL    C8542673   4.971   3.330   2.372 -0.1833 -0.1192  0.5767
  235MOL    O8642674   4.977   3.382   2.485  0.1636  0.1271 -0.4546
  235MOL    O8742675   4.873   3.355   2.282  0.1411 -0.0996 -0.4459
  235MOL    H8842676   5.025   3.131   2.279  1.3043 -0.4418  0.3390
  235MOL    H8942677   5.102   3.265   2.095  0.9749  2.0383 -0.5379
  235MOL    H9042678   5.207   3.362   2.200 -0.1411  0.5517 -2.1846
  235MOL    H9142679   5.230   3.196   2.162 -0.3533 -0.6347  0.3667
  235MOL    C9242680   4.769   3.454   2.320  0.4436  0.5475 -0.7717
  235MOL    C9342681   4.664   3.460   2.208 -0.0535 -0.0921 -0.5051
  235MOL    C9442682   4.831   3.590   2.341  0.3914  0.1237 -0.2748
  235MOL    O9542683   4.866   3.656   2.245  0.4631  0.8233  0.0705
  235MOL    O9642684   4.845   3.640   2.476 -0.1081 -0.4541  0.1778
  235MOL    H9742685   4.728   3.418   2.415  1.2250  0.8187 -0.3327
  235MOL    H9842686   4.717   3.479   2.115 -0.4964  1.0423 -0.5428
  235MOL    H9942687   4.607   3.367   2.202  1.3165 -1.0909  1.6128
  235MOL   H10042688   4.594   3.543   2.220  0.2809  0.2657 -1.0555
  235MOL   C10142689   4.910   3.764   2.514 -0.2078 -0.5013 -0.3113
  235MOL   C10242690   4.817   3.887   2.489 -0.4391  0.2895 -0.6608
  235MOL   C10342691   5.045   3.780   2.462 -0.3948 -0.6844 -0.6101
  235MOL   O10442692   5.086   3.885   2.412  0.0132  0.1429 -0.2283
  235MOL   O10542693   5.130   3.668   2.490  0.1402 -0.1920 -0.6629
  235MOL   H10642694   4.929   3.750   2.621  1.1114  1.1811 -0.3036
  235MOL   H10742695   4.720   3.864   2.534 -0.0934  2.6713  1.3723
  235MOL   H10842696   4.859   3.975   2.537 -1.5295  1.1057 -1.1921
  235MOL   H10942697   4.812   3.914   2.384  3.0950  2.4835 -0.3411
  235MOL   C11042698   5.274   3.672   2.464 -0.5575 -0.2597 -0.7147
  235MOL   C11142699   5.330   3.529   2.444 -0.5611  0.2473  0.4512
  235MOL   C11242700   5.349   3.729   2.589 -0.2671  0.4141  0.0704
  235MOL   O11342701   5.312   3.710   2.707 -0.9611 -0.2127  0.1245
  235MOL   O11442702   5.463   3.784   2.547  0.4064 -0.6567 -0.2376
  235MOL   H11542703   5.282   3.720   2.366 -0.2882  0.6183 -0.2700
  235MOL   H11642704   5.438   3.539   2.452 -0.6350  3.6068 -1.7408
  235MOL   H11742705   5.307   3.458   2.524 -0.0101  1.0151  1.3034
  235MOL   H11842706   5.310   3.483   2.347  1.7367 -0.2210  0.1805
  235MOL   C11942707   5.571   3.821   2.635  0.0733 -0.5834 -0.5942
  235MOL   C12042708   5.677   3.918   2.574  0.0557  0.5030  0.7921
  235MOL   C12142709   5.633   3.689   2.696  0.1745  0.5796  0.1314
  235MOL   O12242710   5.620   3.661   2.817  0.0675 -0.4738 -0.5199
  235MOL   O12342711   5.696   3.612   2.601 -0.2219  0.0039  0.3845
  235MOL   H12442712   5.527   3.885   2.711  1.9613  2.1139 -1.7148
  235MOL   H12542713   5.723   3.870   2.487 -0.0933  1.3715  0.2234
  235MOL   H12642714   5.638   4.014   2.539  1.0086  0.5999 -0.0292
  235MOL   H12742715   5.751   3.938   2.652 -0.2528  0.6914  1.0349
  235MOL   C12842716   5.764   3.498   2.641  0.1424 -0.1552 -0.6760
  235MOL   C12942717   5.846   3.451   2.520 -0.4887  0.5867  0.0366
  235MOL   C13042718   5.682   3.381   2.704  0.0539 -0.6184 -0.5736
  235MOL   O13142719   5.561   3.365   2.698  0.4732  0.3890  0.3271
  235MOL   O13242720   5.770   3.294   2.762 -0.6946  0.3887  0.2197
  235MOL   H13342721   5.830   3.530   2.722  0.8978  0.9543 -1.7051
  235MOL   H13442722   5.921   3.376   2.549 -0.7842 -0.5965 -2.1576
  235MOL   H13542723   5.785   3.412   2.438 -2.9332  0.3891  1.8956
  235MOL   H13642724   5.904   3.532   2.477  0.2056  0.5209  0.8300
  235MOL   C13742725   5.727   3.171   2.822 -0.7703 -0.5417  0.1079
  235MOL   C13842726   5.858   3.112   2.882  0.4549 -0.3265 -0.3972
  235MOL   C13942727   5.671   3.073   2.718  0.2189 -0.1790  0.1704
  235MOL   O14042728   5.571   3.009   2.740  0.2437  0.1603 -0.0516
  235MOL   O14142729   5.752   3.061   2.614  0.3378  0.5565 -0.3783
  235MOL   H14242730   5.651   3.188   2.899  2.0262  1.7999  2.4845
  235MOL   H14342731   5.933   3.101   2.804 -1.5226  0.0431 -2.3898
  235MOL   H14442732   5.905   3.179   2.954  1.2272 -1.5653  0.2723
  235MOL   H14542733   5.836   3.016   2.930  0.5695 -0.9726 -1.6356
  235MOL   C14642734   5.722   2.974   2.503  0.0477  0.3508 -0.2331
  235MOL   C14742735   5.839   2.990   2.408  0.3756 -0.1105  0.1764
  235MOL   C14842736   5.592   3.017   2.432 -0.4904  1.1457 -0.7853
  235MOL   O14942737   5.567   3.132   2.417  0.3058  0.0775  0.0717
  235MOL   O15042738   5.541   2.908   2.373 -0.3557  0.6751 -0.6125
  235MOL   H15142739   5.719   2.871   2.539 -1.3559  1.0670  1.8501
  235MOL   H15242740   5.836   2.925   2.321  2.3524  0.1113 -0.0735
  235MOL   H15342741   5.839   3.093   2.372  1.2363  0.8191  2.6829
  235MOL   H15442742   5.934   2.969   2.457  1.3105 -0.4674 -1.7646
  235MOL   C15542743   5.442   2.919   2.269  0.2423 -0.5623 -0.6941
  235MOL   C15642744   5.369   2.786   2.240  0.8088  0.1674  0.3272
  235MOL   C15742745   5.497   2.977   2.135 -0.2387  0.1500 -0.0058
  235MOL   O15842746   5.449   3.076   2.084  0.5954 -0.0695  0.3968
  235MOL   O15942747   5.603   2.909   2.080 -0.1173  0.8744  0.2011
  235MOL   H16042748   5.376   2.997   2.307 -0.5164 -1.5165 -0.0544
  235MOL   H16142749   5.432   2.707   2.199 -2.2320 -2.4835  0.4943
  235MOL   H16242750   5.329   2.742   2.332 -2.3851  0.3807 -0.9092
  235MOL   H16342751   5.279   2.802   2.181  0.0053  1.2273  1.8137
  235MOL   C16442752   5.658   2.973   1.962 -0.1449 -0.3076  0.5008
  235MOL   C16542753   5.738   2.860   1.893  0.2503  0.2395 -0.1431
  235MOL   C16642754   5.750   3.091   2.004  0.2777 -0.8798 -0.1137
  235MOL   O16742755   5.773   3.123   2.120 -0.0322 -0.0330  0.6751
  235MOL   O16842756   5.813   3.146   1.901 -0.8241 -0.2823 -0.4289
  235MOL   H16942757   5.588   3.006   1.886  1.7989  0.7079 -0.8724
  235MOL   H17042758   5.770   2.897   1.796 -2.5259  0.3076 -1.0674
  235MOL   H17142759   5.826   2.837   1.953  0.7962  1.0165 -0.6414
  235MOL   H17242760   5.683   2.769   1.868 -0.7209  0.2405  1.8973
  235MOL   C17342761   5.925   3.234   1.925  0.4861  0.5685  0.6500
  235MOL   C17442762   5.886   3.376   1.955 -0.5594 -0.4009  0.3033
  235MOL   C17542763   6.021   3.221   1.799  0.7110  0.5600 -0.6340
  235MOL   O17642764   6.061   3.321   1.740  0.2262 -0.1563  0.3301
  235MOL   O17742765   6.059   3.094   1.764 -0.0657  0.1156  0.8469
  235MOL   H17842766   5.978   3.205   2.015  0.5331 -0.0223  0.4344
  235MOL   H17942767   5.856   3.395   2.058 -3.3379  2.6788 -0.9682
  235MOL   H18042768   5.973   3.440   1.939 -0.4627 -0.7476 -0.5969
  235MOL   H18142769   5.795   3.413   1.907  0.0787  2.7915  1.3672
  235MOL   H18242770   6.108   3.110   1.684 -1.0481 -1.8544 -0.1767
  236MOL     C142771   5.814   2.293   7.109 -0.5043 -0.1149 -1.2442
  236MOL     C242772   5.672   2.239   7.126 -0.3178 -0.4982 -0.8240
  236MOL     C342773   5.873   2.359   7.234  0.1553  0.7461  0.4698
  236MOL     O442774   5.885   2.484   7.244  0.5407  0.6348 -0.4501
  236MOL     O542775   5.907   2.275   7.326  0.2618  0.0332  0.9985
  236MOL     H642776   5.891   2.219   7.089 -0.0324 -0.2878  1.0278
  236MOL     H742777   5.603   2.243   7.042 -0.2062 -0.7061 -0.9266
  236MOL     H842778   5.680   2.143   7.177 -1.3406  0.9172  2.0870
  236MOL     H942779   5.618   2.297   7.200  1.3733  1.6952 -1.2392
  236MOL    H1042780   5.823   2.365   7.027  1.4087  2.2136  0.9233
  236MOL    C1142781   5.974   2.306   7.445 -0.5357 -0.2560  0.2137
  236MOL    C1242782   6.098   2.211   7.452  0.0677 -0.4887  0.4527
  236MOL    C1342783   5.880   2.287   7.569  0.0308  0.2824  0.5540
  236MOL    O1442784   5.909   2.215   7.665 -0.1650  0.2293 -0.9786
  236MOL    O1542785   5.771   2.357   7.557 -0.1901 -0.4735  0.4687
  236MOL    H1642786   6.014   2.407   7.439  1.4667 -1.1267 -1.7892
  236MOL    H1742787   6.069   2.108   7.473  0.3218 -0.3518  1.5028
  236MOL    H1842788   6.153   2.209   7.357 -0.2561  1.4784  0.2077
  236MOL    H1942789   6.157   2.243   7.538 -0.6116 -2.4921  1.6843
  236MOL    C2042790   5.659   2.352   7.641  0.5478 -0.5298  0.5593
  236MOL    C2142791   5.547   2.279   7.572  0.3553  0.3086  0.6691
  236MOL    C2242792   5.624   2.501   7.687 -0.3529  0.2588 -0.1193
  236MOL    O2342793   5.520   2.555   7.657 -0.2220 -0.4448  0.4697
  236MOL    O2442794   5.728   2.545   7.756  0.0304 -0.1731 -0.5392
  236MOL    H2542795   5.681   2.294   7.731  0.2817  0.4140  1.2476
  236MOL    H2642796   5.524   2.326   7.476  1.7739 -0.7901 -0.2224
  236MOL    H2742797   5.573   2.178   7.541  0.2799  0.7182 -0.7998
  236MOL    H2842798   5.446   2.283   7.615  0.2661 -0.5687  0.5525
  236MOL    C2942799   5.720   2.683   7.808  0.4062  0.6598  0.8726
  236MOL    C3042800   5.864   2.713   7.872  0.5696 -0.4308 -0.1502
  236MOL    C3142801   5.605   2.696   7.909  0.5426 -0.2243 -0.5727
  236MOL    O3242802   5.512   2.776   7.891  0.0833 -0.3544 -0.4857
  236MOL    O3342803   5.629   2.628   8.022  0.2481 -0.1486 -0.0209
  236MOL    H3442804   5.712   2.752   7.725  2.7941 -0.0172  0.0341
  236MOL    H3542805   5.940   2.736   7.798 -0.2401  0.4202 -0.7264
  236MOL    H3642806   5.854   2.804   7.931 -0.2634  0.8464 -2.2215
  236MOL    H3742807   5.898   2.629   7.934 -0.3494  0.6438  1.8408
  236MOL    C3842808   5.574   2.676   0.005 -0.0584 -0.1794  0.3961
  236MOL    C3942809   5.421   2.634   0.019 -0.2873 -0.2992  0.1824
  236MOL    C4042810   5.604   2.825   0.028  0.1680 -0.5566  0.7952
  236MOL    O4142811   5.512   2.904   0.056 -0.0030  0.3105  0.4303
  236MOL    O4242812   5.737   2.859   0.024 -0.1246  0.3744 -0.0238
  236MOL    H4342813   5.626   2.626   0.087 -2.6519 -2.3427  0.7765
  236MOL    H4442814   5.359   2.678   8.089 -0.6889 -0.3466  0.4784
  236MOL    H4542815   5.398   2.528   0.021 -1.6057 -0.0384 -0.5562
  236MOL    H4642816   5.378   2.678   0.109  2.1427  1.8652  0.3471
  236MOL    C4742817   5.785   2.990   0.035 -0.7592  0.4030  0.9508
  236MOL    C4842818   5.781   3.028   0.185  0.1656 -0.4058 -0.6246
  236MOL    C4942819   5.723   3.093   8.089 -0.3077  0.1286 -0.2581
  236MOL    O5042820   5.706   3.208   8.123  0.6969 -0.3613 -0.2324
  236MOL    O5142821   5.709   3.051   7.969 -0.4367 -0.2590  0.3340
  236MOL    H5242822   5.891   2.997   0.012 -0.4975  1.9781  2.5337
  236MOL    H5342823   5.682   3.020   0.230 -0.5358  0.1677 -2.0472
  236MOL    H5442824   5.847   2.958   0.238 -0.7356 -0.7507  0.0490
  236MOL    H5542825   5.828   3.125   0.200  0.1602 -0.9794  3.7475
  236MOL    C5642826   5.655   3.137   7.863 -0.6218 -0.1392 -1.3641
  236MOL    C5742827   5.500   3.126   7.880  0.2507 -0.2799 -0.5607
  236MOL    C5842828   5.709   3.090   7.731 -0.5412 -0.6298  0.5769
  236MOL    O5942829   5.786   2.996   7.719  0.2761  0.2221  0.6468
  236MOL    O6042830   5.659   3.167   7.633  0.3104  0.2180 -0.1308
  236MOL    H6142831   5.681   3.243   7.875  1.5538 -0.8558  0.4604
  236MOL    H6242832   5.441   3.179   7.805  2.2101 -1.5875 -3.0866
  236MOL    H6342833   5.459   3.026   7.895  0.2841 -0.2659 -0.3786
  236MOL    H6442834   5.466   3.165   7.976  0.3975 -0.4044 -0.4565
  236MOL    C6542835   5.655   3.122   7.496  0.0525  0.6248 -0.2325
  236MOL    C6642836   5.608   3.238   7.410 -0.6636 -0.4228 -0.5064
  236MOL    C6742837   5.556   3.004   7.481  0.6431 -0.2356  0.2876
  236MOL    O6842838   5.437   3.006   7.521  0.2426 -0.0199 -0.3050
  236MOL    O6942839   5.615   2.905   7.425 -0.0262 -0.6912 -0.1628
  236MOL    H7042840   5.755   3.085   7.472 -0.2709 -1.0263  0.9122
  236MOL    H7142841   5.587   3.197   7.311 -1.4206  1.7325 -1.2533
  236MOL    H7242842   5.518   3.282   7.452 -0.3893 -0.9667  0.6746
  236MOL    H7342843   5.686   3.311   7.387 -1.2653  0.5841  0.5973
  236MOL    C7442844   5.539   2.799   7.374 -0.4440 -0.4633  0.6468
  236MOL    C7542845   5.638   2.693   7.323  0.0786 -1.2649 -0.3012
  236MOL    C7642846   5.450   2.846   7.254  0.1752  0.3509 -0.1672
  236MOL    O7742847   5.342   2.787   7.227  0.3564 -0.1081  0.2826
  236MOL    O7842848   5.498   2.948   7.184 -0.0948 -0.3906  0.3441
  236MOL    H7942849   5.472   2.757   7.448  0.7940 -0.8528  1.5717
  236MOL    H8042850   5.713   2.735   7.256  1.7108 -0.5099  1.8948
  236MOL    H8142851   5.695   2.650   7.406 -0.7992 -4.0307 -1.0993
  236MOL    H8242852   5.586   2.608   7.280 -2.1001 -1.2558  2.1492
  236MOL    C8342853   5.435   2.982   7.066 -0.2553  0.0630 -0.0451
  236MOL    C8442854   5.536   3.048   6.971 -0.7105 -1.0464  0.4380
  236MOL    C8542855   5.314   3.067   7.094 -0.0638 -0.4438  0.7148
  236MOL    O8642856   5.286   3.121   7.204 -0.1036 -0.1182  0.0228
  236MOL    O8742857   5.254   3.091   6.978 -0.3381 -0.2304  0.0744
  236MOL    H8842858   5.410   2.894   7.005 -2.8611 -0.0008  1.0508
  236MOL    H8942859   5.624   2.986   6.961 -1.1931 -1.6854  0.1010
  236MOL    H9042860   5.501   3.064   6.869 -0.7699 -0.7537  0.5027
  236MOL    H9142861   5.572   3.143   7.009  1.5863 -2.2291  1.2661
  236MOL    C9242862   5.138   3.172   6.967  0.0112  0.1404  0.3711
  236MOL    C9342863   5.124   3.189   6.819  0.2798 -0.1034  0.2398
  236MOL    C9442864   5.155   3.313   7.028 -0.2441  0.2197 -0.9114
  236MOL    O9542865   5.066   3.354   7.098  0.0728  0.3955  0.0202
  236MOL    O9642866   5.268   3.374   6.991  0.1903 -0.2171 -0.7497
  236MOL    H9742867   5.053   3.119   7.010  1.0861 -0.1268  2.2163
  236MOL    H9842868   5.222   3.215   6.779 -0.3727  2.4837  0.2202
  236MOL    H9942869   5.086   3.099   6.770 -0.8608  0.2074  0.5454
  236MOL   H10042870   5.053   3.265   6.786  0.9001 -0.3493 -1.7023
  236MOL   C10142871   5.318   3.489   7.061  0.5504 -0.0263  0.1159
  236MOL   C10242872   5.364   3.453   7.202 -0.2682 -0.0485  0.2317
  236MOL   C10342873   5.221   3.601   7.060 -0.5376  0.1324 -0.4620
  236MOL   O10442874   5.195   3.660   7.162 -0.2256 -0.0673  0.0894
  236MOL   O10542875   5.172   3.617   6.934 -0.4922  0.1332 -0.6444
  236MOL   H10642876   5.407   3.522   7.008  0.8620 -2.7785 -1.1456
  236MOL   H10742877   5.284   3.470   7.274 -1.6800 -1.2173 -1.0039
  236MOL   H10842878   5.411   3.356   7.222  0.9934  0.4211 -0.3839
  236MOL   H10942879   5.440   3.527   7.224  1.1298 -1.3141 -0.1955
  236MOL   C11042880   5.052   3.695   6.913 -0.4302  0.1781  0.7648
  236MOL   C11142881   4.957   3.629   6.809 -0.0495  0.4579 -0.4266
  236MOL   C11242882   5.098   3.841   6.882  0.5280  0.5041 -0.1017
  236MOL   O11342883   5.082   3.930   6.964  0.1075  0.4813  0.2467
  236MOL   O11442884   5.136   3.855   6.751  0.3413 -0.2968 -0.6446
  236MOL   H11542885   4.989   3.703   7.002 -2.4370 -2.8273 -0.3361
  236MOL   H11642886   4.860   3.677   6.811  1.0537  2.7207  0.2425
  236MOL   H11742887   4.993   3.650   6.708 -1.4717  0.7620 -0.8805
  236MOL   H11842888   4.942   3.521   6.818 -0.0792  0.4791 -0.2372
  236MOL   C11942889   5.194   3.979   6.710 -0.3619 -0.2437  0.1789
  236MOL   C12042890   5.178   4.014   6.562 -0.1388  0.2485  0.2226
  236MOL   C12142891   5.347   3.985   6.741  0.1290 -0.4721 -0.6524
  236MOL   O12242892   5.409   3.884   6.769  0.0931  0.8634 -0.0369
  236MOL   O12342893   5.398   4.116   6.725 -0.5192 -0.1164 -0.1555
  236MOL   H12442894   5.157   4.062   6.771  2.5721  2.4849 -1.5864
  236MOL   H12542895   5.072   4.015   6.538 -0.1950 -1.1272  0.3693
  236MOL   H12642896   5.223   4.111   6.539 -2.1490  0.7336 -1.8085
  236MOL   H12742897   5.221   3.936   6.499  0.8928 -0.2612  1.5295
  236MOL   C12842898   5.542   4.130   6.750 -0.6299 -0.7107  0.0027
  236MOL   C12942899   5.568   4.278   6.790  0.2395  0.3608  0.4717
  236MOL   C13042900   5.609   4.093   6.615  0.3593  1.6353  0.1169
  236MOL   O13142901   5.706   4.018   6.607  0.0484  0.3058 -0.2525
  236MOL   O13242902   5.559   4.168   6.516 -0.6180  0.7877  0.2368
  236MOL   H13342903   5.581   4.056   6.820  0.4818 -0.2688 -0.1289
  236MOL   H13442904   5.524   4.285   6.890  1.1112  0.9147  0.8320
  236MOL   H13542905   5.674   4.304   6.800  0.9761 -2.8981  1.7632
  236MOL   H13642906   5.512   4.343   6.723 -1.3635 -0.5081  0.9460
  236MOL   C13742907   5.594   4.135   6.386 -0.7791 -0.4768 -0.3232
  236MOL   C13842908   5.604   4.266   6.312 -0.6728 -0.5398 -0.4453
  236MOL   C13942909   5.491   4.044   6.326 -0.1054  0.3061 -0.6818
  236MOL   O14042910   5.497   3.923   6.351  0.8385 -0.3078  0.4751
  236MOL   O14142911   5.400   4.108   6.245  0.4404  0.2902 -0.5387
  236MOL   H14242912   5.693   4.089   6.383  0.1425  1.4572 -0.4839
  236MOL   H14342913   5.613   4.246   6.205 -0.7604 -1.6900 -0.2432
  236MOL   H14442914   5.525   4.340   6.323 -0.1440 -0.2465  1.5694
  236MOL   H14542915   5.698   4.316   6.338 -0.4409 -0.7030 -0.9694
  236MOL   C14642916   5.323   4.053   6.142  0.0809  0.8255 -0.0459
  236MOL   C14742917   5.208   3.965   6.201 -0.1182 -0.6447 -0.1621
  236MOL   C14842918   5.419   3.977   6.042 -0.0996 -0.4033 -0.2633
  236MOL   O14942919   5.513   4.035   5.985  0.1794 -0.2931  0.2429
  236MOL   O15042920   5.390   3.845   6.028  0.3976  0.7582 -0.6730
  236MOL   H15142921   5.289   4.139   6.084  0.2692 -0.1714 -1.6748
  236MOL   H15242922   5.241   3.871   6.245 -0.2374 -1.4847 -1.8056
  236MOL   H15342923   5.150   4.011   6.281 -0.1202 -1.5788  0.3804
  236MOL   H15442924   5.137   3.945   6.120 -0.5913  1.7108 -0.3783
  236MOL   C15542925   5.481   3.764   5.952  0.1079  0.0333 -0.1693
  236MOL   C15642926   5.399   3.719   5.821  0.8849  0.6861 -0.8665
  236MOL   C15742927   5.520   3.652   6.048  0.7490  0.3194  0.0927
  236MOL   O15842928   5.474   3.535   6.044 -0.1514  0.3088  0.1589
  236MOL   O15942929   5.610   3.695   6.140 -0.1998  0.7584 -0.1140
  236MOL   H16042930   5.577   3.810   5.929  0.1210  0.9615  1.6939
  236MOL   H16142931   5.343   3.810   5.798 -0.9903  0.5252  2.7310
  236MOL   H16242932   5.457   3.684   5.735  3.1093  0.2390  0.7872
  236MOL   H16342933   5.320   3.650   5.849  1.8925 -0.3225 -0.5159
  236MOL   C16442934   5.649   3.600   6.245 -0.2713  0.3144  0.8033
  236MOL   C16542935   5.677   3.668   6.376 -0.5430  0.4246  0.3375
  236MOL   C16642936   5.779   3.534   6.201  0.1085  0.1576 -0.0620
  236MOL   O16742937   5.885   3.555   6.259 -0.2905  0.2175  0.6773
  236MOL   O16842938   5.762   3.433   6.107 -0.1926  0.4581 -0.5270
  236MOL   H16942939   5.579   3.519   6.265 -0.1833 -0.0050 -0.1178
  236MOL   H17042940   5.695   3.593   6.454 -2.7847 -2.2376 -1.5888
  236MOL   H17142941   5.743   3.753   6.361  0.0344 -0.0966 -0.1331
  236MOL   H17242942   5.585   3.706   6.420  0.4369  2.4262  0.7156
  236MOL   C17342943   5.882   3.378   6.046  0.1410 -0.3483  0.3936
  236MOL   C17442944   5.936   3.480   5.939  0.0660 -0.2244 -0.3739
  236MOL   C17542945   5.845   3.243   5.987 -0.3279  0.0505  0.0704
  236MOL   O17642946   5.876   3.219   5.878  0.0308 -0.5592  0.0208
  236MOL   O17742947   5.772   3.152   6.063  0.4960 -0.7732 -0.5448
  236MOL   H17842948   5.961   3.359   6.118  0.0523 -1.4050  0.2266
  236MOL   H17942949   5.855   3.496   5.869  1.8287 -1.5531 -2.8106
  236MOL   H18042950   5.961   3.582   5.967 -0.1885  0.3199 -2.0949
  236MOL   H18142951   6.018   3.432   5.885  2.1267  1.6534  0.9697
  236MOL   H18242952   5.748   3.068   6.027 -1.3855 -1.3043  1.8056
  237MOL     C142953   7.671   6.938   1.737 -0.1503  0.2358  0.2630
  237MOL     C242954   7.720   7.079   1.687 -0.0126 -0.1898  0.3218
  237MOL     C342955   7.538   6.892   1.671  0.0761 -0.0407  0.8966
  237MOL     O442956   7.480   6.961   1.588 -0.5132  0.3647 -0.0035
  237MOL     O542957   7.498   6.776   1.717 -0.7719  0.1537  0.3963
  237MOL     H642958   7.738   6.858   1.705  1.8329  2.0330 -0.1492
  237MOL     H742959   7.661   7.164   1.722 -1.1158 -1.3723  1.4167
  237MOL     H842960   7.819   7.102   1.726 -0.6345  2.0400  0.7130
  237MOL     H942961   7.721   7.078   1.578  2.5093  1.9436  0.2711
  237MOL    H1042962   7.657   6.936   1.845 -1.7533 -0.8652  0.0512
  237MOL    C1142963   7.387   6.705   1.658  0.5856  0.6231 -0.1067
  237MOL    C1242964   7.332   6.594   1.753 -0.7290 -0.2578  0.3350
  237MOL    C1342965   7.441   6.641   1.527  0.3174  0.0091 -0.5655
  237MOL    O1442966   7.398   6.668   1.414  0.0918 -0.6652  0.0318
  237MOL    O1542967   7.541   6.552   1.552 -0.3887  0.0387  0.2630
  237MOL    H1642968   7.307   6.775   1.633 -0.1463  0.2236  1.0985
  237MOL    H1742969   7.250   6.534   1.713 -0.8101  0.7148 -1.0129
  237MOL    H1842970   7.420   6.532   1.767 -0.7168 -0.5075 -0.7550
  237MOL    H1942971   7.302   6.632   1.851 -2.6762  1.7323 -0.9741
  237MOL    C2042972   7.614   6.480   1.449 -0.4036  0.8139 -0.2096
  237MOL    C2142973   7.690   6.360   1.508 -0.3610  0.1985 -0.1978
  237MOL    C2242974   7.713   6.576   1.383  0.0812  0.3602 -0.1006
  237MOL    O2342975   7.775   6.659   1.449  0.7154 -0.4020 -0.7329
  237MOL    O2442976   7.721   6.560   1.255  0.8481 -0.3197  0.3250
  237MOL    H2542977   7.554   6.442   1.366  0.2849 -0.1875 -0.2678
  237MOL    H2642978   7.766   6.394   1.577  0.0684  0.8784 -1.0016
  237MOL    H2742979   7.617   6.308   1.571  1.5057 -0.5842  1.3795
  237MOL    H2842980   7.722   6.299   1.423 -1.1537 -0.6891  0.1308
  237MOL    C2942981   7.820   6.616   1.177 -0.5202  0.7448 -0.3336
  237MOL    C3042982   7.762   6.623   1.038  0.3057 -0.3524 -0.5247
  237MOL    C3142983   7.941   6.523   1.164  0.3994 -0.0129 -0.4266
  237MOL    O3242984   8.053   6.565   1.135  0.3606 -0.7706 -0.0311
  237MOL    O3342985   7.916   6.392   1.183  0.4290  0.2610  0.7622
  237MOL    H3442986   7.849   6.713   1.218 -1.8937  1.2507 -0.5215
  237MOL    H3542987   7.842   6.661   0.974  0.9049 -2.2957 -0.9691
  237MOL    H3642988   7.715   6.532   1.003 -2.4690  0.8330  0.0062
  237MOL    H3742989   7.688   6.702   1.042  0.0051 -0.6400 -0.3998
  237MOL    C3842990   8.018   6.291   1.194  0.3235 -0.1247 -0.1531
  237MOL    C3942991   7.958   6.147   1.172 -0.0367 -0.8165  0.1163
  237MOL    C4042992   8.093   6.304   1.330  0.5403  0.1314 -0.5823
  237MOL    O4142993   8.029   6.305   1.436  0.4320 -0.6882 -0.1134
  237MOL    O4242994   0.084   6.305   1.314 -0.2654 -0.6013 -0.9620
  237MOL    H4342995   8.098   6.307   1.122  0.3704 -0.7872 -0.2513
  237MOL    H4442996   7.904   6.152   1.077  1.1621 -0.3085 -0.5551
  237MOL    H4542997   8.032   6.068   1.160 -0.9716 -1.6118 -0.4470
  237MOL    H4642998   7.897   6.115   1.256 -1.1637 -0.3316 -0.4982
  237MOL    C4742999   0.171   6.327   1.426  0.0332 -0.2372  0.0990
  237MOL    C4843000   0.311   6.384   1.376  1.0496  0.6548 -0.0920
  237MOL    C4943001   0.195   6.193   1.495  1.1473 -0.3416  0.3564
  237MOL    O5043002   0.194   6.086   1.435 -0.2213  0.2567 -0.5112
  237MOL    O5143003   0.218   6.203   1.637 -0.2813 -0.2308 -0.0298
  237MOL    H5243004   0.125   6.394   1.499 -3.5509 -0.3532 -1.9171
  237MOL    H5343005   0.297   6.478   1.323  1.1533  1.8237  1.8893
  237MOL    H5443006   0.370   6.400   1.466  0.5639  0.6994  0.2225
  237MOL    H5543007   0.362   6.306   1.320  0.7743 -1.2982  2.2907
  237MOL    C5643008   0.237   6.082   1.712 -0.2405 -0.1722  0.2052
  237MOL    C5743009   0.371   6.009   1.683  0.2258 -0.4810  1.1135
  237MOL    C5843010   0.101   5.994   1.708 -0.6536 -0.4948 -0.1900
  237MOL    O5943011   0.095   5.876   1.683  0.0528  0.2923  0.4513
  237MOL    O6043012   8.143   6.065   1.744 -0.0544  0.6744  0.5079
  237MOL    H6143013   0.233   6.107   1.818 -0.3487 -0.5557  0.2923
  237MOL    H6243014   0.355   5.966   1.584 -1.9850  4.3128 -0.8051
  237MOL    H6343015   0.458   6.075   1.686  1.3471 -1.7881 -1.3252
  237MOL    H6443016   0.394   5.930   1.754 -1.2765 -1.2852  0.7213
  237MOL    C6543017   8.015   5.998   1.766 -0.3996 -0.0102 -0.6385
  237MOL    C6643018   7.908   6.106   1.738 -0.3485 -0.5329 -0.5772
  237MOL    C6743019   8.006   5.945   1.909  0.1121  0.1389 -0.2755
  237MOL    O6843020   8.110   5.935   1.980 -0.1162 -0.0455  0.5197
  237MOL    O6943021   7.881   5.893   1.938  0.2306 -0.3895 -0.1152
  237MOL    H7043022   8.011   5.912   1.699  1.8678 -0.0341 -0.8043
  237MOL    H7143023   7.925   6.141   1.636  3.0145  1.4521  0.5753
  237MOL    H7243024   7.805   6.072   1.746 -1.0598  1.7101  0.2915
  237MOL    H7343025   7.902   6.181   1.817  0.8813 -2.1145  1.0572
  237MOL    C7443026   7.842   5.842   2.062 -0.2127  0.8092 -0.2016
  237MOL    C7543027   7.686   5.837   2.059  0.1348  0.0091 -0.5454
  237MOL    C7643028   7.899   5.923   2.183  0.4380  0.1514  0.3226
  237MOL    O7743029   7.963   5.873   2.280 -0.0564  0.2388 -0.3738
  237MOL    O7843030   7.860   6.050   2.175 -0.3334  0.1898  0.7982
  237MOL    H7943031   7.883   5.741   2.069  3.4386  1.9331 -3.5267
  237MOL    H8043032   7.635   5.852   2.154 -1.4986 -1.0544 -1.2230
  237MOL    H8143033   7.649   5.924   2.004 -0.3620  0.2591  0.1714
  237MOL    H8243034   7.638   5.748   2.019  1.0897 -0.8563  0.2268
  237MOL    C8343035   7.873   6.144   2.275  0.2621  0.2838  0.4912
  237MOL    C8443036   7.727   6.171   2.319 -0.1771  0.5277 -0.8683
  237MOL    C8543037   7.938   6.270   2.214 -0.5069 -0.3604  0.5862
  237MOL    O8643038   7.872   6.366   2.190  0.4917 -0.5617  0.5512
  237MOL    O8743039   8.061   6.243   2.173 -0.3835 -0.1736 -0.1925
  237MOL    H8843040   7.936   6.106   2.355  0.7602  0.9456  0.4172
  237MOL    H8943041   7.720   6.262   2.378  0.1163  1.6791 -2.5855
  237MOL    H9043042   7.666   6.192   2.231  0.4398 -1.5519 -1.8248
  237MOL    H9143043   7.672   6.086   2.361  1.2728 -0.4280 -0.8537
  237MOL    C9243044   8.119   6.334   2.082 -0.6783 -0.4372  0.5981
  237MOL    C9343045   0.091   6.257   2.032  0.4763 -0.7111 -1.9345
  237MOL    C9443046   0.033   6.461   2.147  0.6686 -0.3674  0.1073
  237MOL    O9543047   0.016   6.569   2.086  0.5711  0.2668  0.1959
  237MOL    O9643048   0.089   6.445   2.271  0.1167  0.0012  0.2801
  237MOL    H9743049   8.052   6.355   1.999  1.1456  1.5655 -0.4191
  237MOL    H9843050   0.078   6.152   2.006 -0.5292 -1.3239  0.8680
  237MOL    H9943051   0.116   6.304   1.937  0.9522  0.9134 -1.0250
  237MOL   H10043052   0.178   6.259   2.097 -0.7819  0.0634 -0.2105
  237MOL   C10143053   0.174   6.549   2.324  0.3639  0.3865  0.2601
  237MOL   C10243054   0.316   6.486   2.340 -0.6469 -0.2999  0.5805
  237MOL   C10343055   0.119   6.602   2.454  0.2812 -0.3993  0.1389
  237MOL   O10443056   0.019   6.551   2.505 -0.5058  0.2444 -0.2497
  237MOL   O10543057   0.184   6.709   2.503  0.2126  0.3946 -0.3259
  237MOL   H10643058   0.170   6.636   2.259 -0.5195 -0.2909 -0.6051
  237MOL   H10743059   0.334   6.434   2.246 -0.3501  2.8025 -1.1453
  237MOL   H10843060   0.393   6.560   2.361 -0.6920 -0.0516 -0.1169
  237MOL   H10943061   0.313   6.427   2.431  0.4865  0.2695  0.9854
  237MOL   C11043062   0.141   6.777   2.614  0.1691 -0.7504 -0.0669
  237MOL   C11143063   0.204   6.918   2.590  0.5207  0.7782 -0.1228
  237MOL   C11243064   0.199   6.711   2.737  0.2264 -0.3367  0.2593
  237MOL   O11343065   0.124   6.650   2.821 -0.3145 -0.7264  0.1680
  237MOL   O11443066   0.339   6.714   2.749  0.1756 -0.0486 -0.1565
  237MOL   H11543067   0.034   6.787   2.631  0.4756  2.0008  0.5488
  237MOL   H11643068   0.312   6.911   2.575  0.7107 -0.1539  1.5974
  237MOL   H11743069   0.162   6.970   2.504  0.6035  3.1163  1.1920
  237MOL   H11843070   0.191   6.986   2.674 -0.0686  0.3039  0.1739
  237MOL   C11943071   0.399   6.643   2.851  0.4746  0.0914 -0.9945
  237MOL   C12043072   0.532   6.719   2.893 -0.4600  0.2309  0.4111
  237MOL   C12143073   0.416   6.496   2.801 -0.3371  0.3876  0.1674
  237MOL   O12243074   0.405   6.472   2.682 -0.0300 -0.4452  0.3940
  237MOL   O12343075   0.434   6.399   2.894 -0.0628 -0.2997  0.2218
  237MOL   H12443076   0.337   6.647   2.940 -1.9576 -3.1313 -2.4236
  237MOL   H12543077   0.566   6.677   2.988  1.6414  0.0404 -0.4111
  237MOL   H12643078   0.615   6.726   2.823 -1.8603 -0.7083 -1.3776
  237MOL   H12743079   0.505   6.824   2.905 -1.1726 -0.0010  0.9205
  237MOL   C12843080   0.427   6.263   2.865 -0.4168 -0.4346  0.7285
  237MOL   C12943081   0.454   6.199   2.998 -0.2060  0.3960  0.3789
  237MOL   C13043082   0.535   6.223   2.759  0.1849 -0.1152  0.0905
  237MOL   O13143083   0.656   6.267   2.763  0.1847  0.2727 -0.1890
  237MOL   O13243084   0.490   6.141   2.670 -0.3638 -0.6306  0.5098
  237MOL   H13343085   0.332   6.220   2.831  0.1216  0.3187 -1.7473
  237MOL   H13443086   0.371   6.203   3.069 -1.1009  1.5090 -0.7123
  237MOL   H13543087   0.468   6.091   2.989  1.0321  0.6121 -0.4601
  237MOL   H13643088   0.550   6.227   3.043 -1.4040  0.9112  2.7237
  237MOL   C13743089   0.581   6.092   2.577  0.3690  0.2352 -0.2936
  237MOL   C13843090   0.497   6.057   2.452 -0.0992 -0.1444 -0.9466
  237MOL   C13943091   0.674   5.982   2.635 -0.2078 -0.2630 -0.3943
  237MOL   O14043092   0.773   5.951   2.570 -0.3526 -0.1310  0.5472
  237MOL   O14143093   0.638   5.932   2.753  0.1349 -0.2344  0.0425
  237MOL   H14243094   0.646   6.173   2.543  2.4079 -1.1042  0.3137
  237MOL   H14343095   0.430   5.973   2.469  1.3061 -0.4551  3.8498
  237MOL   H14443096   0.439   6.144   2.420  1.4826  0.8235 -1.2420
  237MOL   H14543097   0.574   6.033   2.378  0.3498  1.5493 -1.0547
  237MOL   C14643098   0.719   5.843   2.829  0.4377 -0.3377  1.3553
  237MOL   C14743099   0.633   5.736   2.894 -0.2357 -0.2633  0.5839
  237MOL   C14843100   0.785   5.933   2.936  0.2240  0.0319  0.4049
  237MOL   O14943101   0.722   5.979   3.031  0.0981  0.0378  0.4304
  237MOL   O15043102   0.907   5.972   2.897  0.0778  0.7513  0.6569
  237MOL   H15143103   0.798   5.798   2.769 -1.1126 -2.0303  0.5563
  237MOL   H15243104   0.600   5.662   2.821  0.1699  0.0284  0.0955
  237MOL   H15343105   0.691   5.689   2.973 -1.3807 -0.6423  1.2087
  237MOL   H15443106   0.551   5.785   2.947 -0.3442  1.2120 -0.8935
  237MOL   C15543107   0.974   6.080   2.960 -0.6167  0.1442 -0.3242
  237MOL   C15643108   0.990   6.190   2.859  0.4012  0.2875 -0.6159
  237MOL   C15743109   1.111   6.032   3.002 -0.1300 -0.3017  0.8228
  237MOL   O15843110   1.145   6.026   3.120 -0.0127  0.2092 -0.0743
  237MOL   O15943111   1.183   5.977   2.903  0.6667  0.3114 -0.0455
  237MOL   H16043112   0.918   6.114   3.047 -0.7752 -0.8253 -0.0408
  237MOL   H16143113   1.029   6.282   2.904  0.3532 -0.2507  0.5536
  237MOL   H16243114   1.050   6.158   2.774  1.4133  1.1986 -0.2603
  237MOL   H16343115   0.896   6.216   2.811 -0.6492 -1.2492  0.5616
  237MOL   C16443116   1.301   5.899   2.933 -0.6033 -0.0646 -0.6156
  237MOL   C16543117   1.392   5.958   2.822  0.3289  0.8588 -0.2054
  237MOL   C16643118   1.267   5.758   2.901 -0.8828 -0.2993  0.1367
  237MOL   O16743119   1.355   5.695   2.835  0.2201  0.3167  0.1342
  237MOL   O16843120   1.152   5.711   2.954  0.1409  0.2343  0.4101
  237MOL   H16943121   1.347   5.919   3.029 -0.6986  1.8095 -0.9471
  237MOL   H17043122   1.350   5.954   2.721 -0.0414  0.1670 -0.0234
  237MOL   H17143123   1.407   6.064   2.844 -0.8684  0.9106  0.4093
  237MOL   H17243124   1.487   5.905   2.827 -0.0189  0.3100  0.7985
  237MOL   C17343125   1.108   5.580   2.915  0.2686 -0.5036  0.0156
  237MOL   C17443126   0.982   5.585   2.821 -0.1183  0.0159 -0.0203
  237MOL   C17543127   1.078   5.499   3.040 -0.0848 -0.6587  0.8953
  237MOL   O17643128   0.972   5.448   3.077  0.2712 -0.5490 -0.4156
  237MOL   O17743129   1.186   5.480   3.122  0.2693 -0.2855 -0.4454
  237MOL   H17843130   1.187   5.527   2.862  1.8008  0.1288  1.6248
  237MOL   H17943131   0.954   5.485   2.789  0.7762 -0.4636  0.6873
  237MOL   H18043132   0.896   5.622   2.877  0.4498 -0.6983  1.3424
  237MOL   H18143133   1.005   5.648   2.735 -1.5048  0.5030 -0.0513
  237MOL   H18243134   1.155   5.434   3.199  0.9218  0.8723  0.5127
  238MOL     C143135   1.377   3.894   3.306 -0.2786  0.0058  0.0990
  238MOL     C243136   1.431   3.808   3.184 -0.2591  0.2002 -0.0930
  238MOL     C343137   1.496   3.918   3.390  0.1251 -0.2852 -0.2608
  238MOL     O443138   1.503   3.863   3.499  0.1256  0.4160 -0.0424
  238MOL     O543139   1.593   3.990   3.332 -0.0103  0.2855  0.4055
  238MOL     H643140   1.324   3.986   3.284 -1.4617 -0.6241  0.2517
  238MOL     H743141   1.344   3.760   3.138 -1.4605  0.6105  1.6975
  238MOL     H843142   1.483   3.872   3.114  1.3966 -1.0019  0.0120
  238MOL     H943143   1.500   3.728   3.212  2.1781  2.1705 -0.3031
  238MOL    H1043144   1.292   3.841   3.350  0.2895 -0.7910  0.2542
  238MOL    C1143145   1.726   4.015   3.374 -0.0559 -0.2759 -0.8530
  238MOL    C1243146   1.796   4.120   3.283 -0.0263  0.3217 -0.0896
  238MOL    C1343147   1.796   3.881   3.385 -0.0022  0.1518  0.2629
  238MOL    O1443148   1.857   3.844   3.484 -0.9053 -0.0569  0.1391
  238MOL    O1543149   1.779   3.806   3.273  0.3870  0.2353 -0.1268
  238MOL    H1643150   1.703   4.053   3.474  0.2821 -3.1858  0.3897
  238MOL    H1743151   1.737   4.211   3.285  0.1191  0.3924  0.8247
  238MOL    H1843152   1.887   4.169   3.316  0.7358  1.0994 -3.1693
  238MOL    H1943153   1.793   4.085   3.179 -0.5603  3.0942 -1.0516
  238MOL    C2043154   1.827   3.668   3.252 -0.5136 -1.4267  0.3439
  238MOL    C2143155   1.825   3.661   3.099  0.1860 -0.5577 -0.4602
  238MOL    C2243156   1.749   3.562   3.316 -0.0973 -0.0269 -0.5642
  238MOL    O2343157   1.671   3.492   3.257  0.0803  0.0114  0.1219
  238MOL    O2443158   1.763   3.563   3.446  0.1141 -0.6864 -0.3424
  238MOL    H2543159   1.925   3.668   3.299 -0.0982 -0.8260 -0.5148
  238MOL    H2643160   1.909   3.703   3.045  0.3045 -0.4655 -0.2067
  238MOL    H2743161   1.804   3.562   3.057  0.6293 -1.1132  0.5876
  238MOL    H2843162   1.735   3.713   3.069  0.1383  1.1452  2.4095
  238MOL    C2943163   1.689   3.472   3.530 -0.0498  0.5760  0.2304
  238MOL    C3043164   1.646   3.545   3.656 -0.3315 -0.4353  0.3219
  238MOL    C3143165   1.796   3.366   3.563  0.0154  0.2820  0.0546
  238MOL    O3243166   1.857   3.366   3.676  0.4388 -0.5460  0.6109
  238MOL    O3343167   1.819   3.270   3.468  0.2849 -0.1483  0.1601
  238MOL    H3443168   1.598   3.429   3.489  0.8746  0.1367 -1.4559
  238MOL    H3543169   1.737   3.591   3.694 -0.0560  0.3087 -1.1895
  238MOL    H3643170   1.568   3.619   3.639  0.3177  0.1440 -0.1877
  238MOL    H3743171   1.611   3.472   3.729  1.4522 -0.3504  1.2935
  238MOL    C3843172   1.900   3.157   3.483  0.0821  0.5680 -0.0230
  238MOL    C3943173   1.854   3.047   3.575 -0.2315  0.2567  0.2789
  238MOL    C4043174   2.043   3.209   3.501  0.3795 -0.0478 -0.2493
  238MOL    O4143175   2.087   3.305   3.433 -0.1858  0.3108 -0.3552
  238MOL    O4243176   2.115   3.129   3.588  0.1552  0.2959 -0.3614
  238MOL    H4343177   1.900   3.111   3.384  0.4636  0.4140  0.0478
  238MOL    H4443178   1.918   2.958   3.566  1.5690  1.0887  4.0807
  238MOL    H4543179   1.853   3.065   3.682  0.0658  1.1839  0.1290
  238MOL    H4643180   1.760   2.999   3.546  0.5971 -1.0011 -0.3939
  238MOL    C4743181   2.251   3.153   3.628  0.0490 -0.4737  0.2701
  238MOL    C4843182   2.307   3.019   3.676 -0.0221  0.8581 -0.4353
  238MOL    C4943183   2.264   3.261   3.734  0.2492 -0.2108 -0.1064
  238MOL    O5043184   2.165   3.301   3.794 -0.3275  0.0074 -0.1488
  238MOL    O5143185   2.392   3.301   3.747  0.5512 -0.0083  0.1891
  238MOL    H5243186   2.310   3.193   3.545  1.0212 -0.8601  0.7642
  238MOL    H5343187   2.304   2.939   3.603  2.0993 -0.6249  1.0335
  238MOL    H5443188   2.414   3.026   3.697  0.0241 -1.1913  0.0743
  238MOL    H5543189   2.261   2.981   3.768  1.7056 -2.3147 -0.8151
  238MOL    C5643190   2.436   3.408   3.837  0.0739 -0.0698 -0.7913
  238MOL    C5743191   2.584   3.424   3.820 -1.1836  0.1059  0.8317
  238MOL    C5843192   2.406   3.356   3.986  0.4628 -0.8837 -0.0143
  238MOL    O5943193   2.392   3.435   4.074 -0.3163  0.3564 -0.4174
  238MOL    O6043194   2.406   3.222   3.994  0.7220 -0.2016 -0.3455
  238MOL    H6143195   2.384   3.498   3.806 -1.0446 -0.0226  1.0986
  238MOL    H6243196   2.642   3.339   3.856 -0.6409  0.1710  0.1279
  238MOL    H6343197   2.616   3.444   3.718  1.1153 -1.1802  1.2605
  238MOL    H6443198   2.623   3.508   3.876 -1.3514  2.2920 -2.2136
  238MOL    C6543199   2.398   3.148   4.115  0.1909 -0.7520 -0.1099
  238MOL    C6643200   2.256   3.156   4.168 -0.1194  0.0119 -0.7261
  238MOL    C6743201   2.507   3.193   4.213 -0.4579  0.9875 -0.5790
  238MOL    O6843202   2.485   3.216   4.334 -0.1862  0.2342 -0.4528
  238MOL    O6943203   2.624   3.208   4.157 -0.2756  0.1313  0.6547
  238MOL    H7043204   2.421   3.044   4.090  0.1948 -1.0294  1.0469
  238MOL    H7143205   2.182   3.112   4.101 -0.3134  0.2977 -0.7015
  238MOL    H7243206   2.247   3.102   4.262 -1.3598 -0.6686 -1.2178
  238MOL    H7343207   2.225   3.259   4.186 -0.9711 -0.2585 -0.6086
  238MOL    C7443208   2.735   3.270   4.227  0.2620  0.1695 -0.2002
  238MOL    C7543209   2.717   3.423   4.213  0.5493  0.2520  0.1924
  238MOL    C7643210   2.860   3.219   4.153 -0.8882 -1.2256  0.5732
  238MOL    O7743211   2.865   3.212   4.032 -0.3810 -0.1715 -0.6077
  238MOL    O7843212   2.962   3.172   4.235 -0.3456 -0.6431  0.3685
  238MOL    H7943213   2.738   3.234   4.330 -1.6984  3.3661  1.0395
  238MOL    H8043214   2.690   3.458   4.114  0.1868  0.0650  0.2247
  238MOL    H8143215   2.635   3.462   4.274 -0.3509 -1.8300  0.3602
  238MOL    H8243216   2.812   3.470   4.240 -0.1986  2.1877 -0.4958
  238MOL    C8343217   3.093   3.153   4.182  0.4742 -0.0101  0.3250
  238MOL    C8443218   3.166   3.088   4.293  1.1191 -0.1433  0.4234
  238MOL    C8543219   3.165   3.278   4.132  0.5428 -0.6551  0.1970
  238MOL    O8643220   3.134   3.387   4.166 -0.1384 -0.2673 -0.2598
  238MOL    O8743221   3.266   3.249   4.054 -0.0212 -0.2596  0.4407
  238MOL    H8843222   3.088   3.083   4.098  0.8665 -4.0987  3.5184
  238MOL    H8943223   3.194   3.169   4.360  1.4007  0.4737 -0.4431
  238MOL    H9043224   3.102   3.015   4.345 -1.5070  0.7265 -1.4709
  238MOL    H9143225   3.259   3.049   4.254  1.3456  0.6778  0.1373
  238MOL    C9243226   3.344   3.353   3.999 -0.7286  0.5420  0.0212
  238MOL    C9343227   3.414   3.306   3.869  0.1685 -0.1822  0.4693
  238MOL    C9443228   3.452   3.405   4.095 -0.1168 -0.2032  0.5440
  238MOL    O9543229   3.518   3.334   4.169  0.0811  0.6924 -0.4288
  238MOL    O9643230   3.487   3.535   4.071  0.2318  0.5484  0.6513
  238MOL    H9743231   3.292   3.445   3.971 -1.6076  0.2710  0.7524
  238MOL    H9843232   3.471   3.213   3.883  0.9209  0.4606  1.7923
  238MOL    H9943233   3.349   3.271   3.789  0.9816 -0.5677 -0.0228
  238MOL   H10043234   3.474   3.382   3.821 -0.0945 -0.7285 -0.7366
  238MOL   C10143235   3.600   3.589   4.130 -0.2602 -0.2857  0.2743
  238MOL   C10243236   3.591   3.744   4.131  0.2654 -0.1979  0.0686
  238MOL   C10343237   3.729   3.540   4.050 -0.0852 -0.7270 -0.6265
  238MOL   O10443238   3.790   3.439   4.093  0.4045  0.0444 -0.8147
  238MOL   O10543239   3.755   3.595   3.932  0.2718  0.4408 -0.5326
  238MOL   H10643240   3.591   3.555   4.233  1.1367 -0.4950  0.3387
  238MOL   H10743241   3.672   3.780   4.194 -0.4416  1.6015 -0.0385
  238MOL   H10843242   3.610   3.782   4.031  0.0860 -1.8411 -0.6053
  238MOL   H10943243   3.490   3.773   4.159  0.4713 -1.0524  1.7645
  238MOL   C11043244   3.860   3.550   3.856 -0.5422 -0.4910  0.4525
  238MOL   C11143245   3.927   3.680   3.820 -0.1420 -0.0706  0.3493
  238MOL   C11243246   3.815   3.490   3.730  0.0915  1.0557  0.4244
  238MOL   O11343247   3.696   3.496   3.690  0.7068 -0.2343  0.1244
  238MOL   O11443248   3.920   3.429   3.660 -0.8890 -0.4006  0.4081
  238MOL   H11543249   3.930   3.479   3.902  0.4223 -1.1561 -1.9319
  238MOL   H11643250   3.873   3.734   3.742 -0.7918 -0.5922  0.4290
  238MOL   H11743251   3.938   3.760   3.892 -2.2289  1.4095 -0.9228
  238MOL   H11843252   4.021   3.653   3.772 -0.7011 -0.4777 -0.5401
  238MOL   C11943253   3.918   3.388   3.524  0.4533  1.0636  0.9691
  238MOL   C12043254   4.039   3.291   3.505 -0.1007 -0.6383 -0.6724
  238MOL   C12143255   3.922   3.504   3.428 -0.2453  0.8670  0.8444
  238MOL   O12243256   3.959   3.618   3.459  0.7396 -0.4973  0.0096
  238MOL   O12343257   3.882   3.469   3.302  0.6010  0.0261  0.0524
  238MOL   H12443258   3.830   3.329   3.500  1.6613  0.4129 -2.0686
  238MOL   H12543259   4.009   3.191   3.537 -0.6697 -0.7670 -1.5729
  238MOL   H12643260   4.075   3.274   3.403  2.1702 -0.7100  0.1164
  238MOL   H12743261   4.127   3.340   3.546 -1.3991  1.4709 -0.3207
  238MOL   C12843262   3.893   3.564   3.197 -0.0326  0.0681  0.2220
  238MOL   C12943263   3.817   3.515   3.078 -0.4079  0.5245  0.3578
  238MOL   C13043264   4.042   3.571   3.157 -0.1512 -0.4917  0.2174
  238MOL   O13143265   4.104   3.677   3.152 -0.3022 -0.0230 -0.0996
  238MOL   O13243266   4.098   3.446   3.133 -0.0154 -0.4662 -0.4752
  238MOL   H13343267   3.857   3.659   3.235 -0.1479 -0.9026  2.6066
  238MOL   H13443268   3.835   3.411   3.049 -0.9645  0.9724 -1.7270
  238MOL   H13543269   3.710   3.521   3.097 -0.2276  2.0930  0.9133
  238MOL   H13643270   3.839   3.577   2.990 -0.5141 -0.6025 -0.4812
  238MOL   C13743271   4.235   3.423   3.097  0.5182  1.0910  0.3820
  238MOL   C13843272   4.243   3.445   2.943 -0.2017 -0.3684 -0.3254
  238MOL   C13943273   4.286   3.287   3.135  0.2472  0.5237  0.3301
  238MOL   O14043274   4.207   3.188   3.153 -0.4609 -0.5297  0.0960
  238MOL   O14143275   4.421   3.290   3.171  0.0881 -0.4240 -0.1678
  238MOL   H14243276   4.295   3.496   3.151  0.8149  0.9701  0.2152
  238MOL   H14343277   4.213   3.542   2.904 -2.6377 -1.4047 -1.1470
  238MOL   H14443278   4.344   3.417   2.914  0.5827  0.0040  1.9805
  238MOL   H14543279   4.181   3.368   2.896 -1.0784 -0.2005  0.5450
  238MOL   C14643280   4.484   3.170   3.211  0.2782 -0.3345 -0.5253
  238MOL   C14743281   4.610   3.210   3.277 -0.3041  0.2125 -0.3621
  238MOL   C14843282   4.515   3.073   3.094  0.1603  0.0188  0.1930
  238MOL   O14943283   4.487   2.958   3.113 -0.0232 -0.2022  0.0132
  238MOL   O15043284   4.588   3.115   2.986 -0.2226  0.1258  0.0610
  238MOL   H15143285   4.418   3.129   3.288 -0.8204  4.1805  1.0899
  238MOL   H15243286   4.688   3.234   3.204 -1.1787 -0.0702 -1.4039
  238MOL   H15343287   4.585   3.293   3.343 -2.8139  0.4562 -1.5547
  238MOL   H15443288   4.647   3.140   3.352 -1.2977  1.1109  0.9862
  238MOL   C15543289   4.624   3.025   2.881  0.5531 -0.8646  0.3802
  238MOL   C15643290   4.773   3.031   2.895 -0.4024 -0.1608 -0.6170
  238MOL   C15743291   4.580   3.073   2.739 -0.3241  0.0648 -0.3080
  238MOL   O15843292   4.657   3.063   2.644 -0.2121  0.0476 -0.1911
  238MOL   O15943293   4.455   3.124   2.736 -0.8329  0.0217  0.5929
  238MOL   H16043294   4.595   2.920   2.893 -0.7018 -0.7239 -1.2093
  238MOL   H16143295   4.806   3.033   2.999  0.0998 -2.8096 -0.6893
  238MOL   H16243296   4.827   2.947   2.850  1.0513  0.3335  0.1560
  238MOL   H16343297   4.811   3.123   2.849 -0.1679 -0.1148 -0.3281
  238MOL   C16443298   4.392   3.187   2.624  0.6108  0.4811 -0.4481
  238MOL   C16543299   4.350   3.091   2.509  0.3404  0.1676  0.1015
  238MOL   C16643300   4.469   3.313   2.575  0.4355  0.2499 -0.0546
  238MOL   O16743301   4.491   3.328   2.453 -0.0853  0.1407 -0.1693
  238MOL   O16843302   4.504   3.398   2.678 -0.0809 -0.2452 -0.3920
  238MOL   H16943303   4.301   3.228   2.669 -0.1450  0.6833 -2.1025
  238MOL   H17043304   4.270   3.021   2.530 -0.9318  1.0409 -1.6528
  238MOL   H17143305   4.324   3.151   2.421  0.3289 -2.5038 -1.7850
  238MOL   H17243306   4.432   3.029   2.473  0.8403  0.1910  1.2005
  238MOL   C17343307   4.561   3.520   2.634 -0.4840 -0.3517 -0.5402
  238MOL   C17443308   4.652   3.567   2.741 -0.1869  0.1804 -0.2787
  238MOL   C17543309   4.438   3.620   2.621  0.2670  0.0701  0.0678
  238MOL   O17643310   4.321   3.594   2.642  0.0401  0.1549 -0.0821
  238MOL   O17743311   4.486   3.742   2.591 -0.5762  0.1472 -0.3695
  238MOL   H17843312   4.603   3.524   2.534 -1.3964  2.0663 -0.8566
  238MOL   H17943313   4.712   3.654   2.713  1.2437 -0.6594  0.1313
  238MOL   H18043314   4.592   3.599   2.827 -0.4640  1.4001 -0.9094
  238MOL   H18143315   4.721   3.486   2.763 -0.3776 -0.3887 -1.7328
  238MOL   H18243316   4.416   3.804   2.604 -0.6198  0.4613 -1.9178
  239MOL     C143317   4.910   1.226   4.718 -0.5925 -0.5329  0.5217
  239MOL     C243318   4.961   1.252   4.865 -0.1094  0.0507  0.2141
  239MOL     C343319   4.821   1.336   4.668  0.0445 -0.5132 -0.8472
  239MOL     O443320   4.761   1.414   4.740 -0.4268  0.4150 -0.2354
  239MOL     O543321   4.822   1.336   4.527 -0.0213  0.7052 -0.3627
  239MOL     H643322   4.996   1.216   4.652 -0.3175 -0.3584  0.8548
  239MOL     H743323   4.904   1.205   4.945  0.6572 -1.7041 -0.2588
  239MOL     H843324   5.059   1.205   4.881 -0.6620 -1.5777 -1.0826
  239MOL     H943325   4.975   1.358   4.889 -0.9921  0.4000 -0.7757
  239MOL    H1043326   4.846   1.137   4.720  0.7747 -1.5524  0.0483
  239MOL    C1143327   4.755   1.442   4.450  0.6710 -0.0647 -0.8667
  239MOL    C1243328   4.795   1.582   4.503  0.0110  0.0555 -0.6694
  239MOL    C1343329   4.602   1.425   4.447 -0.2471 -0.1986  0.1590
  239MOL    O1443330   4.541   1.350   4.518  0.3364 -0.1086 -0.4512
  239MOL    O1543331   4.548   1.483   4.338 -0.2264 -0.9249  0.0738
  239MOL    H1643332   4.787   1.433   4.346  1.9828  1.2795 -0.5913
  239MOL    H1743333   4.793   1.651   4.419  1.0195  0.9284  0.0136
  239MOL    H1843334   4.723   1.616   4.578 -0.4035  0.5756 -1.3002
  239MOL    H1943335   4.888   1.574   4.559  0.0034 -0.7755 -0.7760
  239MOL    C2043336   4.405   1.506   4.319  0.6346  0.0556 -0.3271
  239MOL    C2143337   4.360   1.627   4.404  0.0708  0.5319 -0.2885
  239MOL    C2243338   4.319   1.375   4.330  0.4584 -0.3831 -0.1362
  239MOL    O2343339   4.227   1.360   4.411 -0.7894 -0.8171  0.6777
  239MOL    O2443340   4.346   1.289   4.232  0.1330 -0.1663 -0.0061
  239MOL    H2543341   4.392   1.540   4.216 -2.6625  1.4872  0.4877
  239MOL    H2643342   4.420   1.712   4.371  1.4757 -0.4422 -0.3034
  239MOL    H2743343   4.260   1.650   4.368  1.3576  2.5277 -2.7602
  239MOL    H2843344   4.372   1.604   4.510 -1.8590  1.8824  0.2532
  239MOL    C2943345   4.288   1.157   4.233 -0.1019  0.5887 -0.3572
  239MOL    C3043346   4.352   1.073   4.341 -0.3800 -0.8725  0.0149
  239MOL    C3143347   4.293   1.101   4.092 -0.0340  0.0718 -0.2327
  239MOL    O3243348   4.356   1.151   4.000 -0.1550  0.2811  0.1428
  239MOL    O3343349   4.215   0.988   4.079 -0.1393  0.0229  0.2963
  239MOL    H3443350   4.185   1.165   4.266  0.1183  1.2823  0.1805
  239MOL    H3543351   4.454   1.052   4.308  0.2080  0.2453  1.0743
  239MOL    H3643352   4.340   1.116   4.440 -0.0839  1.3009 -0.8574
  239MOL    H3743353   4.298   0.979   4.347 -1.2384 -0.4594 -1.0288
  239MOL    C3843354   4.225   0.903   3.967 -0.6331 -0.3586 -0.1392
  239MOL    C3943355   4.161   0.957   3.836  0.4108  0.9832  0.8076
  239MOL    C4043356   4.168   0.767   4.008  0.4231 -0.1097 -0.4976
  239MOL    O4143357   4.078   0.710   3.947  0.0369 -0.0488 -0.0426
  239MOL    O4243358   4.211   0.724   4.123 -0.0753  0.1824  0.0924
  239MOL    H4343359   4.332   0.888   3.960 -0.5514 -1.6938  3.1739
  239MOL    H4443360   4.152   1.065   3.824  1.8276  1.0034 -0.1534
  239MOL    H4543361   4.221   0.926   3.750 -0.2714 -1.1420  1.0753
  239MOL    H4643362   4.058   0.920   3.833  0.3802  1.0794  0.6518
  239MOL    C4743363   4.174   0.587   4.167  0.3284 -0.0424  0.0098
  239MOL    C4843364   4.034   0.585   4.237  0.2242  0.4286 -0.8567
  239MOL    C4943365   4.285   0.544   4.258 -1.0239 -1.0086  0.3675
  239MOL    O5043366   4.344   0.443   4.237 -0.4006  0.0943  0.5369
  239MOL    O5143367   4.316   0.641   4.353 -0.3916 -0.1335 -0.0453
  239MOL    H5243368   4.178   0.520   4.081 -0.1877  0.1830 -0.1911
  239MOL    H5343369   3.952   0.624   4.176  0.1154  0.9669 -0.3762
  239MOL    H5443370   4.009   0.487   4.277  0.5794  1.3921  1.8668
  239MOL    H5543371   4.049   0.646   4.326  0.1902 -1.3135  0.3700
  239MOL    C5643372   4.434   0.635   4.438  0.6667 -0.9642 -0.1172
  239MOL    C5743373   4.426   0.745   4.542 -0.6645 -0.1133 -0.5339
  239MOL    C5843374   4.565   0.646   4.357 -0.0716  0.2691  0.2928
  239MOL    O5943375   4.668   0.602   4.408 -0.4779 -0.0287  0.1782
  239MOL    O6043376   4.554   0.706   4.237 -0.2208 -0.5345  0.6334
  239MOL    H6143377   4.428   0.540   4.491 -1.3591 -0.8786 -0.1415
  239MOL    H6243378   4.459   0.841   4.504  1.9774 -1.3980 -1.6007
  239MOL    H6343379   4.327   0.751   4.587 -1.6347 -1.4347 -2.4100
  239MOL    H6443380   4.488   0.723   4.629 -1.8053 -1.4717 -0.0346
  239MOL    C6543381   4.657   0.702   4.144 -0.1963  0.4432 -0.2811
  239MOL    C6643382   4.649   0.833   4.067  0.2133  0.5881 -0.4378
  239MOL    C6743383   4.656   0.577   4.050 -0.3319  0.8343  0.7870
  239MOL    O6843384   4.659   0.590   3.931  0.0136 -0.3748 -0.2288
  239MOL    O6943385   4.663   0.461   4.112  0.0389 -0.3030  0.0958
  239MOL    H7043386   4.749   0.693   4.201 -1.4550 -1.0872  1.5977
  239MOL    H7143387   4.628   0.914   4.137 -0.6771  0.9661 -1.1334
  239MOL    H7243388   4.748   0.845   4.023  0.6511  0.5532  0.5221
  239MOL    H7343389   4.572   0.833   3.990  0.6437  0.9323 -0.8669
  239MOL    C7443390   4.699   0.342   4.040  0.0255  0.4182  0.0650
  239MOL    C7543391   4.577   0.275   3.988 -0.1215 -0.1604 -0.1440
  239MOL    C7643392   4.769   0.256   4.146 -0.1538  0.4615  0.4818
  239MOL    O7743393   4.736   0.140   4.173  0.4559 -0.0508  0.0750
  239MOL    O7843394   4.870   0.316   4.202  0.5027  0.1966  0.3705
  239MOL    H7943395   4.767   0.364   3.958 -0.0193 -1.3143 -0.4663
  239MOL    H8043396   4.594   0.173   3.953 -0.3701 -0.3811  0.3676
  239MOL    H8143397   4.498   0.278   4.063  0.8970 -0.1701  0.9566
  239MOL    H8243398   4.535   0.323   3.900  0.5839  0.1626 -0.3050
  239MOL    C8343399   4.947   0.258   4.307 -0.4326 -0.0637 -0.4191
  239MOL    C8443400   4.975   0.377   4.407  0.5041 -0.1075 -0.5579
  239MOL    C8543401   5.069   0.193   4.235  0.1505  0.0531 -0.3533
  239MOL    O8643402   5.097   0.081   4.270 -0.2446 -0.1822 -0.3761
  239MOL    O8743403   5.137   0.267   4.148 -0.1066 -0.3412  0.1927
  239MOL    H8843404   4.892   0.179   4.357  2.7634 -2.1415 -0.0605
  239MOL    H8943405   4.981   0.474   4.358 -0.7108  0.1513 -0.2218
  239MOL    H9043406   4.893   0.390   4.477 -0.0888 -1.2462 -1.0238
  239MOL    H9143407   5.066   0.373   4.467  0.9022  2.7498 -0.8748
  239MOL    C9243408   5.214   0.217   4.037  0.4055 -0.7127  0.2182
  239MOL    C9343409   5.300   0.335   3.993  0.0363 -0.1208 -0.1173
  239MOL    C9443410   5.119   0.165   3.929  0.2672  0.0572  0.6888
  239MOL    O9543411   4.998   0.156   3.943  0.3579 -0.3743 -0.5323
  239MOL    O9643412   5.184   0.133   3.810 -0.0800  0.0194 -0.2750
  239MOL    H9743413   5.278   0.137   4.074  2.0502  0.2230 -0.4974
  239MOL    H9843414   5.372   0.290   3.925  0.7554  2.6114 -1.2058
  239MOL    H9943415   5.253   0.404   3.923 -0.1847 -0.1687 -0.0147
  239MOL   H10043416   5.351   0.391   4.072  1.2112  0.1796 -1.0726
  239MOL   C10143417   5.125   0.102   3.687  0.7182  0.0934  0.2309
  239MOL   C10243418   5.238   0.061   3.593  0.0128  0.4726  0.2699
  239MOL   C10343419   5.063   0.227   3.634 -0.1583 -0.1360  0.0024
  239MOL   O10443420   5.129   0.333   3.631  0.1201 -0.4832  0.3774
  239MOL   O10543421   4.945   0.208   3.570 -0.7664 -0.3077 -0.3605
  239MOL   H10643422   5.053   0.022   3.706  0.1820  0.4139 -0.3940
  239MOL   H10743423   5.202   8.140   3.516 -1.5558  0.2910  1.1407
  239MOL   H10843424   5.285   0.145   3.542 -0.4306 -0.2653 -1.4093
  239MOL   H10943425   5.314   0.006   3.648  0.8616 -0.0867 -1.4230
  239MOL   C11043426   4.865   0.313   3.517  1.2764 -0.0402  0.0947
  239MOL   C11143427   4.729   0.253   3.451 -0.6321 -0.1869  1.0604
  239MOL   C11243428   4.941   0.396   3.407 -0.0747 -0.1376  0.3310
  239MOL   O11343429   4.924   0.516   3.384 -0.1093  0.0895 -0.2577
  239MOL   O11443430   5.043   0.326   3.342  0.2441  0.0218 -0.2383
  239MOL   H11543431   4.840   0.364   3.610  0.8420 -1.3162  0.6902
  239MOL   H11643432   4.761   0.207   3.357  1.8838 -0.2752  1.9087
  239MOL   H11743433   4.715   0.165   3.513 -0.2090 -1.1803 -0.2380
  239MOL   H11843434   4.638   0.312   3.447  1.0712  2.5309  0.3874
  239MOL   C11943435   5.116   0.383   3.236  0.4325 -0.4654  0.5805
  239MOL   C12043436   5.147   0.268   3.131  0.2358 -0.8112  0.6189
  239MOL   C12143437   5.248   0.455   3.285  0.2224  0.5440  0.2069
  239MOL   O12243438   5.342   0.467   3.208 -0.0684  0.3930 -0.1490
  239MOL   O12343439   5.237   0.510   3.409 -0.4612 -0.0818 -0.2371
  239MOL   H12443440   5.061   0.464   3.188 -1.5469 -1.3982  1.2221
  239MOL   H12543441   5.207   0.195   3.186 -0.8137 -0.2087  2.6206
  239MOL   H12643442   5.057   0.214   3.101  1.3333 -2.0267 -0.5788
  239MOL   H12743443   5.199   0.308   3.045 -1.7642 -0.7680 -0.6095
  239MOL   C12843444   5.330   0.587   3.471 -0.3773 -0.5722  0.1121
  239MOL   C12943445   5.337   0.732   3.418 -0.2864 -0.6676 -0.3434
  239MOL   C13043446   5.467   0.515   3.492 -0.1547 -0.5278  0.1686
  239MOL   O13143447   5.566   0.569   3.439  0.4654  0.0196 -0.1387
  239MOL   O13243448   5.462   0.412   3.576  0.5522 -0.4286 -0.4652
  239MOL   H13343449   5.286   0.602   3.569 -0.5365 -2.1220  0.2927
  239MOL   H13443450   5.279   0.794   3.487  1.0907 -1.5698  1.7057
  239MOL   H13543451   5.439   0.769   3.408 -0.2114 -0.1838  1.8546
  239MOL   H13643452   5.281   0.738   3.325 -0.8421  1.5847  0.1050
  239MOL   C13743453   5.581   0.351   3.621  0.3856  0.8242  0.4506
  239MOL   C13843454   5.555   0.203   3.624  0.2618  0.0663 -0.3715
  239MOL   C13943455   5.626   0.413   3.754  0.0580  0.5078 -0.2874
  239MOL   O14043456   5.733   0.382   3.805  0.1326  0.5455 -0.1515
  239MOL   O14143457   5.540   0.505   3.812  0.6626 -0.4952 -0.0548
  239MOL   H14243458   5.664   0.373   3.554  0.0825 -1.7623 -0.8421
  239MOL   H14343459   5.465   0.182   3.682 -0.5705  0.5848 -1.4580
  239MOL   H14443460   5.526   0.169   3.525 -1.2177  3.1193 -1.0803
  239MOL   H14543461   5.642   0.145   3.655  1.1167  0.7929 -1.3609
  239MOL   C14643462   5.575   0.605   3.907 -0.8416 -1.1006  0.0544
  239MOL   C14743463   5.450   0.688   3.935 -0.8608  0.0011  0.0998
  239MOL   C14843464   5.693   0.688   3.866  0.3113 -0.6060  0.1764
  239MOL   O14943465   5.756   0.749   3.950 -0.3747 -0.0482 -0.2181
  239MOL   O15043466   5.703   0.707   3.732 -0.4289 -0.1508 -0.4001
  239MOL   H15143467   5.614   0.567   4.001 -1.9994  0.0497  1.0229
  239MOL   H15243468   5.384   0.637   4.005 -1.3869 -0.1779 -0.5178
  239MOL   H15343469   5.469   0.786   3.981 -0.0572  0.0184 -0.2582
  239MOL   H15443470   5.402   0.699   3.838 -2.5074 -1.5880  0.7174
  239MOL   C15543471   5.792   0.800   3.668  0.4888 -0.3897  0.2661
  239MOL   C15643472   5.708   0.891   3.585 -0.5515 -0.3383  0.0378
  239MOL   C15743473   5.893   0.732   3.585 -0.3191  0.2272  0.3595
  239MOL   O15843474   5.929   0.784   3.484 -0.1392  0.0067  0.0677
  239MOL   O15943475   5.941   0.615   3.639 -0.8445  0.1795  0.0847
  239MOL   H16043476   5.849   0.857   3.741  2.7226 -0.3691 -1.4239
  239MOL   H16143477   5.630   0.941   3.641  0.5084  0.6520  0.6475
  239MOL   H16243478   5.761   0.970   3.532 -0.5855 -1.0204 -1.0275
  239MOL   H16343479   5.659   0.840   3.502 -0.5848 -3.5595  1.9364
  239MOL   C16443480   6.053   0.546   3.583 -0.2026 -0.2951  0.1633
  239MOL   C16543481   6.035   0.403   3.632 -0.2639  0.1283 -0.6820
  239MOL   C16643482   6.192   0.608   3.615  0.0102 -0.1706  0.2939
  239MOL   O16743483   6.197   0.714   3.675 -0.1694 -0.2710 -0.6014
  239MOL   O16843484   6.294   0.530   3.567  0.2211  0.5684  0.2261
  239MOL   H16943485   6.047   0.540   3.474  1.3865 -1.6187  0.1297
  239MOL   H17043486   6.119   0.339   3.606 -1.1579 -1.5072  0.3850
  239MOL   H17143487   6.030   0.403   3.741 -0.2187  1.5429 -0.6749
  239MOL   H17243488   5.939   0.368   3.594 -0.4833  0.6851 -0.6478
  239MOL   C17343489   6.430   0.560   3.584 -0.1522  0.0193  0.5613
  239MOL   C17443490   6.475   0.629   3.451  0.0320 -0.6294 -0.1803
  239MOL   C17543491   6.509   0.428   3.595 -0.1460  0.2859 -0.4212
  239MOL   O17643492   6.599   0.418   3.676  0.0316  0.4351 -0.2269
  239MOL   O17743493   6.471   0.331   3.507 -0.2864  0.3763 -0.1989
  239MOL   H17843494   6.449   0.619   3.674 -0.4781 -1.5617  1.7051
  239MOL   H17943495   6.581   0.648   3.432  0.1178 -0.3728  0.5627
  239MOL   H18043496   6.443   0.554   3.378  1.9637 -1.2245 -0.4383
  239MOL   H18143497   6.415   0.718   3.428  2.9242  1.4736  0.0922
  239MOL   H18243498   6.404   0.359   3.446  0.1469 -1.1662 -1.3943
  240MOL     C143499   5.307   7.847   6.576 -0.7211 -0.5349 -0.5022
  240MOL     C243500   5.373   7.795   6.701  0.1035 -0.1193 -0.8424
  240MOL     C343501   5.170   7.789   6.559  0.1950 -0.1628  0.8160
  240MOL     O443502   5.140   7.724   6.457 -0.4977 -0.0836  0.3566
  240MOL     O543503   5.094   7.815   6.666  0.0371 -0.5349  0.4640
  240MOL     H643504   5.293   7.955   6.577 -1.9152 -0.6955  1.5358
  240MOL     H743505   5.334   7.861   6.779  0.4903 -0.9974  0.1000
  240MOL     H843506   5.349   7.692   6.725 -1.5337  0.5055  0.3307
  240MOL     H943507   5.479   7.817   6.711 -0.0696 -0.0544  1.1748
  240MOL    H1043508   5.377   7.823   6.496 -0.4954 -0.6508 -0.2714
  240MOL    C1143509   4.958   7.768   6.675 -0.1472  0.3410  0.1065
  240MOL    C1243510   4.889   7.824   6.799 -0.9591 -0.2500 -0.6025
  240MOL    C1343511   4.950   7.614   6.671 -0.1808  0.2044 -0.3587
  240MOL    O1443512   4.840   7.562   6.654 -0.0455 -0.1559 -0.5170
  240MOL    O1543513   5.056   7.555   6.721  0.1331  0.4721 -0.5227
  240MOL    H1643514   4.911   7.807   6.586  0.4544 -1.6473 -1.1179
  240MOL    H1743515   4.853   7.926   6.785  0.4334  0.2684 -0.4819
  240MOL    H1843516   4.789   7.787   6.823 -0.8723  0.6520  1.2214
  240MOL    H1943517   4.940   7.804   6.893 -0.4768 -1.0094 -1.0204
  240MOL    C2043518   5.063   7.417   6.753 -0.9938  0.2998 -0.2827
  240MOL    C2143519   5.180   7.398   6.847 -0.5695 -0.0117 -0.1892
  240MOL    C2243520   5.080   7.321   6.629 -0.3235  0.4765 -0.0090
  240MOL    O2343521   5.108   7.353   6.517  0.3087  0.1807 -0.2531
  240MOL    O2443522   5.062   7.182   6.668  0.0107 -0.4120 -0.2013
  240MOL    H2543523   4.974   7.370   6.795 -0.2202 -0.4191  0.5581
  240MOL    H2643524   5.266   7.460   6.820  2.7312 -4.0515  0.4652
  240MOL    H2743525   5.150   7.435   6.945  1.0268 -1.0689  0.7155
  240MOL    H2843526   5.220   7.296   6.850  1.0119  0.6037 -0.0425
  240MOL    C2943527   5.097   7.072   6.581  0.4692 -0.2535  0.0272
  240MOL    C3043528   5.067   6.954   6.672 -0.1974 -0.8435  0.1297
  240MOL    C3143529   5.249   7.082   6.545 -0.6686  1.0977  0.0469
  240MOL    O3243530   5.329   7.149   6.605 -0.1211  0.0137  0.0226
  240MOL    O3343531   5.292   7.006   6.442 -0.4282 -0.4613  0.0729
  240MOL    H3443532   5.031   7.079   6.494  1.8498  2.0214 -0.8743
  240MOL    H3543533   4.968   6.912   6.688 -0.0356 -1.1271  0.4180
  240MOL    H3643534   5.130   6.868   6.648  1.2583  0.1739  0.2615
  240MOL    H3743535   5.095   6.975   6.776  0.1716 -2.6077  0.4117
  240MOL    C3843536   5.430   6.995   6.402 -0.4478 -0.0771  0.1924
  240MOL    C3943537   5.438   6.957   6.255 -0.7871  0.1726  0.6397
  240MOL    C4043538   5.501   6.895   6.487  0.2890 -0.5283 -0.0949
  240MOL    O4143539   5.449   6.809   6.554  0.1293 -0.3488  0.2597
  240MOL    O4243540   5.633   6.910   6.462  0.0775  0.0623 -0.4448
  240MOL    H4343541   5.482   7.090   6.414  0.5792 -0.2979 -2.2025
  240MOL    H4443542   5.392   6.858   6.254  1.3507 -0.8327  0.6863
  240MOL    H4543543   5.383   7.021   6.186 -2.0338 -1.7525 -0.1977
  240MOL    H4643544   5.542   6.951   6.223 -1.1512 -0.6317 -0.4237
  240MOL    C4743545   5.727   6.813   6.498  0.2300  0.2932  0.3180
  240MOL    C4843546   5.813   6.904   6.591 -0.2199 -0.0014 -0.3482
  240MOL    C4943547   5.812   6.764   6.374 -0.2822  0.8961 -0.0468
  240MOL    O5043548   5.933   6.756   6.387  0.3196  0.3892 -0.0702
  240MOL    O5143549   5.748   6.744   6.264 -0.2667 -0.6394 -0.0381
  240MOL    H5243550   5.688   6.733   6.561 -0.9106 -0.4913 -1.3705
  240MOL    H5343551   5.908   6.860   6.621 -1.2964 -2.1501 -0.0135
  240MOL    H5443552   5.837   6.991   6.530 -1.2671 -0.0609 -0.8626
  240MOL    H5543553   5.759   6.941   6.678 -0.0237  0.6129 -0.4870
  240MOL    C5643554   5.823   6.706   6.152 -0.0030 -0.0265  0.1351
  240MOL    C5743555   5.862   6.831   6.073  0.0317 -0.7151  0.8165
  240MOL    C5843556   5.741   6.608   6.062  0.9003  0.2498 -0.6135
  240MOL    O5943557   5.730   6.618   5.942  0.0535 -0.3612  0.3691
  240MOL    O6043558   5.702   6.504   6.135 -0.0900  0.0134  0.2773
  240MOL    H6143559   5.909   6.643   6.176  0.4818  1.1033  1.3930
  240MOL    H6243560   5.935   6.879   6.138  0.2528  0.3883 -0.2135
  240MOL    H6343561   5.907   6.811   5.975  1.9329  3.2671  0.7545
  240MOL    H6443562   5.781   6.904   6.065  0.3109 -0.2590  2.0885
  240MOL    C6543563   5.614   6.409   6.069 -0.7308 -0.5656 -0.1830
  240MOL    C6643564   5.531   6.349   6.184 -0.3922 -0.4007 -0.2309
  240MOL    C6743565   5.696   6.305   5.991 -0.9189 -0.5836  0.1055
  240MOL    O6843566   5.786   6.234   6.044 -0.1637 -0.4414 -0.1603
  240MOL    O6943567   5.657   6.300   5.862  0.2604  0.7300  0.5138
  240MOL    H7043568   5.540   6.458   6.006  0.0738  1.6625  0.5461
  240MOL    H7143569   5.492   6.255   6.145  0.1814 -1.0252  0.6750
  240MOL    H7243570   5.593   6.323   6.270 -0.7230  0.6256  0.3150
  240MOL    H7343571   5.450   6.415   6.214  0.0064 -0.0898  0.1730
  240MOL    C7443572   5.722   6.230   5.762  0.3731  0.5339 -0.0909
  240MOL    C7543573   5.690   6.294   5.621  0.4727 -0.4299  0.7093
  240MOL    C7643574   5.685   6.078   5.772  0.2909  0.0558 -0.7956
  240MOL    O7743575   5.581   6.034   5.818  0.2796 -0.6376  0.0761
  240MOL    O7843576   5.777   6.000   5.712  0.5436 -0.2588  0.2514
  240MOL    H7943577   5.831   6.237   5.765  0.4804 -0.7501 -0.9468
  240MOL    H8043578   5.765   6.373   5.612  0.3486 -0.6068 -2.3468
  240MOL    H8143579   5.704   6.214   5.548 -0.9692 -0.2704  0.2403
  240MOL    H8243580   5.586   6.327   5.619  0.3845 -0.7230  0.3543
  240MOL    C8343581   5.760   5.861   5.700 -0.4193  0.2495  0.1188
  240MOL    C8443582   5.891   5.798   5.743 -0.1553  0.3559 -0.4631
  240MOL    C8543583   5.703   5.820   5.563 -0.4509 -0.3383 -0.1994
  240MOL    O8643584   5.771   5.752   5.481  0.1809  0.4374  0.3262
  240MOL    O8743585   5.578   5.881   5.539 -0.2318  0.6555  0.3318
  240MOL    H8843586   5.685   5.829   5.773 -0.8836 -0.6745 -0.7510
  240MOL    H8943587   5.878   5.690   5.746 -1.5656  0.5321 -0.0038
  240MOL    H9043588   5.978   5.811   5.679  1.1423  0.5309  1.2943
  240MOL    H9143589   5.913   5.829   5.845  0.0613 -0.4524 -0.2581
  240MOL    C9243590   5.508   5.866   5.415  0.3106  0.4558  0.3393
  240MOL    C9343591   5.379   5.935   5.425 -0.4854 -0.4232  0.2987
  240MOL    C9443592   5.491   5.724   5.366 -0.5019  1.0700 -0.4372
  240MOL    O9543593   5.477   5.638   5.452 -0.3994  0.7884 -0.4537
  240MOL    O9643594   5.486   5.718   5.225 -0.0257 -0.4753  0.4689
  240MOL    H9743595   5.568   5.907   5.334  0.7017  1.9174  1.3541
  240MOL    H9843596   5.336   5.927   5.325 -0.4456 -1.4112  0.3532
  240MOL    H9943597   5.315   5.885   5.499 -1.2030  2.1863  1.5028
  240MOL   H10043598   5.390   6.034   5.468  2.9666 -1.4359  1.9169
  240MOL   C10143599   5.454   5.595   5.152  0.8759  0.4258 -0.8645
  240MOL   C10243600   5.306   5.604   5.116  0.7462 -1.1526 -0.6868
  240MOL   C10343601   5.492   5.463   5.220 -1.0510  1.2140  0.4290
  240MOL   O10443602   5.408   5.376   5.248 -0.0662  0.0048  0.2419
  240MOL   O10543603   5.625   5.458   5.243 -0.3679 -0.0474  0.0927
  240MOL   H10643604   5.516   5.596   5.062  0.5674 -2.1995 -1.1431
  240MOL   H10743605   5.278   5.686   5.051  0.8959 -0.7862 -0.2952
  240MOL   H10843606   5.263   5.513   5.075  0.3134 -0.3165 -2.1067
  240MOL   H10943607   5.249   5.635   5.204 -2.0479  0.7048 -3.0948
  240MOL   C11043608   5.682   5.344   5.308  0.6366 -0.1655  0.2423
  240MOL   C11143609   5.801   5.402   5.390 -0.1354  0.3828  0.1696
  240MOL   C11243610   5.736   5.239   5.207 -0.5110 -0.1955 -0.1507
  240MOL   O11343611   5.775   5.268   5.097  0.3376 -0.2818 -0.1843
  240MOL   O11443612   5.733   5.121   5.261 -0.4027 -0.0055  0.2095
  240MOL   H11543613   5.606   5.297   5.370 -1.0328 -0.0482 -1.6605
  240MOL   H11643614   5.888   5.421   5.327 -1.0484 -0.3792 -1.3197
  240MOL   H11743615   5.767   5.492   5.441  0.7990  0.1563  1.2179
  240MOL   H11843616   5.842   5.327   5.458  1.7778  0.4124 -0.9303
  240MOL   C11943617   5.758   4.997   5.184 -0.9846 -0.0137 -0.4215
  240MOL   C12043618   5.891   4.979   5.122  0.1481 -0.2071  0.2002
  240MOL   C12143619   5.656   4.959   5.082 -0.1262  0.1193 -0.0442
  240MOL   O12243620   5.579   5.046   5.040 -0.1629 -0.1424 -0.3535
  240MOL   O12343621   5.672   4.834   5.033  0.0897  0.1104  0.1155
  240MOL   H12443622   5.751   4.924   5.264  0.0376  0.6238  0.2577
  240MOL   H12543623   5.961   5.015   5.198 -2.3328  1.4943  1.7429
  240MOL   H12643624   5.905   4.881   5.077 -1.6128 -1.1706  1.6930
  240MOL   H12743625   5.902   5.046   5.037 -2.9374 -1.6320 -1.3831
  240MOL   C12843626   5.596   4.797   4.918  0.1732  0.2702 -0.8011
  240MOL   C12943627   5.593   4.644   4.930 -0.4036  0.5530  0.2065
  240MOL   C13043628   5.658   4.848   4.785 -0.5207 -0.7555 -0.8902
  240MOL   O13143629   5.758   4.918   4.775  1.1586 -0.1976 -0.3536
  240MOL   O13243630   5.590   4.795   4.680  0.0505 -0.3291  0.1086
  240MOL   H13343631   5.492   4.828   4.929  0.2632 -0.4373  2.6030
  240MOL   H13443632   5.507   4.606   4.873  1.5678 -3.7866 -0.1108
  240MOL   H13543633   5.682   4.594   4.893 -1.4827  0.7203 -2.8217
  240MOL   H13643634   5.561   4.607   5.028  1.7961 -1.2247  0.2998
  240MOL   C13743635   5.648   4.789   4.549 -0.6245  0.8549 -0.1068
  240MOL   C13843636   5.532   4.769   4.462 -0.4194 -0.0795  0.0970
  240MOL   C13943637   5.759   4.678   4.538  1.0330  0.4036  0.8102
  240MOL   O14043638   5.786   4.601   4.630 -0.1763 -0.6273 -0.2584
  240MOL   O14143639   5.813   4.674   4.405  0.1906  0.0321 -0.1897
  240MOL   H14243640   5.698   4.884   4.530  0.1374  0.5164  0.1852
  240MOL   H14343641   5.552   4.779   4.356 -1.4547  0.8123 -0.0290
  240MOL   H14443642   5.503   4.665   4.481  2.2262 -0.6729  1.0629
  240MOL   H14543643   5.450   4.839   4.476 -0.8613 -0.5271 -0.2121
  240MOL   C14643644   5.896   4.571   4.362 -0.5014  0.9014  1.2694
  240MOL   C14743645   5.971   4.603   4.223  0.7880 -0.2059 -0.6037
  240MOL   C14843646   5.813   4.443   4.344  0.7922  0.8311  0.6759
  240MOL   O14943647   5.690   4.435   4.369  0.1458  0.2744 -0.3696
  240MOL   O15043648   5.879   4.343   4.286 -0.4053 -0.1246 -0.0404
  240MOL   H15143649   5.965   4.556   4.445 -1.4033 -1.1484  1.6883
  240MOL   H15243650   5.894   4.588   4.148 -0.6448 -0.3657  0.8521
  240MOL   H15343651   6.010   4.704   4.231 -0.5450  0.1926  1.4598
  240MOL   H15443652   6.062   4.545   4.209  1.0162  0.1820 -0.7258
  240MOL   C15543653   5.817   4.220   4.263 -0.2214 -0.0988  0.3606
  240MOL   C15643654   5.937   4.133   4.238 -0.0096 -0.3355  0.5282
  240MOL   C15743655   5.722   4.220   4.142 -0.1566 -0.0681  0.3748
  240MOL   O15843656   5.750   4.284   4.041 -0.4608 -0.2088  0.2977
  240MOL   O15943657   5.612   4.144   4.158  0.4311  0.0157  0.4730
  240MOL   H16043658   5.770   4.173   4.349 -0.9126 -1.2127 -0.6010
  240MOL   H16143659   5.903   4.030   4.224 -0.3667 -0.0938 -0.4146
  240MOL   H16243660   5.981   4.168   4.145 -1.2173 -0.6821 -0.1850
  240MOL   H16343661   6.024   4.134   4.304  0.5793 -0.8265 -0.2244
  240MOL   C16443662   5.515   4.152   4.060 -0.2462  0.3131 -0.4276
  240MOL   C16543663   5.376   4.150   4.133 -0.1472  0.0611  0.3590
  240MOL   C16643664   5.527   4.041   3.958  0.6023 -0.1031 -0.2707
  240MOL   O16743665   5.475   3.934   3.980  0.2368  0.2650 -0.8663
  240MOL   O16843666   5.617   4.068   3.860  0.6193 -0.3316  0.6265
  240MOL   H16943667   5.525   4.240   3.998 -0.6419  1.5913  1.2913
  240MOL   H17043668   5.347   4.063   4.192 -0.4331  0.3360  0.6252
  240MOL   H17143669   5.370   4.226   4.211 -1.0789 -1.0670  1.4056
  240MOL   H17243670   5.293   4.158   4.063 -0.7315  0.4012  1.0858
  240MOL   C17343671   5.655   3.973   3.760 -0.1454 -0.2628  0.5504
  240MOL   C17443672   5.767   4.030   3.673  0.5945  0.6281 -0.1814
  240MOL   C17543673   5.540   3.944   3.668 -0.2571  0.2428  0.0368
  240MOL   O17643674   5.529   4.003   3.563  0.4310 -0.5328  0.3881
  240MOL   O17743675   5.452   3.851   3.716  0.0272  0.1681  0.0387
  240MOL   H17843676   5.698   3.884   3.805  1.3223  0.3540  0.4060
  240MOL   H17943677   5.785   3.969   3.585  0.3220  1.2640 -0.6879
  240MOL   H18043678   5.743   4.124   3.623 -0.1567  0.1160 -0.8030
  240MOL   H18143679   5.850   4.045   3.742  0.5020  0.7374 -0.0924
  240MOL   H18243680   5.486   3.812   3.796  2.5592 -1.2843 -1.6859
  241MOL     C143681   2.132   7.143   1.903  0.1718  0.5638 -0.2710
  241MOL     C243682   2.130   7.157   2.054  0.0663  0.1137 -0.8016
  241MOL     C343683   1.995   7.115   1.844  0.0381 -0.7165  0.4345
  241MOL     O443684   1.907   7.068   1.916  0.1623  0.0564  0.1927
  241MOL     O543685   1.987   7.132   1.707 -0.3313  0.6793  0.1547
  241MOL     H643686   2.148   7.243   1.862 -0.4349  0.6877 -0.2190
  241MOL     H743687   2.200   7.236   2.081 -1.6572  1.0801  0.9883
  241MOL     H843688   2.039   7.194   2.100  0.9980  1.7508 -0.2426
  241MOL     H943689   2.150   7.069   2.116  1.4234  0.9831  0.0409
  241MOL    H1043690   2.196   7.068   1.858 -1.0152 -1.2043  0.9416
  241MOL    C1143691   1.860   7.132   1.639 -0.5202 -0.0447 -0.3501
  241MOL    C1243692   1.891   7.099   1.490 -0.0170  0.3909  0.3934
  241MOL    C1343693   1.791   7.267   1.653 -0.0212 -0.4704  0.4830
  241MOL    O1443694   1.831   7.370   1.593 -0.3671 -0.2977  0.1799
  241MOL    O1543695   1.670   7.264   1.712 -0.5168  0.1522  0.2346
  241MOL    H1643696   1.793   7.066   1.694 -1.6123  0.7148 -0.7493
  241MOL    H1743697   1.971   7.163   1.454 -0.5893  1.2243  0.5688
  241MOL    H1843698   1.924   6.997   1.471 -1.1248  0.1257 -0.1814
  241MOL    H1943699   1.810   7.125   1.422  0.7202  1.2015 -0.1843
  241MOL    C2043700   1.593   7.386   1.737  0.1422  0.5641 -0.1720
  241MOL    C2143701   1.482   7.348   1.826  0.7052  0.1883 -0.3553
  241MOL    C2243702   1.541   7.446   1.605  0.2267 -0.3321 -1.3695
  241MOL    O2343703   1.512   7.379   1.510 -0.0949 -0.1980  0.5415
  241MOL    O2443704   1.524   7.580   1.626 -0.2364  0.0529 -0.2030
  241MOL    H2543705   1.664   7.461   1.771 -1.8499  1.1978  2.7994
  241MOL    H2643706   1.513   7.339   1.931  2.4157 -2.3528 -1.0316
  241MOL    H2743707   1.414   7.434   1.829  0.0076 -0.3791  0.4078
  241MOL    H2843708   1.424   7.260   1.798  0.7731  0.0404 -0.0355
  241MOL    C2943709   1.452   7.671   1.535 -0.1575 -0.0939 -0.4087
  241MOL    C3043710   1.502   7.820   1.550 -0.4750  0.2147 -0.6872
  241MOL    C3143711   1.303   7.656   1.552 -0.1539  0.5258 -0.8367
  241MOL    O3243712   1.230   7.586   1.476 -0.3813  0.3686  0.4650
  241MOL    O3343713   1.253   7.728   1.653  0.2454  0.2004 -0.0887
  241MOL    H3443714   1.481   7.637   1.436  1.6320  0.2035 -0.0007
  241MOL    H3543715   1.484   7.854   1.652  0.0250  0.8578 -0.8144
  241MOL    H3643716   1.602   7.830   1.506 -1.0732  0.9049 -1.9040
  241MOL    H3743717   1.435   7.881   1.490 -3.2902  0.5369  2.6396
  241MOL    C3843718   1.125   7.784   1.636 -0.2752 -0.8805 -0.1952
  241MOL    C3943719   1.144   7.931   1.666  0.2103 -0.0758 -0.3277
  241MOL    C4043720   1.025   7.718   1.725 -0.1247  0.0682 -0.0193
  241MOL    O4143721   1.057   7.620   1.792  0.1059 -0.6646 -0.7684
  241MOL    O4243722   0.901   7.764   1.714  0.2273 -0.5047 -0.6346
  241MOL    H4343723   1.084   7.768   1.536  1.0974  0.0108 -0.9206
  241MOL    H4443724   1.060   7.968   1.726 -1.5315 -0.9045 -2.1876
  241MOL    H4543725   1.235   7.957   1.720 -1.9756  0.3829  3.3957
  241MOL    H4643726   1.135   7.981   1.570  0.5454 -1.3804 -1.0459
  241MOL    C4743727   0.800   7.721   1.807 -0.2784  0.0898 -0.6581
  241MOL    C4843728   0.678   7.690   1.726 -0.1551  0.2075  0.2137
  241MOL    C4943729   0.770   7.823   1.918 -0.4861  0.2946  0.3990
  241MOL    O5043730   0.663   7.836   1.975 -0.3973 -0.5073  0.5536
  241MOL    O5143731   0.877   7.897   1.942 -0.3832 -0.7685  0.5733
  241MOL    H5243732   0.825   7.624   1.850 -0.0238  1.0703  1.4573
  241MOL    H5343733   0.714   7.630   1.643 -2.1959 -0.5340 -0.1659
  241MOL    H5443734   0.593   7.642   1.774  0.1920 -2.7074 -2.0238
  241MOL    H5543735   0.651   7.788   1.685 -0.0536 -0.5716 -1.7746
  241MOL    C5643736   0.871   8.001   2.042  0.2429 -0.3930  0.3074
  241MOL    C5743737   0.792   8.125   2.006  0.3475  0.1426  0.3968
  241MOL    C5843738   1.014   8.040   2.071 -0.4151  0.5576  0.1235
  241MOL    O5943739   1.057   0.009   2.054 -0.5215 -0.4015  0.2668
  241MOL    O6043740   1.095   7.937   2.103 -0.0612  0.6592 -0.5528
  241MOL    H6143741   0.826   7.953   2.129  0.5309  1.5179  1.5132
  241MOL    H6243742   0.808   0.046   2.089 -0.7021  1.5684 -0.5627
  241MOL    H6343743   0.814   0.025   1.911  0.5810 -0.7404  0.0032
  241MOL    H6443744   0.691   8.084   2.011  1.1326 -1.6721  2.5422
  241MOL    C6543745   1.234   7.958   2.129  0.3700 -0.3957  0.1963
  241MOL    C6643746   1.314   7.874   2.024  0.1060 -0.1341 -0.4302
  241MOL    C6743747   1.244   7.902   2.274  0.4693  0.0735 -0.2873
  241MOL    O6843748   1.283   7.784   2.292  0.0657 -0.0544  0.5268
  241MOL    O6943749   1.206   7.989   2.371  0.1947  0.3270  0.0983
  241MOL    H7043750   1.273   8.060   2.133  0.3709 -0.4697  3.9099
  241MOL    H7143751   1.273   7.882   1.924  0.2899 -0.3416 -0.5213
  241MOL    H7243752   1.420   7.898   2.016  0.7902 -2.1646  1.7764
  241MOL    H7343753   1.301   7.767   2.042 -0.0723 -0.1951 -0.9352
  241MOL    C7443754   1.213   7.946   2.505 -0.0708  0.0463 -0.0338
  241MOL    C7543755   1.090   8.024   2.554  0.7130 -0.3387  0.2599
  241MOL    C7643756   1.341   8.000   2.571 -0.6187 -0.4070  0.1290
  241MOL    O7743757   1.383   8.115   2.543 -0.5206 -0.0331  0.3831
  241MOL    O7843758   1.388   7.923   2.675  0.2218 -0.0573  0.0776
  241MOL    H7943759   1.204   7.838   2.513  2.8456 -0.0674  2.3526
  241MOL    H8043760   1.003   7.964   2.531  1.5912 -0.9781 -1.4182
  241MOL    H8143761   1.092   8.034   2.663  1.5011 -0.7251  0.2884
  241MOL    H8243762   1.085   8.129   2.524  1.4070  0.3536  2.4274
  241MOL    C8343763   1.507   7.969   2.743 -0.0414 -0.2210  0.0817
  241MOL    C8443764   1.577   7.847   2.793  0.2161 -0.4482  0.0096
  241MOL    C8543765   1.475   8.076   2.851 -0.2148 -0.3477 -0.3596
  241MOL    O8643766   1.525   0.041   2.850  0.3390 -0.3706 -0.1691
  241MOL    O8743767   1.394   8.032   2.949 -0.4860 -0.8141 -0.8786
  241MOL    H8843768   1.580   8.015   2.676 -0.4967  1.5231  0.7672
  241MOL    H8943769   1.670   7.862   2.849 -1.5084  3.2127  2.0472
  241MOL    H9043770   1.501   7.801   2.855 -1.2541  0.0770 -1.3748
  241MOL    H9143771   1.598   7.779   2.710  3.1479 -0.3232  0.5914
  241MOL    C9243772   1.379   8.108   3.073 -0.9061  0.6969  0.2349
  241MOL    C9343773   1.409   8.008   3.186 -0.1354  0.2373 -0.7296
  241MOL    C9443774   1.238   0.016   3.108  0.3059  0.0200 -0.0365
  241MOL    O9543775   1.134   8.121   3.057  0.0516  0.2359  0.0890
  241MOL    O9643776   1.256   0.109   3.209  0.1197 -0.1806 -0.5185
  241MOL    H9743777   1.454   0.039   3.072 -1.4052  1.1835  0.4223
  241MOL    H9843778   1.413   8.049   3.287 -0.9579 -0.0957 -0.5575
  241MOL    H9943779   1.340   7.925   3.192 -0.0570  0.2513  0.5276
  241MOL   H10043780   1.508   7.963   3.173 -1.1728 -2.5290  0.7407
  241MOL   C10143781   1.146   0.159   3.285 -0.0791 -0.1044  0.7590
  241MOL   C10243782   1.166   0.307   3.323 -0.3141  0.7641  0.0799
  241MOL   C10343783   1.129   0.069   3.407  0.2213 -0.0637 -1.1594
  241MOL   O10443784   1.150   0.111   3.524  0.2965 -0.3076 -0.3974
  241MOL   O10543785   1.087   8.096   3.376 -0.5280 -0.3505  0.0808
  241MOL   H10643786   1.049   0.149   3.236 -0.6035 -0.3589  1.8388
  241MOL   H10743787   1.260   0.320   3.377  0.5390  0.5573 -1.3024
  241MOL   H10843788   1.172   0.369   3.233 -0.1748  0.5795 -0.0401
  241MOL   H10943789   1.080   0.355   3.368  0.5196  1.6018  0.7891
  241MOL   C11043790   1.056   8.010   3.480  0.3931 -0.3380  0.4259
  241MOL   C11143791   1.087   7.861   3.434 -0.7600  0.4514 -0.4243
  241MOL   C11243792   0.908   8.022   3.525 -0.4452 -0.0655 -0.0223
  241MOL   O11343793   0.839   8.117   3.479  0.1695  0.1905  0.0479
  241MOL   O11443794   0.866   7.942   3.622  0.2156 -0.4456 -0.1193
  241MOL   H11543795   1.128   8.023   3.561  0.8784  1.4628 -0.2793
  241MOL   H11643796   1.012   7.815   3.369  0.8748 -0.7155 -1.5207
  241MOL   H11743797   1.187   7.852   3.391 -1.0233 -0.6809 -0.8290
  241MOL   H11843798   1.090   7.793   3.519  0.6592 -1.4925 -1.9875
  241MOL   C11943799   0.736   7.970   3.684  0.2325  0.1517 -0.6355
  241MOL   C12043800   0.750   7.936   3.831 -0.7280  0.3532 -0.9428
  241MOL   C12143801   0.621   7.910   3.608  0.3782  0.9809 -0.2467
  241MOL   O12243802   0.630   7.871   3.489 -0.0913 -0.2223 -0.4729
  241MOL   O12343803   0.508   7.898   3.670  0.0317  0.5195  0.5332
  241MOL   H12443804   0.726   8.078   3.684  0.3565  0.1916  1.5070
  241MOL   H12543805   0.825   7.992   3.887 -2.2557  1.0117  0.4988
  241MOL   H12643806   0.666   7.970   3.892 -0.6595  0.4174 -0.8844
  241MOL   H12743807   0.768   7.829   3.835 -0.7881  0.4090  1.5835
  241MOL   C12843808   0.410   7.808   3.614  0.0892 -0.2975 -0.7080
  241MOL   C12943809   0.330   7.882   3.498  0.0007  0.0878 -0.3340
  241MOL   C13043810   0.320   7.759   3.727 -0.2707  0.6459  0.0642
  241MOL   O13143811   0.282   7.837   3.815  0.6878 -0.1717  0.2021
  241MOL   O13243812   0.284   7.625   3.715  0.0749 -0.6003  0.4261
  241MOL   H13343813   0.458   7.718   3.576  0.0324 -0.6826  0.1283
  241MOL   H13443814   0.395   7.918   3.419  1.9581  1.3171  1.7931
  241MOL   H13543815   0.254   7.818   3.453 -0.5120  0.7622 -0.4335
  241MOL   H13643816   0.260   7.957   3.536  0.0344 -0.4906  0.8888
  241MOL   C13743817   0.190   7.557   3.799 -0.5136  0.0345 -0.3443
  241MOL   C13843818   0.045   7.559   3.741  0.4601 -0.1324  0.0166
  241MOL   C13943819   0.204   7.586   3.952 -0.3621  0.5093 -0.2694
  241MOL   O14043820   0.107   7.608   4.027 -0.3238 -0.1320 -0.1523
  241MOL   O14143821   0.326   7.602   3.983  0.3462  0.3258 -0.0457
  241MOL   H14243822   0.242   7.461   3.800 -1.6723 -0.5985  0.1265
  241MOL   H14343823   0.014   7.657   3.703 -0.8331 -0.7539 -0.5913
  241MOL   H14443824   0.035   7.497   3.652  0.5979  1.6588 -1.2778
  241MOL   H14543825   8.113   7.535   3.812 -0.9048 -0.0359 -1.4516
  241MOL   C14643826   0.364   7.675   4.098 -0.6521  0.0826 -0.4710
  241MOL   C14743827   0.508   7.725   4.067 -0.1525  0.6303 -0.3200
  241MOL   C14843828   0.372   7.599   4.225  0.4157 -0.5662  0.4130
  241MOL   O14943829   0.383   7.653   4.335 -0.2962 -0.1512 -0.1318
  241MOL   O15043830   0.357   7.470   4.210  0.1460  0.6787 -0.5743
  241MOL   H15143831   0.297   7.760   4.109 -0.3213  0.2713  0.1124
  241MOL   H15243832   0.580   7.648   4.039  2.9702  3.0880  0.7568
  241MOL   H15343833   0.501   7.785   3.976  1.0459  0.8758 -0.2549
  241MOL   H15443834   0.545   7.791   4.144  1.4645 -0.2528 -0.3080
  241MOL   C15543835   0.335   7.383   4.322 -0.5896  0.5952 -0.2885
  241MOL   C15643836   0.464   7.347   4.400  0.1551  0.3922  0.2006
  241MOL   C15743837   0.261   7.264   4.274  0.7065 -0.3749  0.7713
  241MOL   O15843838   0.161   7.220   4.332  0.3023 -0.4084 -0.2960
  241MOL   O15943839   0.316   7.207   4.162 -0.7412  0.2918 -0.1459
  241MOL   H16043840   0.266   7.431   4.391  1.6404  1.3397  1.4661
  241MOL   H16143841   0.425   7.291   4.484 -0.6382 -1.5334 -1.4194
  241MOL   H16243842   0.531   7.288   4.337  0.9124  1.0501  0.3873
  241MOL   H16343843   0.515   7.435   4.439  0.0363  1.0650 -1.1067
  241MOL   C16443844   0.256   7.107   4.087  0.6424  0.3856 -0.2466
  241MOL   C16543845   0.364   7.020   4.025 -0.0881 -0.5304 -0.3634
  241MOL   C16643846   0.159   7.159   3.982 -0.0302  0.1855 -0.1932
  241MOL   O16743847   0.165   7.276   3.949 -0.3322  0.0010 -0.0871
  241MOL   O16843848   0.078   7.067   3.920  0.0799 -0.5406 -0.7334
  241MOL   H16943849   0.204   7.043   4.158  2.3532 -1.2614 -0.4314
  241MOL   H17043850   0.444   7.089   3.998  1.2697 -1.7315  0.5248
  241MOL   H17143851   0.393   6.944   4.097 -1.1799  1.3848  2.1801
  241MOL   H17243852   0.330   6.979   3.930  0.8190  0.0437 -0.9404
  241MOL   C17343853   8.118   7.129   3.831  0.9123  1.0861  0.4203
  241MOL   C17443854   8.003   7.027   3.856 -0.6948 -0.2704 -0.0411
  241MOL   C17543855   0.017   7.144   3.691 -0.4159  0.0034 -0.0042
  241MOL   O17643856   8.134   7.247   3.626 -0.5164 -0.1087 -0.0159
  241MOL   O17743857   0.089   7.038   3.644  0.0553  0.5468  0.4103
  241MOL   H17843858   8.096   7.224   3.878 -1.7005 -0.3260  2.2179
  241MOL   H17943859   7.921   7.026   3.785 -1.0215  1.9495  0.2759
  241MOL   H18043860   8.048   6.931   3.832 -2.2965 -1.2196  0.6985
  241MOL   H18143861   7.967   7.020   3.959  1.2907  1.5573  0.8207
  241MOL   H18243862   0.110   7.055   3.554 -0.4550  0.2221  0.2335
  242MOL     C143863   7.997   7.925   1.994  0.2505 -0.1032  0.8660
  242MOL     C243864   7.908   7.804   2.009 -0.3236  0.8429 -0.2364
  242MOL     C343865   8.132   7.884   1.934  0.5781  0.5180 -0.1892
  242MOL     O443866   8.144   7.781   1.866  0.1507 -0.0087 -0.7084
  242MOL     O543867   0.090   7.955   1.987 -0.2807  0.0205 -0.7702
  242MOL     H643868   7.950   7.997   1.926 -1.2676 -1.8304  0.0518
  242MOL     H743869   7.825   7.829   2.075 -1.8625 -1.5971 -1.1667
  242MOL     H843870   7.861   7.775   1.914 -0.3702 -1.1403  0.3647
  242MOL     H943871   7.967   7.724   2.055 -1.5497  0.6647  1.0336
  242MOL    H1043872   8.020   7.966   2.093  1.1994  0.7267  0.3096
  242MOL    C1143873   0.230   7.917   1.975 -0.3031  0.1653 -0.2148
  242MOL    C1243874   0.317   8.017   2.061 -0.2082  0.6610 -0.5033
  242MOL    C1343875   0.278   7.914   1.836  0.5416 -0.3975  0.8065
  242MOL    O1443876   0.369   7.842   1.794  0.2844  0.2432 -0.3370
  242MOL    O1543877   0.219   8.007   1.756  0.3078  0.2005  0.0322
  242MOL    H1643878   0.247   7.814   2.004  0.9858 -0.2871 -2.4640
  242MOL    H1743879   0.294   7.999   2.166 -1.5907 -0.0323 -0.9017
  242MOL    H1843880   0.425   8.006   2.053  0.2839  1.5833  3.9174
  242MOL    H1943881   0.302   8.124   2.045  0.7453  1.0249  1.0117
  242MOL    C2043882   0.253   8.023   1.617 -0.5975  0.1515 -0.3339
  242MOL    C2143883   0.220   0.017   1.570 -0.5613 -1.0844  0.4336
  242MOL    C2243884   0.179   7.913   1.545  0.2027  0.0584  0.7779
  242MOL    O2343885   0.137   7.813   1.596  0.1977  0.2852 -0.2438
  242MOL    O2443886   0.167   7.945   1.415  0.7145 -0.1810 -0.1461
  242MOL    H2543887   0.360   8.010   1.605 -0.5719  0.9301 -1.0511
  242MOL    H2643888   0.266   0.086   1.640 -1.4726 -0.7220  0.6784
  242MOL    H2743889   0.259   0.032   1.469  0.4492  0.3222  1.0185
  242MOL    H2843890   0.114   0.033   1.549 -0.1350  2.3259  0.4892
  242MOL    C2943891   0.072   7.878   1.332 -0.6171 -0.1805  0.2090
  242MOL    C3043892   0.136   7.871   1.191 -0.0800 -0.3842 -0.1258
  242MOL    C3143893   8.097   7.968   1.330 -0.2376  0.1410 -0.3145
  242MOL    O3243894   8.067   8.043   1.241  0.2508  0.2749 -0.1506
  242MOL    O3343895   8.042   7.968   1.456  0.2182 -0.1260  1.1589
  242MOL    H3443896   0.045   7.777   1.362  2.3331 -1.0860  0.0295
  242MOL    H3543897   0.071   7.821   1.119 -1.0387  0.6871 -0.0192
  242MOL    H3643898   0.171   7.972   1.169  1.7234 -0.4894  2.1061
  242MOL    H3743899   0.226   7.809   1.192  1.2104  1.4473  1.7207
  242MOL    C3843900   7.967   8.083   1.499 -0.2978  0.7427  0.0720
  242MOL    C3943901   7.947   8.074   1.645  0.1631  0.4165  0.3885
  242MOL    C4043902   7.827   8.102   1.431 -0.8913  0.0567  0.1700
  242MOL    O4143903   7.762   8.015   1.384  0.0881 -0.7650 -0.1380
  242MOL    O4243904   7.793   0.084   1.424 -0.1311 -0.0593  0.3535
  242MOL    H4343905   8.036   0.016   1.470  0.1360  0.0879 -0.7543
  242MOL    H4443906   7.900   0.017   1.685 -0.2175  0.2399  0.3456
  242MOL    H4543907   7.878   7.991   1.660 -0.9625  1.5784  1.8089
  242MOL    H4643908   8.039   8.053   1.700  1.0126 -0.8209 -1.4549
  242MOL    C4743909   7.665   0.120   1.372 -0.3195 -0.0141  0.3443
  242MOL    C4843910   7.666   0.273   1.356  0.1622 -0.4258 -0.1708
  242MOL    C4943911   7.547   0.081   1.467  0.6183 -0.0694 -0.2788
  242MOL    O5043912   7.574   0.030   1.574 -0.0322 -0.1015 -0.0815
  242MOL    O5143913   7.434   0.087   1.402  0.5355 -0.8569  0.5037
  242MOL    H5243914   7.661   0.074   1.273 -2.5906  0.3671  0.2273
  242MOL    H5343915   7.737   0.317   1.286 -1.6663  0.4516 -1.5335
  242MOL    H5443916   7.575   0.321   1.319  0.7337  0.3186 -0.6074
  242MOL    H5543917   7.705   0.309   1.451 -0.2648 -0.0109 -0.1499
  242MOL    C5643918   7.314   0.038   1.464 -0.6767 -0.6205  0.0787
  242MOL    C5743919   7.296   8.043   1.405  0.2609 -0.2157  0.1139
  242MOL    C5843920   7.201   0.138   1.432 -0.1936 -0.2069 -0.2095
  242MOL    O5943921   7.078   0.111   1.426 -0.4873  0.4495 -0.5281
  242MOL    O6043922   7.243   0.258   1.402  0.1038  0.1246  0.9787
  242MOL    H6143923   7.320   0.025   1.572 -2.6196 -1.2065  0.1342
  242MOL    H6243924   7.231   8.057   1.318  0.4896 -2.5935 -0.4805
  242MOL    H6343925   7.382   7.980   1.382  1.7570  1.6606  0.4623
  242MOL    H6443926   7.232   7.978   1.464  0.6577 -1.8225 -1.1687
  242MOL    C6543927   7.151   0.363   1.354 -0.0752  0.5254  0.6322
  242MOL    C6643928   7.240   0.463   1.271  0.3331  0.1437  0.6729
  242MOL    C6743929   7.072   0.436   1.466  0.7020  0.5576  0.0941
  242MOL    O6843930   7.103   0.421   1.582  0.1088 -0.2533  0.0077
  242MOL    O6943931   6.977   0.522   1.413 -0.0351 -0.0864  0.0613
  242MOL    H7043932   7.077   0.326   1.283  0.2438  0.3255  0.4007
  242MOL    H7143933   7.284   0.412   1.185  5.0191 -2.2134  4.2147
  242MOL    H7243934   7.174   0.539   1.229  0.9241 -0.2781 -1.0238
  242MOL    H7343935   7.322   0.503   1.330 -0.6293 -1.9619  3.5848
  242MOL    C7443936   6.902   0.598   1.504 -0.4970 -0.8718  0.0243
  242MOL    C7543937   6.760   0.614   1.460 -0.8105 -0.7815  0.7350
  242MOL    C7643938   6.981   0.733   1.530 -0.5275  0.2768 -0.7252
  242MOL    O7743939   7.080   0.751   1.458  0.2976  0.0314 -0.0463
  242MOL    O7843940   6.936   0.817   1.629  0.3217 -0.5644  0.0389
  242MOL    H7943941   6.896   0.548   1.600  4.0162  1.8359  1.8320
  242MOL    H8043942   6.752   0.671   1.367 -2.2242 -1.4990  0.3947
  242MOL    H8143943   6.692   0.528   1.459 -2.3432  0.3461  3.3243
  242MOL    H8243944   6.711   0.687   1.524  0.8404  1.3692 -0.3810
  242MOL    C8343945   6.998   0.944   1.659  0.0597  0.9112 -0.4421
  242MOL    C8443946   6.969   0.977   1.799  0.3888  0.1342 -0.2013
  242MOL    C8543947   6.956   1.051   1.561 -0.7163  0.3802  0.4003
  242MOL    O8643948   7.033   1.124   1.506  0.3711 -0.1195  0.7533
  242MOL    O8743949   6.821   1.059   1.552  0.0676 -0.9715 -0.4108
  242MOL    H8843950   7.105   0.931   1.644 -0.0183  0.7486 -0.8748
  242MOL    H8943951   7.006   0.894   1.858 -0.5894 -1.2046 -1.4249
  242MOL    H9043952   7.018   1.071   1.827  0.8689  0.4347 -1.9600
  242MOL    H9143953   6.863   0.988   1.822  0.4887 -0.1033  0.3764
  242MOL    C9243954   6.763   1.141   1.448  0.3249  0.4454  0.4623
  242MOL    C9343955   6.617   1.164   1.505  0.1444  0.5772  0.1989
  242MOL    C9443956   6.768   1.071   1.311 -0.0044  0.8925 -0.0406
  242MOL    O9543957   6.670   1.007   1.271 -0.1003  0.2288 -0.2482
  242MOL    O9643958   6.882   1.078   1.245 -0.3834  0.3090  0.3726
  242MOL    H9743959   6.814   1.237   1.441 -0.3862  0.8858  1.2442
  242MOL    H9843960   6.562   1.232   1.440 -1.7447 -2.8006 -1.8745
  242MOL    H9943961   6.568   1.067   1.512 -0.9395  1.1865  1.1794
  242MOL   H10043962   6.624   1.204   1.606  0.5222 -0.5473  0.6248
  242MOL   C10143963   6.894   0.990   1.130 -0.6535 -0.2590  0.1467
  242MOL   C10243964   6.954   0.853   1.168 -0.3087  0.0517 -0.1309
  242MOL   C10343965   6.978   1.055   1.027  0.5736 -0.0098  0.2292
  242MOL   O10443966   7.031   1.166   1.043  0.1565 -0.0133  1.0103
  242MOL   O10543967   6.999   0.982   0.921  0.1288  0.0052 -0.1868
  242MOL   H10643968   6.797   0.975   1.082 -0.7209 -1.9454  0.7776
  242MOL   H10743969   6.888   0.782   1.218  2.1673 -1.2666  1.3862
  242MOL   H10843970   6.979   0.800   1.077 -2.4864 -0.5479 -0.3969
  242MOL   H10943971   7.042   0.876   1.229  0.6315 -0.5486 -1.2406
  242MOL   C11043972   7.115   0.999   0.833 -0.1929  0.3762 -0.5045
  242MOL   C11143973   7.068   1.076   0.707  0.0619  0.2883  0.1376
  242MOL   C11243974   7.181   0.865   0.806  0.5755  0.2755  0.2726
  242MOL   O11343975   7.241   0.845   0.699 -0.2578  0.1892  0.0792
  242MOL   O11443976   7.156   0.765   0.898  0.1008  0.2477 -0.7932
  242MOL   H11543977   7.202   1.054   0.868 -1.5495  1.9237  0.5549
  242MOL   H11643978   7.148   1.111   0.641 -2.0821 -0.1905 -2.7833
  242MOL   H11743979   7.011   1.010   0.643  0.9367 -2.2242  1.8982
  242MOL   H11843980   7.008   1.166   0.724  0.2067  0.4365 -0.1339
  242MOL   C11943981   7.196   0.627   0.880 -0.2238 -0.1723 -0.7012
  242MOL   C12043982   7.115   0.516   0.945  0.2180  0.6575  0.1249
  242MOL   C12143983   7.349   0.612   0.899  0.7242  0.0932  0.0622
  242MOL   O12243984   7.417   0.577   0.809 -0.0088  0.4082  0.1147
  242MOL   O12343985   7.386   0.647   1.019 -0.5007 -0.0382  0.0519
  242MOL   H12443986   7.186   0.613   0.772 -0.8439  1.0617 -0.8128
  242MOL   H12543987   7.042   0.549   1.019 -1.8376 -3.2217 -0.0834
  242MOL   H12643988   7.053   0.476   0.865  1.0501  1.6064 -1.0283
  242MOL   H12743989   7.173   0.432   0.984  2.1585  1.0958 -1.7269
  242MOL   C12843990   7.526   0.666   1.056  0.1919  0.5998 -0.0848
  242MOL   C12943991   7.539   0.633   1.209  0.3193 -0.1464 -0.4297
  242MOL   C13043992   7.564   0.812   1.028 -0.4798  0.7822  0.6295
  242MOL   O13143993   7.484   0.901   1.005  1.0050  0.0322  0.2210
  242MOL   O13243994   7.699   0.824   1.015 -0.4003  0.5523  0.0846
  242MOL   H13343995   7.596   0.601   1.003 -1.5287 -2.2267  1.0456
  242MOL   H13443996   7.454   0.676   1.263  0.0787  0.2205 -1.0988
  242MOL   H13543997   7.533   0.527   1.231  1.3538  0.2174  1.7008
  242MOL   H13643998   7.625   0.680   1.256 -1.4750 -0.2312  3.1979
  242MOL   C13743999   7.762   0.941   0.957  0.0123  0.4092  0.2879
  242MOL   C13844000   7.766   0.937   0.806  0.0245  0.4054 -0.1165
  242MOL   C13944001   7.905   0.955   1.018 -0.3306  0.9745 -0.3169
  242MOL   O14044002   7.921   1.045   1.100  0.0774  0.7232 -0.2282
  242MOL   O14144003   7.997   0.866   0.979 -0.1804  0.9894 -0.6110
  242MOL   H14244004   7.712   1.032   0.990  3.6716  1.6006  2.7614
  242MOL   H14344005   7.813   1.020   0.752 -0.7324  2.1650  1.8363
  242MOL   H14444006   7.810   0.846   0.766 -0.9618  0.9362 -2.5225
  242MOL   H14544007   7.663   0.949   0.772 -0.3853 -1.1442  0.5497
  242MOL   C14644008   8.138   0.883   1.012 -0.8091  0.2213 -0.6182
  242MOL   C14744009   0.067   0.801   0.906 -0.1908 -0.2752 -0.1975
  242MOL   C14844010   0.028   0.842   1.161 -0.3193  0.6745 -0.0808
  242MOL   O14944011   0.002   0.731   1.212  0.3830  0.1313  0.0793
  242MOL   O15044012   0.099   0.930   1.215  0.2283 -0.3042  0.1502
  242MOL   H15144013   0.028   0.985   1.005  0.1750 -0.1326 -0.5537
  242MOL   H15244014   0.033   0.829   0.806  1.5315 -0.4038 -0.8292
  242MOL   H15344015   0.173   0.822   0.909 -0.2979  0.1181  0.9449
  242MOL   H15444016   0.053   0.693   0.909  0.3250 -0.3060  1.5733
  242MOL   C15544017   0.182   0.907   1.331 -0.4708 -0.2941  0.0858
  242MOL   C15644018   0.198   1.041   1.399 -0.2100 -0.0610  0.4627
  242MOL   C15744019   0.315   0.840   1.290 -0.2012 -0.1433  0.5871
  242MOL   O15844020   0.339   0.810   1.171 -0.3584  0.3490  0.2933
  242MOL   O15944021   0.386   0.814   1.395  0.5101  0.0309  0.2081
  242MOL   H16044022   0.129   0.843   1.403  0.7478 -0.3868  0.9254
  242MOL   H16144023   0.223   1.040   1.506 -0.7120 -0.2455  0.5782
  242MOL   H16244024   0.274   1.097   1.344  0.0442 -1.8627 -1.0924
  242MOL   H16344025   0.109   1.102   1.392  0.1429  0.4555  0.4224
  242MOL   C16444026   0.517   0.746   1.377  0.5133  0.4991 -0.3553
  242MOL   C16544027   0.502   0.598   1.360  0.4542 -0.1187 -0.2401
  242MOL   C16644028   0.610   0.769   1.489 -0.1937  0.7831 -0.7672
  242MOL   O16744029   0.577   0.788   1.603  0.4627  0.2447 -0.1806
  242MOL   O16844030   0.743   0.767   1.460  0.4556  0.2135 -0.4279
  242MOL   H16944031   0.567   0.771   1.284 -0.8352 -0.6183 -1.4049
  242MOL   H17044032   0.440   0.549   1.435 -0.6652  0.5587 -0.7111
  242MOL   H17144033   0.477   0.566   1.259 -2.4304  0.5049  0.2280
  242MOL   H17244034   0.596   0.544   1.376  0.5884  0.5902  1.4056
  242MOL   C17344035   0.844   0.758   1.560 -0.2718  0.8287  0.6024
  242MOL   C17444036   0.841   0.636   1.654  0.2104  0.2400 -0.3863
  242MOL   C17544037   0.856   0.896   1.626 -0.4637 -0.7504 -0.3713
  242MOL   O17644038   0.816   0.914   1.742 -0.2199 -0.0959  0.1236
  242MOL   O17744039   0.905   0.994   1.543  0.0877  0.0953  0.0507
  242MOL   H17844040   0.939   0.736   1.512 -1.8859  0.7301 -2.7059
  242MOL   H17944041   0.936   0.628   1.707 -0.5562 -1.7020  0.7647
  242MOL   H18044042   0.759   0.654   1.723 -0.3057  0.7431 -1.1257
  242MOL   H18144043   0.833   0.550   1.588  0.8980 -1.0732  1.2043
  242MOL   H18244044   0.907   1.080   1.583  3.3104  0.6596 -1.1397
  243MOL     C144045   0.188   0.516   4.548 -0.1843  0.5364 -0.4793
  243MOL     C244046   0.164   0.596   4.420  0.8458 -0.5817  0.2647
  243MOL     C344047   0.286   0.590   4.644  0.2149 -0.2960 -0.2696
  243MOL     O444048   0.356   0.688   4.610  0.0860  0.6257 -0.0822
  243MOL     O544049   0.285   0.536   4.766 -0.5084  0.4709 -0.2144
  243MOL     H644050   0.099   0.498   4.607  0.8356 -0.2131  0.8506
  243MOL     H744051   0.254   0.608   4.360 -0.6425  4.0000 -1.2405
  243MOL     H844052   0.098   0.543   4.352  0.2262 -0.4873  0.7906
  243MOL     H944053   0.122   0.696   4.429 -1.4202 -1.5170  0.2582
  243MOL    H1044054   0.235   0.420   4.528  0.7634  0.9818 -0.4277
  243MOL    C1144055   0.372   0.587   4.870 -0.2233  0.2003  1.1600
  243MOL    C1244056   0.507   0.521   4.852 -0.7814  0.0672  0.2102
  243MOL    C1344057   0.310   0.560   5.013  0.1115 -0.2755 -0.6783
  243MOL    O1444058   0.284   0.655   5.092 -0.2337  0.5765  0.5017
  243MOL    O1544059   0.296   0.427   5.042  0.4926  0.2777 -0.1086
  243MOL    H1644060   0.375   0.696   4.865  0.2730  0.1646  0.6631
  243MOL    H1744061   0.493   0.414   4.872 -0.4200  0.4268  2.4820
  243MOL    H1844062   0.536   0.526   4.746  1.7339 -0.0105  0.8558
  243MOL    H1944063   0.581   0.563   4.920  0.1227 -0.9737 -0.1084
  243MOL    C2044064   0.271   0.386   5.177 -0.1725 -0.6241  0.3771
  243MOL    C2144065   0.273   0.226   5.167 -0.0642 -0.3502  0.1880
  243MOL    C2244066   0.133   0.429   5.236 -0.3937  0.0431  0.0126
  243MOL    O2344067   0.045   0.480   5.166 -0.2172 -0.0720  0.2034
  243MOL    O2444068   0.122   0.416   5.371  0.0643 -0.1978 -0.0360
  243MOL    H2544069   0.345   0.427   5.245 -0.3078  1.3603 -0.6588
  243MOL    H2644070   0.366   0.188   5.124  0.5377  1.2471  0.0632
  243MOL    H2744071   0.242   0.169   5.254  0.4254  0.0479  0.6218
  243MOL    H2844072   0.195   0.192   5.098  0.0460 -1.3618  0.5555
  243MOL    C2944073   0.006   0.439   5.457  0.2112  0.1172 -0.6574
  243MOL    C3044074   0.054   0.505   5.584 -0.5300 -0.4213  0.3048
  243MOL    C3144075   8.082   0.303   5.482 -0.4927  0.2334 -0.0326
  243MOL    O3244076   8.117   0.197   5.432 -0.2763 -0.3576  0.6338
  243MOL    O3344077   7.990   0.305   5.586 -0.5217 -0.2145  0.4371
  243MOL    H3444078   8.083   0.508   5.412 -0.6827 -0.3266  0.0484
  243MOL    H3544079   0.091   0.605   5.562 -1.6360 -0.3517 -1.3008
  243MOL    H3644080   8.121   0.512   5.658 -0.0304  5.7421  0.4867
  243MOL    H3744081   0.141   0.452   5.623  0.3803 -0.5455 -1.8655
  243MOL    C3844082   7.957   0.189   5.660  0.5330 -0.2556  0.0806
  243MOL    C3944083   7.800   0.189   5.665 -0.3689  0.2706 -0.2220
  243MOL    C4044084   8.025   0.191   5.798  0.6934  0.5930 -0.1315
  243MOL    O4144085   7.958   0.196   5.900  0.3762  0.0197 -0.4050
  243MOL    O4244086   0.014   0.211   5.794  0.2458  0.0092 -0.9193
  243MOL    H4344087   7.980   0.092   5.615 -0.1353 -0.5707  0.4227
  243MOL    H4444088   7.772   0.292   5.691  0.0921 -0.3110  2.7699
  243MOL    H4544089   7.756   0.153   5.572 -1.0414 -2.2284  1.0345
  243MOL    H4644090   7.768   0.125   5.748  0.8887 -2.0812 -1.5072
  243MOL    C4744091   0.088   0.211   5.915  0.3749  0.3166  0.0115
  243MOL    C4844092   0.189   0.324   5.912  0.1552 -0.2066  0.2437
  243MOL    C4944093   0.156   0.076   5.942  0.1503  0.4960 -0.4044
  243MOL    O5044094   0.169   8.137   5.855  0.1347 -0.4960  0.6357
  243MOL    O5144095   0.183   0.052   6.078 -0.2680 -0.7641 -0.0260
  243MOL    H5244096   0.025   0.226   6.002  2.2983  0.9999  1.3033
  243MOL    H5344097   0.277   0.295   5.854  0.1198  0.0890  0.0427
  243MOL    H5444098   0.154   0.426   5.892  3.0542  0.6490 -0.7118
  243MOL    H5544099   0.223   0.327   6.016  4.1258  0.9360 -0.9905
  243MOL    C5644100   0.225   8.078   6.131 -0.4489  0.3829  0.0022
  243MOL    C5744101   0.215   8.094   6.282 -0.3330  0.1642 -0.3332
  243MOL    C5844102   0.372   8.048   6.092  0.0938 -0.2198  0.6707
  243MOL    O5944103   0.406   7.943   6.032  0.0867  0.3378 -0.3811
  243MOL    O6044104   0.454   0.002   6.129  0.4017  0.0603  0.2313
  243MOL    H6144105   0.173   7.996   6.081  0.5317 -0.3505  0.1922
  243MOL    H6244106   0.266   8.009   6.327  2.6350  2.1562  0.2088
  243MOL    H6344107   0.253   0.042   6.320 -0.1897  0.7350 -1.8670
  243MOL    H6444108   0.112   8.086   6.315  0.0376 -1.6437  0.4274
  243MOL    C6544109   0.595   8.136   6.118 -0.1924 -0.2216 -0.7424
  243MOL    C6644110   0.648   8.104   6.264 -0.5470  0.1130  0.0658
  243MOL    C6744111   0.656   0.109   6.049 -0.4374 -0.3452  0.3105
  243MOL    O6844112   0.773   0.117   6.010 -0.5503 -0.4746 -0.2906
  243MOL    O6944113   0.570   0.215   6.043 -0.4288 -0.1076  0.3091
  243MOL    H7044114   0.624   8.055   6.050 -1.1134 -0.4719 -0.8496
  243MOL    H7144115   0.625   0.036   6.334 -2.5174 -0.4851  0.1250
  243MOL    H7244116   0.596   8.018   6.304 -1.3935 -0.1798 -1.6440
  243MOL    H7344117   0.755   8.080   6.256 -0.6051 -0.8800  2.0918
  243MOL    C7444118   0.607   0.330   5.973  0.2858 -0.0187 -0.0142
  243MOL    C7544119   0.498   0.443   6.004 -0.2919  0.4180 -0.6331
  243MOL    C7644120   0.634   0.298   5.823 -0.4518 -0.3368  0.2753
  243MOL    O7744121   0.744   0.329   5.774  0.3475 -0.1087  0.9711
  243MOL    O7844122   0.523   0.243   5.762  0.1332  0.3290 -0.1842
  243MOL    H7944123   0.698   0.364   6.022  0.9135 -0.6194 -0.7602
  243MOL    H8044124   0.435   0.432   6.092  0.3380  1.3862 -0.0500
  243MOL    H8144125   0.546   0.535   6.036 -0.2273 -0.3248  1.4695
  243MOL    H8244126   0.430   0.475   5.925 -0.4541  0.6329 -0.4074
  243MOL    C8344127   0.517   0.195   5.624 -0.1801  0.3326 -0.3116
  243MOL    C8444128   0.372   0.212   5.571  0.0920  0.1150 -0.6328
  243MOL    C8544129   0.560   0.043   5.619 -0.1383  0.6713 -0.6988
  243MOL    O8644130   0.594   8.124   5.715  0.6999 -0.5490  0.1620
  243MOL    O8744131   0.566   0.007   5.487 -0.2990  0.0145  0.0323
  243MOL    H8844132   0.583   0.254   5.561 -0.7778  1.7474  0.3598
  243MOL    H8944133   0.308   0.135   5.615 -0.2305  1.5441  1.4473
  243MOL    H9044134   0.328   0.311   5.571  1.1973  0.6164 -1.2371
  243MOL    H9144135   0.367   0.185   5.465  1.1718  1.3883 -1.0109
  243MOL    C9244136   0.633   8.038   5.447 -0.1166  0.3644 -0.1811
  243MOL    C9344137   0.690   8.071   5.310  0.4980 -0.2144  0.4518
  243MOL    C9444138   0.537   7.918   5.457 -0.2167  0.6779 -0.2769
  243MOL    O9544139   0.485   7.877   5.355 -0.6550  0.2254 -0.1256
  243MOL    O9644140   0.515   7.872   5.585 -0.5206  0.3137  0.2200
  243MOL    H9744141   0.718   8.020   5.513  0.3283 -1.9536 -1.3711
  243MOL    H9844142   0.776   8.012   5.279  1.5175  0.3128  2.1761
  243MOL    H9944143   0.623   8.065   5.225 -0.5526 -1.3604  1.3464
  243MOL   H10044144   0.731   0.025   5.310  0.2449 -0.1088 -0.9574
  243MOL   C10144145   0.442   7.759   5.615  0.4960  0.3893  0.2506
  243MOL   C10244146   0.396   7.777   5.758  0.6039  0.6128 -0.5068
  243MOL   C10344147   0.524   7.633   5.592  0.0705  0.3194 -0.0140
  243MOL   O10444148   0.646   7.637   5.577  0.0651 -1.0040  0.5684
  243MOL   O10544149   0.439   7.523   5.583  0.1633  0.0025 -0.3701
  243MOL   H10644150   0.345   7.756   5.565 -0.3941 -0.6961  1.9800
  243MOL   H10744151   0.314   7.849   5.763  0.9144  0.9951 -0.9534
  243MOL   H10844152   0.349   7.682   5.784 -1.8636  1.4990 -1.5372
  243MOL   H10944153   0.465   7.822   5.828  2.1289 -1.1576 -0.8467
  243MOL   C11044154   0.477   7.386   5.578  0.6759  0.3647  0.3214
  243MOL   C11144155   0.506   7.354   5.425 -0.2722  0.5481  0.1257
  243MOL   C11244156   0.354   7.304   5.626  0.5281  0.4885 -0.6920
  243MOL   O11344157   0.239   7.351   5.634 -0.3105  0.0402 -0.1898
  243MOL   O11444158   0.393   7.184   5.653  0.3385 -0.3140 -0.0115
  243MOL   H11544159   0.565   7.365   5.639 -0.4106  2.4773  2.7080
  243MOL   H11644160   0.409   7.356   5.374 -0.5157 -0.5547  0.5334
  243MOL   H11744161   0.572   7.425   5.376 -0.4605 -1.2022 -2.7895
  243MOL   H11844162   0.553   7.256   5.414  0.5869  1.0880 -1.1268
  243MOL   C11944163   0.311   7.076   5.682 -0.3400  0.3749  0.1987
  243MOL   C12044164   0.363   6.988   5.806 -0.0451 -0.6272  0.5076
  243MOL   C12144165   0.285   6.988   5.549 -0.5835  0.3481 -0.7133
  243MOL   O12244166   0.175   6.955   5.514 -0.2700 -0.6802  0.1951
  243MOL   O12344167   0.399   6.939   5.500  0.9038 -0.2982  0.5485
  243MOL   H12444168   0.218   7.123   5.712 -2.2060 -1.7312 -2.0625
  243MOL   H12544169   0.278   6.951   5.863 -0.1575  0.2408  0.9104
  243MOL   H12644170   0.426   6.908   5.767 -0.3094  0.4355 -2.1324
  243MOL   H12744171   0.425   7.045   5.876  2.5187 -1.8103 -0.7309
  243MOL   C12844172   0.390   6.851   5.386 -0.0305 -0.5208  0.9307
  243MOL   C12944173   0.508   6.754   5.399 -0.1643  0.1449  0.4639
  243MOL   C13044174   0.400   6.935   5.255  0.3781  1.1148  0.3242
  243MOL   O13144175   0.423   7.055   5.255 -0.0879  0.0360  0.3562
  243MOL   O13244176   0.383   6.851   5.149  0.0620  0.1714  0.2570
  243MOL   H13344177   0.301   6.788   5.390 -0.3643 -0.0075  1.7160
  243MOL   H13444178   0.601   6.788   5.354 -0.9026 -1.6281 -2.4947
  243MOL   H13544179   0.528   6.730   5.504 -1.3953  1.5501  1.0527
  243MOL   H13644180   0.472   6.667   5.344  1.6489  0.8067 -1.8526
  243MOL   C13744181   0.400   6.892   5.013  0.3869  0.3888 -0.1487
  243MOL   C13844182   0.312   6.797   4.937  1.0632  0.8822  0.1647
  243MOL   C13944183   0.549   6.886   4.975  0.1649 -0.3264  0.2167
  243MOL   O14044184   0.593   6.826   4.875 -0.6076  0.0095 -0.4123
  243MOL   O14144185   0.616   6.960   5.063  0.2464 -0.8441  0.7282
  243MOL   H14244186   0.364   6.994   5.004 -0.2302  0.1858  0.0238
  243MOL   H14344187   0.207   6.821   4.958  0.5755  0.0746 -1.2503
  243MOL   H14444188   0.316   6.804   4.828 -2.6114  0.0112 -0.0942
  243MOL   H14544189   0.333   6.695   4.968  0.7561  0.7291 -0.1131
  243MOL   C14644190   0.756   6.961   5.050 -0.3297 -0.2369 -0.0807
  243MOL   C14744191   0.820   6.932   5.183  1.1980  0.1050 -0.0716
  243MOL   C14844192   0.794   7.102   5.013  0.7053 -0.4286 -0.5648
  243MOL   O14944193   0.903   7.150   5.035 -1.0217 -0.4289 -0.2302
  243MOL   O15044194   0.703   7.160   4.937 -0.2506 -0.0116  0.1948
  243MOL   H15144195   0.800   6.884   4.987 -0.2671  0.9815 -1.5624
  243MOL   H15244196   0.929   6.933   5.183  1.2137 -0.5400  0.9776
  243MOL   H15344197   0.785   6.999   5.262 -1.7051 -3.7775  2.1418
  243MOL   H15444198   0.790   6.829   5.202  2.0534  0.0231  0.9017
  243MOL   C15544199   0.710   7.308   4.915  0.3813  0.3604  0.3133
  243MOL   C15644200   0.822   7.343   4.815  0.0344 -0.1914  0.0887
  243MOL   C15744201   0.699   7.394   5.045 -0.8561 -0.9270 -0.1184
  243MOL   O15844202   0.731   7.362   5.161 -0.2471 -0.1131 -0.3019
  243MOL   O15944203   0.646   7.516   5.017 -0.6815  0.4230  0.1395
  243MOL   H16044204   0.619   7.335   4.862  0.8961  0.3747 -0.5857
  243MOL   H16144205   0.820   7.446   4.780 -2.0847 -1.4168 -3.5663
  243MOL   H16244206   0.922   7.321   4.853 -0.4525  1.0089  2.1516
  243MOL   H16344207   0.821   7.278   4.728 -1.5227 -1.3141  0.9152
  243MOL   C16444208   0.650   7.627   5.108  0.0844 -0.0252 -0.4063
  243MOL   C16544209   0.544   7.731   5.060  0.3306  0.2615  0.2623
  243MOL   C16644210   0.781   7.686   5.125 -0.2022 -0.0255 -0.0228
  243MOL   O16744211   0.824   7.721   5.235 -0.0122  0.1726  0.6492
  243MOL   O16844212   0.852   7.706   5.013  0.3655 -0.2270  0.0560
  243MOL   H16944213   0.612   7.585   5.201 -5.0691 -0.8502 -2.7310
  243MOL   H17044214   0.546   7.827   5.112 -1.7898 -0.3413  1.5101
  243MOL   H17144215   0.569   7.740   4.954  1.3450  1.3994  0.5837
  243MOL   H17244216   0.444   7.692   5.076 -0.1653  1.6080  0.4969
  243MOL   C17344217   0.995   7.724   5.024  0.1152  0.1070 -0.3538
  243MOL   C17444218   1.042   7.829   4.918 -0.7877  0.4117  0.0239
  243MOL   C17544219   1.066   7.587   5.007  0.4152  0.3860  0.7762
  243MOL   O17644220   1.176   7.572   4.949 -0.5270  0.0789  0.1272
  243MOL   O17744221   1.016   7.488   5.080 -0.0153  0.1090  0.1479
  243MOL   H17844222   1.016   7.769   5.121  0.5569  0.9669 -0.8455
  243MOL   H17944223   1.150   7.832   4.901 -0.4408 -2.8519  1.2593
  243MOL   H18044224   1.005   7.817   4.816  1.9542  1.9990 -1.1995
  243MOL   H18144225   1.009   7.928   4.951 -1.2743 -0.1540  1.2645
  243MOL   H18244226   1.067   7.410   5.063 -1.2515 -1.0949  1.8261
  244MOL     C144227   5.531   1.147   0.150 -0.3208  0.0280  0.0508
  244MOL     C244228   5.434   1.229   0.053 -0.6949  0.5032  0.0150
  244MOL     C344229   5.623   1.237   0.231  0.0178  0.1470  0.0761
  244MOL     O444230   5.664   1.345   0.189  0.1412  0.2554 -0.2004
  244MOL     O544231   5.672   1.181   0.342  0.4519  0.0565  0.1530
  244MOL     H644232   5.463   1.093   0.215 -0.5411  0.6053  0.3093
  244MOL     H744233   5.479   1.240   8.102  0.3344  0.4985  0.4739
  244MOL     H844234   5.331   1.192   0.045 -0.2027 -1.0435  0.5280
  244MOL     H944235   5.421   1.330   0.092  2.4189  0.3085  1.7320
  244MOL    H1044236   5.580   1.069   0.092 -1.2682 -1.4941  1.2736
  244MOL    C1144237   5.762   1.246   0.430 -0.6765 -0.2116  0.0146
  244MOL    C1244238   5.903   1.188   0.412 -0.2187  0.0563 -0.5813
  244MOL    C1344239   5.702   1.215   0.572 -0.2994  0.1896 -0.2703
  244MOL    O1444240   5.684   1.096   0.604 -0.0284  1.0609 -0.5756
  244MOL    O1544241   5.670   1.326   0.642 -0.3858  0.3489 -0.4433
  244MOL    H1644242   5.767   1.354   0.419 -1.2691 -0.0665  1.0823
  244MOL    H1744243   5.934   1.209   0.310 -0.4860  3.3831 -0.0131
  244MOL    H1844244   5.967   1.255   0.468 -0.4381  0.9704 -1.4222
  244MOL    H1944245   5.906   1.081   0.434 -1.1134  0.1085 -0.1705
  244MOL    C2044246   5.633   1.329   0.783 -0.2779 -0.1534  0.1836
  244MOL    C2144247   5.565   1.466   0.814 -0.3011 -0.6214 -0.2193
  244MOL    C2244248   5.753   1.319   0.874 -0.2834  0.6024  0.0674
  244MOL    O2344249   5.750   1.248   0.972  0.1140 -0.0077  0.2455
  244MOL    O2444250   5.858   1.380   0.831  0.1681 -0.6161  0.3301
  244MOL    H2544251   5.562   1.251   0.811 -0.7972  0.2314 -0.0827
  244MOL    H2644252   5.573   1.486   0.921  1.1458  0.3930 -0.4893
  244MOL    H2744253   5.611   1.553   0.766 -1.4521  0.3010  0.3339
  244MOL    H2844254   5.462   1.468   0.780 -0.0568  0.1862 -0.9235
  244MOL    C2944255   5.972   1.401   0.916 -0.1578 -0.2318 -0.0229
  244MOL    C3044256   5.944   1.487   1.045  0.1334 -0.3431  0.6680
  244MOL    C3144257   6.073   1.470   0.823 -0.4079 -0.5679 -0.2748
  244MOL    O3244258   6.184   1.436   0.797  0.3281 -0.3210 -0.5467
  244MOL    O3344259   6.015   1.580   0.775  0.0840 -0.2714 -0.3001
  244MOL    H3444260   5.997   1.297   0.938 -2.6485 -1.0335 -0.7610
  244MOL    H3544261   5.969   1.422   1.128  0.0481 -0.9526  0.2171
  244MOL    H3644262   6.003   1.578   1.042 -1.3561  0.6240  0.0661
  244MOL    H3744263   5.840   1.521   1.053 -0.2947 -0.8084 -2.4001
  244MOL    C3844264   6.071   1.644   0.657  0.4539 -0.6687 -0.2375
  244MOL    C3944265   6.027   1.788   0.657  0.9918  0.5541  0.0357
  244MOL    C4044266   6.001   1.570   0.542  0.3219  0.1137 -0.3164
  244MOL    O4144267   5.875   1.545   0.542 -0.3345 -0.1977 -0.1752
  244MOL    O4244268   6.077   1.557   0.424 -0.3155 -0.3404 -0.1458
  244MOL    H4344269   6.180   1.636   0.654  0.3346 -1.8504 -1.7549
  244MOL    H4444270   6.054   1.848   0.744  1.5445 -0.1032  0.3195
  244MOL    H4544271   6.057   1.833   0.563  3.2532 -0.7952  0.0937
  244MOL    H4644272   5.918   1.792   0.666  0.6295 -1.4772 -2.8542
  244MOL    C4744273   6.008   1.520   0.308 -0.8020  0.0137  0.0583
  244MOL    C4844274   6.131   1.496   0.212  0.0923 -0.5460 -0.2341
  244MOL    C4944275   5.914   1.630   0.255 -0.7999  0.1420  0.0361
  244MOL    O5044276   5.900   1.737   0.313  1.0151  0.0059 -0.5151
  244MOL    O5144277   5.857   1.593   0.146  0.0173  0.3642  0.0668
  244MOL    H5244278   5.952   1.428   0.324  0.0356 -0.3268  1.1401
  244MOL    H5344279   6.102   1.464   0.112 -3.5819 -0.3971  0.7010
  244MOL    H5444280   6.171   1.593   0.184  1.9750 -0.4625  2.5855
  244MOL    H5544281   6.201   1.432   0.266 -0.9257 -0.8512  0.7570
  244MOL    C5644282   5.736   1.659   0.097  0.2443  0.0034 -0.6344
  244MOL    C5744283   5.689   1.584   8.115 -0.0124  0.4743 -0.2023
  244MOL    C5844284   5.760   1.812   0.055  0.0270 -0.0021 -0.0931
  244MOL    O5944285   5.689   1.900   0.106 -0.2682  0.3907 -0.0165
  244MOL    O6044286   5.859   1.827   8.121 -0.2074  0.3379  1.2214
  244MOL    H6144287   5.658   1.661   0.173  1.1208  1.0084  0.2573
  244MOL    H6244288   5.689   1.651   8.029  0.7856 -0.9879 -1.3803
  244MOL    H6344289   5.749   1.495   8.094 -0.1779  0.2777  0.1540
  244MOL    H6444290   5.591   1.550   8.147  0.4787  2.5090  3.6751
  244MOL    C6544291   5.914   1.956   8.109  0.0442 -0.2119  0.6863
  244MOL    C6644292   5.918   2.006   7.961  0.5086 -0.0202  0.1529
  244MOL    C6744293   6.064   1.945   0.014  0.5435 -0.0621 -0.0294
  244MOL    O6844294   6.123   1.835   0.023  0.4314 -0.0273  0.4988
  244MOL    O6944295   6.117   2.061   0.056 -0.1108  0.3845  0.5195
  244MOL    H7044296   5.871   2.030   0.029 -2.0262 -0.5945 -0.1962
  244MOL    H7144297   5.966   1.931   7.898 -0.6416  0.4774 -1.3549
  244MOL    H7244298   5.824   2.042   7.918  0.6270  0.3834  0.2295
  244MOL    H7344299   5.987   2.090   7.965 -0.0333  0.4719 -0.8224
  244MOL    C7444300   6.259   2.061   0.102 -0.5962 -0.5305  0.1931
  244MOL    C7544301   6.284   2.198   0.173  0.1518  0.4024 -0.5431
  244MOL    C7644302   6.354   2.045   8.132 -0.4463  0.6986  0.2623
  244MOL    O7744303   6.310   2.046   8.017  0.4969 -0.4385 -0.3282
  244MOL    O7844304   6.479   2.036   0.023  0.1478 -0.3455  0.0051
  244MOL    H7944305   6.278   1.981   0.173  0.2548 -0.7127 -0.2305
  244MOL    H8044306   6.233   2.269   0.108 -0.2101 -0.0942 -0.8073
  244MOL    H8144307   6.222   2.200   0.262 -0.2067 -2.0407 -0.7036
  244MOL    H8244308   6.389   2.211   0.199  0.3493  0.1174 -1.1795
  244MOL    C8344309   6.587   2.044   8.075 -0.0091 -0.8872  0.6237
  244MOL    C8444310   6.701   1.974   0.003  0.3130  0.2695 -0.1752
  244MOL    C8544311   6.622   2.190   8.058 -0.2042  0.2249 -0.1724
  244MOL    O8644312   6.564   2.272   8.127  0.0079  0.2462  0.0853
  244MOL    O8744313   6.715   2.216   7.954 -0.7570 -0.1868  0.3442
  244MOL    H8844314   6.568   2.004   7.975  0.7848  1.6724 -0.5863
  244MOL    H8944315   6.686   1.866   0.008 -0.8864  0.3731 -1.3897
  244MOL    H9044316   6.796   1.985   8.099  0.1322 -1.4378 -0.9231
  244MOL    H9144317   6.731   2.009   0.102  2.8749 -1.3335 -0.3374
  244MOL    C9244318   6.726   2.353   7.910  0.3465 -0.8557  1.0334
  244MOL    C9344319   6.784   2.349   7.769 -0.3480 -0.0076 -0.4338
  244MOL    C9444320   6.801   2.437   8.007 -0.0541 -0.9827 -0.1384
  244MOL    O9544321   6.779   2.557   8.017  0.6528  0.8944  0.0666
  244MOL    O9644322   6.891   2.372   8.081 -0.3215 -0.1251 -0.1045
  244MOL    H9744323   6.636   2.414   7.899  0.0159 -1.1551  2.0060
  244MOL    H9844324   6.783   2.441   7.711  2.0904 -0.0488 -0.5632
  244MOL    H9944325   6.885   2.311   7.780  0.1267  1.2796 -0.2633
  244MOL   H10044326   6.728   2.279   7.706 -0.4164  0.4363 -0.8704
  244MOL   C10144327   6.972   2.441   0.035  0.8566 -0.1379  0.0611
  244MOL   C10244328   7.118   2.423   8.135  0.6073 -0.1301 -0.2938
  244MOL   C10344329   6.937   2.383   0.171  0.4578  0.4840 -0.7606
  244MOL   O10444330   6.887   2.273   0.193 -0.0253  0.4879  0.0879
  244MOL   O10544331   6.973   2.473   0.272 -0.9689 -0.3695  0.3214
  244MOL   H10644332   6.949   2.548   0.035  1.0987 -0.0859 -0.0437
  244MOL   H10744333   7.118   2.425   8.026 -0.9880 -1.0005 -0.3225
  244MOL   H10844334   7.178   2.509   0.019 -0.2648 -0.2913  1.8967
  244MOL   H10944335   7.163   2.328   0.016  0.8069 -1.1589 -3.8962
  244MOL   C11044336   6.965   2.427   0.406 -0.1709 -0.7211  0.0434
  244MOL   C11144337   6.936   2.560   0.477  0.1657 -0.3715  0.5841
  244MOL   C11244338   7.103   2.375   0.454  0.3880  0.9753  0.2283
  244MOL   O11344339   7.117   2.274   0.523 -0.3592  0.3465  0.0528
  244MOL   O11444340   7.209   2.452   0.412  0.2844  0.0850  0.1746
  244MOL   H11544341   6.881   2.358   0.417  0.2921 -1.2139  0.5079
  244MOL   H11644342   6.999   2.641   0.439  0.3823 -0.1241  1.4390
  244MOL   H11744343   6.838   2.604   0.464  0.6851  0.1234 -1.7910
  244MOL   H11844344   6.949   2.541   0.584  1.3319 -0.7765  0.3838
  244MOL   C11944345   7.341   2.427   0.444 -0.6116 -0.1986 -0.6871
  244MOL   C12044346   7.416   2.561   0.450 -0.2474 -0.0599 -0.1035
  244MOL   C12144347   7.398   2.312   0.355 -0.2569 -0.0998 -0.1143
  244MOL   O12244348   7.336   2.248   0.267  0.0350 -0.8253 -0.0964
  244MOL   O12344349   7.528   2.299   0.375 -0.5146 -0.5720 -0.0128
  244MOL   H12444350   7.335   2.393   0.547 -1.6326  2.6392  0.2283
  244MOL   H12544351   7.520   2.534   0.467 -0.2857 -0.1478 -0.0115
  244MOL   H12644352   7.414   2.621   0.359 -0.6213 -1.6829 -1.1826
  244MOL   H12744353   7.372   2.616   0.533  2.1376 -0.8096  1.7094
  244MOL   C12844354   7.614   2.196   0.318 -0.7223 -0.2964 -0.5952
  244MOL   C12944355   7.754   2.212   0.387 -0.0694  0.9169 -0.3824
  244MOL   C13044356   7.628   2.215   0.167 -1.0169  0.1081 -0.9632
  244MOL   O13144357   7.596   2.124   0.092  0.0689  0.1517  0.3402
  244MOL   O13244358   7.678   2.334   0.132 -0.6444  0.2218 -0.2836
  244MOL   H13344359   7.570   2.099   0.338  1.3607 -0.7140  2.2014
  244MOL   H13444360   7.829   2.153   0.335  0.9731  0.2865  1.7575
  244MOL   H13544361   7.792   2.314   0.401  1.0995  0.4653 -0.2530
  244MOL   H13644362   7.748   2.169   0.487 -0.3749 -0.2162 -0.8858
  244MOL   C13744363   7.677   2.380   8.146 -0.0505  0.0945 -0.2839
  244MOL   C13844364   7.777   2.490   8.141  1.1120  0.1772 -0.4385
  244MOL   C13944365   7.536   2.420   8.095  0.2936  0.0319  0.5276
  244MOL   O14044366   7.435   2.394   0.007  0.6303 -0.6324  0.1483
  244MOL   O14144367   7.549   2.479   7.979 -0.2914  0.2661 -0.0387
  244MOL   H14244368   7.717   2.304   8.079 -0.1209 -0.2133  0.0215
  244MOL   H14344369   7.864   2.465   0.055  0.5276 -0.3029  0.1968
  244MOL   H14444370   7.809   2.513   8.040  2.0949 -1.1796 -0.4563
  244MOL   H14544371   7.745   2.581   0.045 -1.5188  0.1048 -1.8672
  244MOL   C14644372   7.440   2.518   7.893 -0.1838 -0.6220 -0.1161
  244MOL   C14744373   7.461   2.516   7.742 -0.2325 -0.2396  0.1494
  244MOL   C14844374   7.389   2.656   7.939  0.4487 -0.0555 -0.1930
  244MOL   O14944375   7.277   2.673   7.975 -0.1622 -0.3746  0.1675
  244MOL   O15044376   7.491   2.743   7.934  0.3894 -0.2125 -0.2526
  244MOL   H15144377   7.364   2.440   7.900  1.5441 -2.1148  2.8804
  244MOL   H15244378   7.411   2.600   7.694 -2.1527 -0.3295  1.9242
  244MOL   H15344379   7.564   2.509   7.708 -1.0599 -1.2085 -2.2345
  244MOL   H15444380   7.423   2.419   7.708 -1.0465  0.1611 -0.1025
  244MOL   C15544381   7.474   2.875   7.993  0.0744 -0.7021  0.3003
  244MOL   C15644382   7.585   2.978   7.948 -0.0445 -0.4768 -0.1872
  244MOL   C15744383   7.458   2.878   0.002 -0.5415  1.1759  0.0848
  244MOL   O15844384   7.546   2.908   0.078 -0.7400 -0.0379 -0.0871
  244MOL   O15944385   7.333   2.848   0.045 -0.1535  0.7967  0.1613
  244MOL   H16044386   7.384   2.916   7.947 -1.2779 -3.7485  0.1220
  244MOL   H16144387   7.558   3.027   7.855  0.8941 -0.4491 -0.4486
  244MOL   H16244388   7.620   3.050   8.022 -2.8018 -0.4708  1.1853
  244MOL   H16344389   7.679   2.932   7.918 -0.5941 -0.3968 -2.0803
  244MOL   C16444390   7.284   2.853   0.179  0.2068 -0.5021  0.3591
  244MOL   C16544391   7.189   2.735   0.209  0.0788  0.4947  0.0620
  244MOL   C16644392   7.226   2.997   0.202  0.3608  0.9231 -0.2827
  244MOL   O16744393   7.299   3.090   0.179 -0.0591 -0.6286  0.6834
  244MOL   O16844394   7.095   2.994   0.247  0.3164 -0.1774  0.2866
  244MOL   H16944395   7.366   2.848   0.250  0.4987  0.9537  0.1283
  244MOL   H17044396   7.241   2.645   0.176 -0.9094  0.7363 -2.2564
  244MOL   H17144397   7.168   2.715   0.313  0.5998  1.2468  0.3178
  244MOL   H17244398   7.097   2.741   0.150  0.3543  2.4709 -0.1785
  244MOL   C17344399   7.035   3.109   0.314  0.4840 -0.2079 -0.1702
  244MOL   C17444400   7.048   3.108   0.469  0.4136 -1.1389 -0.0695
  244MOL   C17544401   6.889   3.115   0.272  0.1502 -0.1203 -0.9059
  244MOL   O17644402   6.850   3.207   0.208 -0.0615 -0.0214  0.1612
  244MOL   O17744403   6.807   3.019   0.320 -0.2110  0.4480 -0.2504
  244MOL   H17844404   7.086   3.203   0.292  1.4508 -0.8496 -0.6669
  244MOL   H17944405   7.000   3.189   0.525  1.0089  0.4463 -1.7941
  244MOL   H18044406   7.013   3.013   0.507  1.5952 -2.2715 -1.7354
  244MOL   H18144407   7.155   3.112   0.490  0.5533 -1.3321 -0.7271
  244MOL   H18244408   6.716   3.034   0.299 -0.6018 -3.2713 -1.5514
  245MOL     C144409   6.976   2.678   7.094 -0.4740 -0.4643  0.0782
  245MOL     C244410   6.830   2.636   7.126  0.4881 -0.1740 -0.8883
  245MOL     C344411   7.061   2.711   7.213  0.1412  0.6357 -0.0834
  245MOL     O444412   7.029   2.663   7.319  0.0269  0.0086 -0.0398
  245MOL     O544413   7.171   2.782   7.177 -0.1569  0.2021 -0.6668
  245MOL     H644414   7.029   2.603   7.036 -0.8993 -0.4950 -0.2714
  245MOL     H744415   6.771   2.706   7.184  2.0735 -0.5017  1.1700
  245MOL     H844416   6.780   2.617   7.031 -0.3719  0.4452 -0.5658
  245MOL     H944417   6.823   2.543   7.182 -0.3658 -0.6582 -1.7864
  245MOL    H1044418   6.973   2.772   7.038 -1.4127  0.2556  1.3123
  245MOL    C1144419   7.287   2.791   7.266  0.5385 -0.1303 -0.1224
  245MOL    C1244420   7.381   2.897   7.202 -0.3578  0.1061  0.5169
  245MOL    C1344421   7.359   2.658   7.285  0.2776  0.2340  0.0246
  245MOL    O1444422   7.410   2.625   7.391  0.4132 -0.1458 -0.0775
  245MOL    O1544423   7.372   2.598   7.162 -0.9014  0.0419  0.3410
  245MOL    H1644424   7.255   2.829   7.363  0.4771 -1.4746  0.3910
  245MOL    H1744425   7.456   2.938   7.269 -1.1746  1.6108  0.5350
  245MOL    H1844426   7.445   2.857   7.124 -1.1075 -2.2655  1.0890
  245MOL    H1944427   7.323   2.986   7.177 -0.3591 -0.0063  0.1174
  245MOL    C2044428   7.454   2.480   7.136  0.7429  0.1965 -0.8209
  245MOL    C2144429   7.466   2.437   6.988 -0.1770 -0.4447 -0.3828
  245MOL    C2244430   7.395   2.369   7.223 -0.2022  0.2342 -0.3809
  245MOL    O2344431   7.275   2.342   7.234  0.0398  0.4936  0.2553
  245MOL    O2444432   7.497   2.311   7.298  0.2353  0.1733 -0.5463
  245MOL    H2544433   7.544   2.503   7.194  0.1411  1.0234 -0.1906
  245MOL    H2644434   7.550   2.487   6.940 -0.1291 -1.1647 -1.0505
  245MOL    H2744435   7.481   2.332   6.967  1.3076  0.2886 -3.3258
  245MOL    H2844436   7.379   2.467   6.929 -0.4164  2.3852  1.3124
  245MOL    C2944437   7.483   2.201   7.388  0.1057  0.3809 -0.0201
  245MOL    C3044438   7.614   2.200   7.466  0.1278  0.0799 -0.0043
  245MOL    C3144439   7.458   2.067   7.312  0.8530 -0.6486 -0.0053
  245MOL    O3244440   7.487   2.049   7.191 -0.2387  0.3394  0.0765
  245MOL    O3344441   7.407   1.980   7.401 -0.4664  0.6932  0.1576
  245MOL    H3444442   7.407   2.244   7.453 -1.9855  0.7290 -2.6049
  245MOL    H3544443   7.600   2.128   7.547 -0.4170 -0.9088 -0.9764
  245MOL    H3644444   7.697   2.177   7.399 -1.5357  0.7399 -2.3646
  245MOL    H3744445   7.634   2.297   7.514  0.4653  0.4448 -0.8785
  245MOL    C3844446   7.382   1.847   7.352 -0.3187 -0.7116  0.5926
  245MOL    C3944447   7.265   1.761   7.410 -0.5167 -0.9098  0.2458
  245MOL    C4044448   7.510   1.762   7.341 -0.1402 -0.2023  0.7159
  245MOL    O4144449   7.622   1.796   7.382  0.4938 -0.4380  0.0265
  245MOL    O4244450   7.492   1.653   7.265  0.3456  0.1679 -0.0838
  245MOL    H4344451   7.350   1.855   7.249  1.5425 -0.3541  0.0183
  245MOL    H4444452   7.173   1.821   7.415 -0.3510 -0.4928 -1.4665
  245MOL    H4544453   7.249   1.665   7.360  0.4267 -1.2327  0.5584
  245MOL    H4644454   7.289   1.742   7.515  0.1678  1.4278  0.5365
  245MOL    C4744455   7.597   1.588   7.203 -0.2244 -0.5546 -0.1522
  245MOL    C4844456   7.541   1.539   7.068  0.1636 -0.3831 -0.5904
  245MOL    C4944457   7.660   1.484   7.299  1.0590  0.0641 -0.0680
  245MOL    O5044458   7.593   1.441   7.396  0.1670  0.4672  0.1451
  245MOL    O5144459   7.791   1.449   7.257  0.3340  0.3021 -0.3972
  245MOL    H5244460   7.682   1.654   7.189 -1.6839  1.3163 -0.4359
  245MOL    H5344461   7.516   1.623   7.004  1.0543 -0.1358 -0.6255
  245MOL    H5444462   7.616   1.498   7.000  2.4256  0.2980  1.3982
  245MOL    H5544463   7.452   1.476   7.071 -0.7914  1.0104  2.0166
  245MOL    C5644464   7.856   1.334   7.312 -0.4719 -0.0948  0.1070
  245MOL    C5744465   7.971   1.286   7.219  0.0562 -0.0500 -0.1683
  245MOL    C5844466   7.768   1.211   7.338  1.3336  0.2302 -0.8217
  245MOL    O5944467   7.660   1.190   7.291  0.3561 -0.4008  0.6824
  245MOL    O6044468   7.824   1.126   7.431 -0.1350  0.1268 -0.1796
  245MOL    H6144469   7.906   1.375   7.399  0.0977  1.1175 -0.7749
  245MOL    H6244470   7.939   1.222   7.137 -1.5092  1.1825 -0.5319
  245MOL    H6344471   8.031   1.373   7.192  1.7834 -0.8064  1.1068
  245MOL    H6444472   8.048   1.236   7.278 -1.3895 -0.7982  1.1331
  245MOL    C6544473   7.742   1.020   7.483  0.1300 -0.8155  0.1851
  245MOL    C6644474   7.816   0.983   7.617  0.3005 -0.7755  0.3740
  245MOL    C6744475   7.722   0.901   7.386  0.3032 -0.5057 -0.3506
  245MOL    O6844476   7.770   0.897   7.270 -0.2867  0.2162 -0.2099
  245MOL    O6944477   7.667   0.804   7.446 -0.2492 -0.5046  0.6183
  245MOL    H7044478   7.644   1.058   7.512 -0.1185 -1.3332  0.0278
  245MOL    H7144479   7.760   0.911   7.677 -0.7783  2.5142  3.4817
  245MOL    H7244480   7.918   0.945   7.605  0.3644 -0.6136  0.4056
  245MOL    H7344481   7.823   1.068   7.685  0.7059  0.5635 -1.3073
  245MOL    C7444482   7.662   0.670   7.389 -0.1371 -0.1355  0.5283
  245MOL    C7544483   7.532   0.600   7.421  0.0527 -0.3540 -0.5843
  245MOL    C7644484   7.789   0.587   7.431  0.6281 -0.7428  0.0930
  245MOL    O7744485   7.803   0.468   7.398 -0.4855 -0.3866  0.5924
  245MOL    O7844486   7.874   0.646   7.526  0.3539  0.8361  0.0555
  245MOL    H7944487   7.661   0.677   7.280  0.8783  2.1807  0.6578
  245MOL    H8044488   7.447   0.669   7.417  0.7351  0.3966 -4.8791
  245MOL    H8144489   7.521   0.525   7.343 -1.8991  1.0566 -1.7032
  245MOL    H8244490   7.547   0.562   7.522 -1.3812  1.4834  0.3544
  245MOL    C8344491   8.002   0.589   7.549 -0.2620 -0.3721  0.2077
  245MOL    C8444492   8.063   0.640   7.670  0.2791 -0.2260 -0.3052
  245MOL    C8544493   8.101   0.629   7.434  0.6186 -0.0300  0.0251
  245MOL    O8644494   0.043   0.554   7.399 -0.8334 -0.1918 -0.8464
  245MOL    O8744495   8.088   0.755   7.392  0.5986 -0.2142  0.2792
  245MOL    H8844496   8.004   0.480   7.550  0.1745 -0.3909 -1.1728
  245MOL    H8944497   0.012   0.592   7.684  0.1959 -0.8051 -1.6967
  245MOL    H9044498   8.076   0.748   7.662 -0.1480 -0.1007  0.5717
  245MOL    H9144499   8.000   0.619   7.757  1.7482  0.5531  0.9755
  245MOL    C9244500   0.019   0.810   7.282  0.0044 -0.0693  0.5227
  245MOL    C9344501   8.125   0.958   7.276 -0.0096 -0.0908  0.0890
  245MOL    C9444502   8.147   0.739   7.152  0.1521 -0.1341 -0.3463
  245MOL    O9544503   0.089   0.677   7.095  0.4040 -0.3702 -0.6965
  245MOL    O9644504   8.016   0.743   7.107 -0.6379  0.0836 -0.2301
  245MOL    H9744505   0.126   0.809   7.305  0.2497 -0.2397 -0.5744
  245MOL    H9844506   8.022   0.954   7.240 -0.1256 -1.4415  0.5318
  245MOL    H9944507   8.128   1.014   7.369  0.1438 -0.0372  0.0506
  245MOL   H10044508   0.027   1.009   7.193  1.1719 -0.2716  0.6861
  245MOL   C10144509   7.974   0.687   6.982 -0.5039 -0.4074  0.1484
  245MOL   C10244510   7.860   0.780   6.934 -0.2803 -0.0351 -0.3967
  245MOL   C10344511   7.935   0.541   6.998  0.6228  0.6256  0.4042
  245MOL   O10444512   7.825   0.502   6.953 -0.5708  0.4728  0.0421
  245MOL   O10544513   8.024   0.463   7.066 -0.7287 -0.7272  0.3288
  245MOL   H10644514   8.050   0.700   6.905 -0.4656  1.0495  0.4084
  245MOL   H10744515   7.887   0.883   6.957 -1.8829  0.1481  0.7166
  245MOL   H10844516   7.834   0.763   6.829 -1.7044  0.8896 -0.2080
  245MOL   H10944517   7.776   0.775   7.003 -0.2523  2.1416 -0.1955
  245MOL   C11044518   8.007   0.324   7.082 -0.0949 -0.4421  1.1425
  245MOL   C11144519   8.083   0.290   7.211  0.2045  0.0943  0.2600
  245MOL   C11244520   8.064   0.248   6.963 -0.9839 -0.2564  0.2141
  245MOL   O11344521   8.112   0.135   6.981  0.2361 -0.2856  0.0452
  245MOL   O11444522   8.042   0.312   6.838 -0.6055  0.2409  0.5173
  245MOL   H11544523   7.902   0.294   7.090 -0.3855  0.8025  2.1977
  245MOL   H11644524   8.064   0.185   7.233 -1.5724  0.2494 -0.4686
  245MOL   H11744525   0.043   0.308   7.209 -0.2176  2.9444  1.2495
  245MOL   H11844526   8.048   0.352   7.293  1.3104 -0.6278  1.2909
  245MOL   C11944527   8.070   0.246   6.712  0.7186 -0.3748  0.4899
  245MOL   C12044528   7.950   0.163   6.665  0.6868  0.4479  0.1063
  245MOL   C12144529   0.057   0.161   6.710 -0.6599  0.5107  0.3861
  245MOL   O12244530   0.055   0.049   6.657  0.0737 -0.3352 -0.2938
  245MOL   O12344531   0.162   0.217   6.781  0.9811  0.1449 -0.1125
  245MOL   H12444532   8.066   0.323   6.636 -0.4080 -1.4640 -0.5771
  245MOL   H12544533   7.941   0.067   6.717 -0.0839  0.3475 -0.2066
  245MOL   H12644534   7.860   0.223   6.660 -0.4967 -1.3334 -0.3989
  245MOL   H12744535   7.969   0.134   6.561  0.2216  0.4589  0.0160
  245MOL   C12844536   0.281   0.138   6.802 -0.3150 -0.2178  0.1208
  245MOL   C12944537   0.264   0.038   6.915  0.2350  0.1375  0.4892
  245MOL   C13044538   0.398   0.233   6.826 -0.3152 -0.3827 -0.2244
  245MOL   O13144539   0.507   0.228   6.759 -0.7588  0.3862 -0.0777
  245MOL   O13244540   0.376   0.326   6.929  0.9462  0.0291  0.1636
  245MOL   H13344541   0.308   0.082   6.713 -2.8926  0.7376 -1.3032
  245MOL   H13444542   0.328   8.098   6.904  0.3928  0.4707 -1.3053
  245MOL   H13544543   0.294   0.081   7.011  0.5065 -0.5062  0.6953
  245MOL   H13644544   0.159   0.010   6.921  0.2074  0.3201  0.9218
  245MOL   C13744545   0.448   0.445   6.947 -0.3517 -0.0702 -0.0607
  245MOL   C13844546   0.409   0.507   7.084  0.3933 -0.4043  0.7700
  245MOL   C13944547   0.424   0.547   6.838 -0.7411  0.0142  0.0072
  245MOL   O14044548   0.484   0.646   6.825 -0.2914 -0.1008 -0.0878
  245MOL   O14144549   0.312   0.516   6.771  0.4918  0.1661 -0.3276
  245MOL   H14244550   0.551   0.411   6.956 -0.9463 -1.8634  0.2012
  245MOL   H14344551   0.491   0.574   7.112 -1.4214  2.5450 -0.6518
  245MOL   H14444552   0.316   0.563   7.092  0.2219 -0.6253  0.3181
  245MOL   H14544553   0.400   0.428   7.159  0.4027 -0.9411  0.2017
  245MOL   C14644554   0.247   0.608   6.692 -0.0856 -0.0145 -0.5155
  245MOL   C14744555   0.094   0.585   6.702  0.0784  0.4439  0.7895
  245MOL   C14844556   0.309   0.608   6.551  0.2340 -0.2341 -0.5746
  245MOL   O14944557   0.341   0.706   6.488 -0.7582  0.0491  0.5190
  245MOL   O15044558   0.302   0.486   6.499 -0.3050  0.0409 -0.4915
  245MOL   H15144559   0.250   0.705   6.742 -2.1467  0.0449 -0.4913
  245MOL   H15244560   0.057   0.506   6.637  1.6232 -0.3230  0.8019
  245MOL   H15344561   0.081   0.562   6.808  0.1200  3.1571  1.4121
  245MOL   H15444562   0.038   0.676   6.686 -0.2060  0.1927  0.3588
  245MOL   C15544563   0.361   0.454   6.371 -0.0771 -0.3505 -0.1970
  245MOL   C15644564   0.312   0.313   6.344 -0.1308  0.1798  0.1350
  245MOL   C15744565   0.515   0.463   6.368  0.1891  0.2369  0.1750
  245MOL   O15844566   0.568   0.537   6.290  0.4109 -0.3443  0.4646
  245MOL   O15944567   0.572   0.382   6.461 -0.1284  0.4530  0.1073
  245MOL   H16044568   0.312   0.512   6.293  1.7122  0.3836 -0.8025
  245MOL   H16144569   0.205   0.307   6.364 -0.3060 -0.9758 -1.0299
  245MOL   H16244570   0.337   0.271   6.246  1.2537 -0.6421  0.8381
  245MOL   H16344571   0.356   0.245   6.416  2.2934  0.3539 -1.1515
  245MOL   C16444572   0.713   0.388   6.480  0.0350 -0.2756 -0.7098
  245MOL   C16544573   0.773   0.243   6.523  0.0630 -0.4643 -0.6523
  245MOL   C16644574   0.747   0.499   6.581 -0.4289 -0.1342  0.1175
  245MOL   O16744575   0.776   0.472   6.697 -0.0437 -0.3397 -0.1246
  245MOL   O16844576   0.736   0.627   6.536  0.1019  0.2100 -0.0160
  245MOL   H16944577   0.768   0.428   6.395  0.6440  0.6210  0.0950
  245MOL   H17044578   0.778   0.175   6.438 -0.7325  1.3282 -2.1496
  245MOL   H17144579   0.872   0.255   6.568  0.0594  0.1863 -0.8192
  245MOL   H17244580   0.716   0.192   6.601  1.0405  0.2037  0.5174
  245MOL   C17344581   0.747   0.746   6.622 -0.0649  0.2799  0.2797
  245MOL   C17444582   0.687   0.872   6.552 -0.1509 -0.2280 -0.8218
  245MOL   C17544583   0.898   0.764   6.669 -0.3171 -0.0212  0.0231
  245MOL   O17644584   0.927   0.743   6.787  0.4818 -0.3190  0.1305
  245MOL   O17744585   0.985   0.792   6.569  0.1736 -0.1645  0.5944
  245MOL   H17844586   0.688   0.732   6.713  0.8019 -0.5504  0.7249
  245MOL   H17944587   0.583   0.862   6.521 -0.4689 -1.1730  0.4751
  245MOL   H18044588   0.677   0.955   6.622 -4.3913  0.2740 -1.8948
  245MOL   H18144589   0.747   0.903   6.467  0.3384  0.2151 -0.3163
  245MOL   H18244590   1.074   0.777   6.599  0.3451 -2.5232 -0.9636
  246MOL     C144591   2.605   2.028   5.099 -0.5756 -0.0686 -0.5837
  246MOL     C244592   2.503   2.146   5.064 -0.8511 -0.8306 -0.9236
  246MOL     C344593   2.669   2.035   5.238 -0.5188 -0.7894 -0.4034
  246MOL     O444594   2.630   1.959   5.326 -0.2515 -0.0947 -0.0787
  246MOL     O544595   2.787   2.111   5.238 -0.5440 -0.2922 -0.2963
  246MOL     H644596   2.554   1.932   5.095  1.0148 -1.0716  1.9276
  246MOL     H744597   2.408   2.145   5.116  0.0362  0.2687  0.7473
  246MOL     H844598   2.538   2.244   5.097 -1.0538 -0.4405 -1.8441
  246MOL     H944599   2.485   2.167   4.958 -2.9535  1.4594 -0.1606
  246MOL    H1044600   2.684   2.049   5.027 -1.4350  2.8015 -0.7606
  246MOL    C1144601   2.853   2.128   5.360 -0.2226 -0.0819  0.5605
  246MOL    C1244602   2.955   2.243   5.360 -0.5733 -0.0981  0.1065
  246MOL    C1344603   2.932   2.003   5.395  0.4058 -0.1790  0.1035
  246MOL    O1444604   2.987   1.933   5.316 -0.2082 -0.8390  0.2849
  246MOL    O1544605   2.923   1.968   5.524 -0.2105 -0.1629 -0.6292
  246MOL    H1644606   2.789   2.152   5.445  0.2877 -0.0849  0.9559
  246MOL    H1744607   3.025   2.250   5.443  2.0427  1.9737 -2.1947
  246MOL    H1844608   3.007   2.243   5.265 -1.8314 -1.6912 -0.5945
  246MOL    H1944609   2.899   2.336   5.356 -0.2923  0.1258  1.0986
  246MOL    C2044610   2.968   1.835   5.574 -0.4313 -0.2224  1.0550
  246MOL    C2144611   2.856   1.725   5.558 -0.6244  0.8402 -0.0019
  246MOL    C2244612   3.020   1.842   5.718 -0.1269  0.0429 -0.1780
  246MOL    O2344613   3.127   1.799   5.757 -0.0021  0.1489  0.4302
  246MOL    O2444614   2.918   1.883   5.789  0.4577  0.0569  0.3449
  246MOL    H2544615   3.051   1.799   5.513 -1.8499  1.3561 -1.8716
  246MOL    H2644616   2.764   1.744   5.613 -1.5119  1.2793 -1.6112
  246MOL    H2744617   2.830   1.724   5.452  1.1294 -0.0309 -0.4460
  246MOL    H2844618   2.892   1.626   5.586 -0.1476  1.3322  1.1733
  246MOL    C2944619   2.930   1.910   5.934  0.5837  0.0376 -0.5959
  246MOL    C3044620   2.928   1.772   6.006 -0.1284 -0.3638 -0.0003
  246MOL    C3144621   2.820   2.008   5.976 -0.1537  0.2374 -0.9402
  246MOL    O3244622   2.749   1.977   6.071  0.3842 -0.0851  0.2002
  246MOL    O3344623   2.828   2.122   5.909  0.4281 -0.3878  0.4513
  246MOL    H3444624   3.021   1.961   5.967  1.4056 -1.5944 -0.2578
  246MOL    H3544625   2.930   1.784   6.114 -0.1036  0.3264 -0.0767
  246MOL    H3644626   2.834   1.728   5.974  0.3623  0.4339 -2.7153
  246MOL    H3744627   3.012   1.711   5.970  0.1116 -0.5244  0.8319
  246MOL    C3844628   2.734   2.227   5.922  0.1988 -0.0440  0.8844
  246MOL    C3944629   2.774   2.322   5.809 -0.7712 -0.7025  0.3325
  246MOL    C4044630   2.742   2.299   6.058 -0.8991 -0.0551 -0.4487
  246MOL    O4144631   2.641   2.345   6.100 -0.0923  0.1367 -0.5228
  246MOL    O4244632   2.863   2.326   6.099 -0.4612 -0.0268 -0.1684
  246MOL    H4344633   2.635   2.184   5.908 -0.4107  1.9375 -1.2716
  246MOL    H4444634   2.874   2.358   5.832  0.0394 -2.2280 -0.6537
  246MOL    H4544635   2.772   2.281   5.707 -3.3029  1.2554 -0.4487
  246MOL    H4644636   2.705   2.405   5.821 -0.2431  0.1635 -2.3669
  246MOL    C4744637   2.880   2.390   6.228  0.5165  0.2091 -0.2036
  246MOL    C4844638   3.020   2.445   6.230 -0.8479  0.7240 -0.9952
  246MOL    C4944639   2.849   2.292   6.342 -1.0265  0.2368  0.0176
  246MOL    O5044640   2.807   2.180   6.312 -0.0115  0.0408  0.1418
  246MOL    O5144641   2.873   2.338   6.464  0.1803  0.4788  0.1025
  246MOL    H5244642   2.805   2.466   6.246  1.5041  0.6082  2.6092
  246MOL    H5344643   3.042   2.495   6.136 -0.5717  0.8688 -0.8537
  246MOL    H5444644   3.026   2.518   6.310 -0.3162 -1.6887  1.2214
  246MOL    H5544645   3.086   2.361   6.252 -1.3615  0.5133 -0.2346
  246MOL    C5644646   2.831   2.265   6.581  0.0093 -0.4072 -0.7849
  246MOL    C5744647   2.696   2.308   6.644 -0.3368  0.2777 -0.5971
  246MOL    C5844648   2.946   2.264   6.676 -1.1693  0.0685 -0.0531
  246MOL    O5944649   3.023   2.170   6.687  0.3626 -0.2444 -0.0141
  246MOL    O6044650   2.954   2.375   6.755  0.1960 -0.3712  0.5922
  246MOL    H6144651   2.818   2.158   6.565  0.3997 -0.6049  0.1975
  246MOL    H6244652   2.629   2.293   6.559  0.5219  0.0970 -1.2516
  246MOL    H6344653   2.658   2.242   6.723 -0.0310  0.0935 -0.6032
  246MOL    H6444654   2.682   2.410   6.679  1.7604 -0.2243  1.8615
  246MOL    C6544655   3.062   2.394   6.843  0.3104 -0.3213  0.1114
  246MOL    C6644656   3.048   2.524   6.923 -0.1044 -0.3294  0.4927
  246MOL    C6744657   3.199   2.385   6.770  0.4625  0.6283  0.0963
  246MOL    O6844658   3.298   2.336   6.827  0.6526  0.0747  0.5905
  246MOL    O6944659   3.200   2.454   6.654  0.3256 -0.1770 -0.4402
  246MOL    H7044660   3.062   2.313   6.916 -0.9401 -1.7189 -1.4037
  246MOL    H7144661   3.135   2.537   6.987 -0.7566  1.1707  1.1052
  246MOL    H7244662   3.038   2.601   6.846  1.4852 -0.1724  0.4344
  246MOL    H7344663   2.954   2.506   6.975  0.8282  0.4026  2.4589
  246MOL    C7444664   3.325   2.461   6.585 -0.0134  0.4803  0.3113
  246MOL    C7544665   3.315   2.572   6.484  0.1456  0.2859  0.1921
  246MOL    C7644666   3.356   2.324   6.526 -0.2991  0.1895 -0.3418
  246MOL    O7744667   3.471   2.279   6.534 -0.4347 -0.2267 -0.0683
  246MOL    O7844668   3.252   2.253   6.461 -0.1248 -0.3449 -0.4559
  246MOL    H7944669   3.410   2.486   6.648  0.3314  0.2510 -0.0635
  246MOL    H8044670   3.415   2.595   6.446 -0.9932  1.5587 -2.1350
  246MOL    H8144671   3.248   2.557   6.399 -0.8148  2.3854  0.5331
  246MOL    H8244672   3.292   2.667   6.531  0.1233  0.1718  0.4095
  246MOL    C8344673   3.272   2.122   6.401 -0.6088  0.2082 -0.0635
  246MOL    C8444674   3.350   2.132   6.260 -0.1204 -0.1292 -0.1842
  246MOL    C8544675   3.137   2.051   6.384  0.3566 -0.0142  0.0348
  246MOL    O8644676   3.067   2.065   6.282  0.1090  0.5610  0.1404
  246MOL    O8744677   3.115   1.962   6.479 -0.1087  0.5218 -0.1833
  246MOL    H8844678   3.334   2.066   6.471  0.2604  0.5545 -0.5486
  246MOL    H8944679   3.426   2.055   6.266  0.9228  0.8430 -0.8393
  246MOL    H9044680   3.279   2.103   6.182 -2.6425  1.2336  1.5382
  246MOL    H9144681   3.403   2.223   6.233  1.0597 -1.0365 -0.9772
  246MOL    C9244682   3.025   1.851   6.467 -0.1401 -0.2833  0.1585
  246MOL    C9344683   2.971   1.801   6.603  0.3110  0.2136  0.0941
  246MOL    C9444684   3.090   1.740   6.388 -0.7273  0.3889 -0.2959
  246MOL    O9544685   3.031   1.669   6.306 -0.1139  0.4713  0.0620
  246MOL    O9644686   3.226   1.722   6.412  0.0249  0.4558  0.2338
  246MOL    H9744687   2.932   1.876   6.416 -1.1460 -1.6398  1.2519
  246MOL    H9844688   3.053   1.786   6.673 -1.7861 -0.7378  2.4720
  246MOL    H9944689   2.913   1.887   6.638  0.7912  1.3181 -1.7668
  246MOL   H10044690   2.913   1.711   6.583 -0.1299  0.3856  0.5664
  246MOL   C10144691   3.293   1.627   6.333  0.4078 -0.3063  0.2607
  246MOL   C10244692   3.426   1.589   6.395 -0.0224  0.1840 -0.1453
  246MOL   C10344693   3.317   1.697   6.199 -0.3000  0.8954 -0.2473
  246MOL   O10444694   3.288   1.814   6.172  0.0686  0.2120 -0.6295
  246MOL   O10544695   3.365   1.606   6.110 -0.0960 -0.2313 -0.3014
  246MOL   H10644696   3.238   1.535   6.315  1.4754 -1.1519  1.2295
  246MOL   H10744697   3.485   1.677   6.421  1.8134 -1.1042  0.1039
  246MOL   H10844698   3.408   1.533   6.487  0.0753 -1.0586 -0.8657
  246MOL   H10944699   3.472   1.516   6.329  0.1340 -0.0784  0.2508
  246MOL   C11044700   3.401   1.649   5.979 -0.1831  0.4702 -0.1379
  246MOL   C11144701   3.341   1.547   5.868 -0.7619 -0.1904  0.1187
  246MOL   C11244702   3.553   1.666   5.968  0.4442 -0.1221  0.7721
  246MOL   O11344703   3.606   1.776   5.975  0.2022 -0.0599  0.0272
  246MOL   O11444704   3.627   1.550   5.961  0.3061  0.2132  0.0176
  246MOL   H11544705   3.347   1.741   5.960 -1.5780  0.3449  3.0113
  246MOL   H11644706   3.373   1.577   5.768  0.5210 -2.6405 -0.2388
  246MOL   H11744707   3.382   1.447   5.871  0.0720  0.0702 -1.9014
  246MOL   H11844708   3.234   1.542   5.888 -0.6053 -1.0035  0.7774
  246MOL   C11944709   3.774   1.550   5.953 -1.3499 -0.8659  0.8824
  246MOL   C12044710   3.848   1.607   6.070 -0.3181 -0.3116 -0.2819
  246MOL   C12144711   3.828   1.618   5.827 -0.2862 -0.1544  0.3872
  246MOL   O12244712   3.826   1.564   5.715 -0.2158 -0.2002  0.5594
  246MOL   O12344713   3.858   1.745   5.851 -0.2344  0.4355 -0.2900
  246MOL   H12444714   3.806   1.445   5.950  3.0598  0.4373 -0.6825
  246MOL   H12544715   3.846   1.536   6.152 -0.5153 -1.7320 -1.4919
  246MOL   H12644716   3.953   1.631   6.051 -0.2093 -1.1730 -0.8254
  246MOL   H12744717   3.810   1.703   6.106 -1.5964  0.0044 -2.4015
  246MOL   C12844718   3.923   1.827   5.755  0.3136 -0.2516  1.2932
  246MOL   C12944719   3.965   1.949   5.835  0.3075 -0.3344 -0.2672
  246MOL   C13044720   3.826   1.865   5.647 -0.4896 -0.4633  0.9453
  246MOL   O13144721   3.699   1.861   5.655  0.1829  0.2254 -0.6411
  246MOL   O13244722   3.884   1.924   5.534  0.5302  0.6801  0.3869
  246MOL   H13344723   4.007   1.767   5.720 -0.5562 -1.3105  0.9526
  246MOL   H13444724   3.896   2.034   5.838 -0.0492 -0.5278 -2.2422
  246MOL   H13544725   3.992   1.916   5.935 -0.7854 -1.6392 -0.3806
  246MOL   H13644726   4.061   1.984   5.799 -0.2094  1.6307  0.1518
  246MOL   C13744727   3.801   2.013   5.449 -0.4497  0.4025 -0.1222
  246MOL   C13844728   3.873   2.057   5.323 -0.2617 -0.4705  0.1921
  246MOL   C13944729   3.750   2.139   5.523 -0.1290 -0.2376  0.4762
  246MOL   O14044730   3.803   2.165   5.630  0.4915 -0.0361  0.0541
  246MOL   O14144731   3.643   2.207   5.467  0.2755  0.5917  0.1402
  246MOL   H14244732   3.716   1.956   5.413 -0.3196 -0.2832  0.6524
  246MOL   H14344733   3.836   2.157   5.299 -1.2323 -0.9175 -0.1685
  246MOL   H14444734   3.982   2.052   5.328 -0.1386 -0.6088 -1.9439
  246MOL   H14544735   3.840   1.995   5.240  0.7974  0.4741 -0.9622
  246MOL   C14644736   3.590   2.328   5.514  0.5287 -0.2260  0.2624
  246MOL   C14744737   3.662   2.453   5.453 -0.6777 -0.2067  0.2261
  246MOL   C14844738   3.566   2.341   5.663  0.1505  0.3319 -0.3068
  246MOL   O14944739   3.601   2.442   5.726 -0.2116  0.3332  0.1039
  246MOL   O15044740   3.503   2.229   5.716  0.2608  0.7796  0.1997
  246MOL   H15144741   3.492   2.325   5.467  1.2637 -1.7218 -1.2202
  246MOL   H15244742   3.764   2.451   5.490 -0.7028 -0.1529  0.2971
  246MOL   H15344743   3.666   2.452   5.344  1.5661 -3.5950  0.2623
  246MOL   H15444744   3.621   2.544   5.497  0.7365 -0.3399  1.8521
  246MOL   C15544745   3.482   2.224   5.856  0.4755  0.1532  0.1410
  246MOL   C15644746   3.428   2.089   5.900  0.3018  0.4368  0.0896
  246MOL   C15744747   3.384   2.329   5.909 -0.9707  0.4991  0.4050
  246MOL   O15844748   3.396   2.372   6.024 -0.4070  0.2649  0.1583
  246MOL   O15944749   3.286   2.349   5.809 -0.1391  0.0350 -0.2258
  246MOL   H16044750   3.581   2.234   5.902 -0.3613  1.4082  1.7138
  246MOL   H16144751   3.472   2.007   5.844  0.1710 -1.4395  2.6398
  246MOL   H16244752   3.455   2.084   6.005 -0.5501  2.4529  0.4380
  246MOL   H16344753   3.319   2.087   5.901  0.2903 -0.1068 -1.3831
  246MOL   C16444754   3.177   2.437   5.830  0.1791  0.0754 -0.1807
  246MOL   C16544755   3.089   2.429   5.705  0.2220  0.4176  0.1638
  246MOL   C16644756   3.230   2.585   5.851  0.4723  0.4289  0.1191
  246MOL   O16744757   3.334   2.626   5.800 -0.1709  0.0357  0.3220
  246MOL   O16844758   3.141   2.662   5.915  0.8302  0.1003 -0.2122
  246MOL   H16944759   3.127   2.407   5.922  1.1527 -2.5537 -0.4758
  246MOL   H17044760   3.005   2.497   5.690 -0.9227 -0.4618  2.3453
  246MOL   H17144761   3.146   2.444   5.614 -1.8583  0.3081 -1.2048
  246MOL   H17244762   3.048   2.331   5.681 -0.0349  0.5558  0.0388
  246MOL   C17344763   3.188   2.780   5.979 -0.5259  0.0820 -0.5476
  246MOL   C17444764   3.165   2.795   6.130 -0.1697  0.3068  0.2684
  246MOL   C17544765   3.161   2.904   5.893 -0.0597  0.2527 -0.4575
  246MOL   O17644766   3.084   2.999   5.922 -0.6768  0.1395 -0.2430
  246MOL   O17744767   3.232   2.892   5.777 -0.1633 -0.0576  0.0615
  246MOL   H17844768   3.297   2.785   5.976 -0.3381 -2.5174  0.6794
  246MOL   H17944769   3.212   2.715   6.186 -0.3978  0.7353  1.0772
  246MOL   H18044770   3.224   2.883   6.155  0.5247  0.1631 -0.8078
  246MOL   H18144771   3.064   2.812   6.167  0.9159 -0.1750  3.5764
  246MOL   H18244772   3.287   2.815   5.785 -1.7042 -0.8697  4.2635
  247MOL     C144773   6.136   3.332   5.082 -0.0826 -0.3855 -0.1464
  247MOL     C244774   6.082   3.269   5.213  0.4435  0.5792  0.1982
  247MOL     C344775   6.132   3.246   4.963  0.0622  0.8379  0.3776
  247MOL     O444776   6.074   3.133   4.972  0.2655  0.6545 -0.2412
  247MOL     O544777   6.189   3.300   4.854  0.1670  0.2159 -0.0148
  247MOL     H644778   6.071   3.415   5.057 -0.2315 -0.5122 -0.1808
  247MOL     H744779   6.112   3.327   5.300  0.5768 -0.7401  1.0432
  247MOL     H844780   5.981   3.228   5.211  1.1542 -1.1895 -0.0756
  247MOL     H944781   6.135   3.178   5.240 -0.0791  0.5019  0.9744
  247MOL    H1044782   6.236   3.371   5.104 -0.3790 -0.6628  1.8354
  247MOL    C1144783   6.204   3.220   4.733  0.3850  0.3454  0.1508
  247MOL    C1244784   6.329   3.264   4.662  0.3570 -0.2680  0.0290
  247MOL    C1344785   6.077   3.229   4.651  1.2045 -0.7160  0.3376
  247MOL    O1444786   6.062   3.311   4.559 -0.2497  0.4303  0.4402
  247MOL    O1544787   5.979   3.148   4.699 -0.0688  0.4364 -0.3193
  247MOL    H1644788   6.227   3.115   4.750 -1.1001  0.2818  1.7508
  247MOL    H1744789   6.355   3.196   4.581  0.5931 -1.0075  0.7147
  247MOL    H1844790   6.312   3.364   4.621 -1.3870 -0.8351 -0.6762
  247MOL    H1944791   6.410   3.274   4.735 -0.3118 -4.7814  1.5556
  247MOL    C2044792   5.841   3.174   4.661  0.2193 -0.1562  0.2253
  247MOL    C2144793   5.750   3.088   4.759 -0.8079 -0.5460 -0.3139
  247MOL    C2244794   5.809   3.148   4.515  0.0284 -0.5794  0.1488
  247MOL    O2344795   5.887   3.093   4.437 -0.5789  0.5258  0.1237
  247MOL    O2444796   5.682   3.190   4.485 -0.1554 -0.2775  0.4877
  247MOL    H2544797   5.810   3.276   4.683  3.2298  0.5168  1.5975
  247MOL    H2644798   5.762   2.984   4.727 -0.8968 -0.7246  0.2276
  247MOL    H2744799   5.786   3.103   4.861  0.7002  2.2723 -1.2239
  247MOL    H2844800   5.648   3.120   4.739  0.2479  2.6721 -0.8366
  247MOL    C2944801   5.630   3.200   4.351  0.0135 -0.4467  0.4784
  247MOL    C3044802   5.510   3.302   4.353 -0.3326 -0.2433  0.1392
  247MOL    C3144803   5.587   3.056   4.313 -0.8495  0.2323 -0.2382
  247MOL    O3244804   5.606   2.958   4.394  0.3645  0.1045 -0.4485
  247MOL    O3344805   5.533   3.041   4.187  0.4441 -0.8464  0.3787
  247MOL    H3444806   5.712   3.221   4.283  0.3160  0.9181  1.2447
  247MOL    H3544807   5.505   3.347   4.255  0.4854  0.9536  0.6434
  247MOL    H3644808   5.417   3.250   4.379  0.4038 -0.1152  3.2348
  247MOL    H3744809   5.535   3.382   4.422  1.3839 -1.2761  0.7394
  247MOL    C3844810   5.500   2.915   4.133 -0.1615  0.7091  0.0329
  247MOL    C3944811   5.601   2.877   4.028  0.3005  0.9096 -0.1338
  247MOL    C4044812   5.349   2.917   4.097 -0.5851 -0.7877 -0.7935
  247MOL    O4144813   5.275   3.000   4.150  0.9476 -0.1396  0.0038
  247MOL    O4244814   5.318   2.821   4.014 -0.5745  0.0857 -0.3837
  247MOL    H4344815   5.495   2.837   4.210  1.7458 -0.4119 -0.9535
  247MOL    H4444816   5.699   2.866   4.075  1.3476  0.5848 -2.3372
  247MOL    H4544817   5.573   2.779   3.991 -3.0825  1.6159  0.3355
  247MOL    H4644818   5.602   2.944   3.942 -0.5023  1.4176  0.2404
  247MOL    C4744819   5.180   2.813   3.968  0.6648  0.0457 -0.4196
  247MOL    C4844820   5.144   2.662   3.952  0.4976 -0.0898  0.6369
  247MOL    C4944821   5.155   2.906   3.852  0.6402  0.1684 -0.2619
  247MOL    O5044822   5.247   2.968   3.797  0.0534 -0.3364 -0.0130
  247MOL    O5144823   5.025   2.912   3.813 -0.2565  0.3397  0.2036
  247MOL    H5244824   5.105   2.855   4.034  0.0913  0.7483 -1.4924
  247MOL    H5344825   5.162   2.589   4.030 -0.9983  1.5087  2.5292
  247MOL    H5444826   5.036   2.653   3.940  0.2252  3.5228 -0.3155
  247MOL    H5544827   5.191   2.629   3.859  1.2174  3.3315 -0.2716
  247MOL    C5644828   4.988   2.993   3.699  0.1658 -0.4731 -0.3151
  247MOL    C5744829   4.831   2.981   3.699 -0.1012 -0.4621 -0.6393
  247MOL    C5844830   5.056   2.949   3.561 -0.0107  0.4574 -0.6646
  247MOL    O5944831   5.111   2.835   3.555  0.2597  0.0056  0.1177
  247MOL    O6044832   5.023   3.025   3.456  0.2168  0.3680  0.0967
  247MOL    H6144833   5.015   3.097   3.716  0.4483 -0.2861 -1.8468
  247MOL    H6244834   4.791   3.060   3.636 -1.8045  0.0594  1.0451
  247MOL    H6344835   4.806   2.883   3.659 -1.4727 -0.2671 -0.2775
  247MOL    H6444836   4.795   2.985   3.802 -2.5947  0.0427 -1.4912
  247MOL    C6544837   5.050   2.978   3.323 -0.3368 -0.9670 -0.3314
  247MOL    C6644838   5.043   3.094   3.229 -0.3202 -0.8445  1.0133
  247MOL    C6744839   4.944   2.867   3.296  0.2055  0.2303  0.0081
  247MOL    O6844840   4.844   2.853   3.365 -0.1630 -0.0405 -0.4151
  247MOL    O6944841   4.967   2.776   3.190 -0.1144 -0.2531 -0.4724
  247MOL    H7044842   5.154   2.944   3.322  0.3680  1.0237  1.2878
  247MOL    H7144843   5.127   3.153   3.266 -0.6194 -1.3051  2.4577
  247MOL    H7244844   5.057   3.049   3.131  1.3818  0.9320  0.3901
  247MOL    H7344845   4.945   3.142   3.232  0.4651  0.8077  0.7442
  247MOL    C7444846   4.891   2.662   3.183 -0.3974  0.1246 -0.3359
  247MOL    C7544847   4.971   2.566   3.090  0.2092  1.0618 -0.1349
  247MOL    C7644848   4.751   2.695   3.131 -0.1547 -0.0701 -0.6056
  247MOL    O7744849   4.721   2.806   3.102  0.5845 -0.0074 -0.4338
  247MOL    O7844850   4.675   2.588   3.133 -0.2511 -0.1356 -0.2002
  247MOL    H7944851   4.868   2.621   3.281  1.2311  0.6336  0.2866
  247MOL    H8044852   4.909   2.477   3.077  1.0529  0.5373 -0.5670
  247MOL    H8144853   5.000   2.590   2.988  2.1902 -2.4919 -0.4754
  247MOL    H8244854   5.060   2.534   3.143 -0.6290 -1.2116 -0.0647
  247MOL    C8344855   4.533   2.600   3.107  0.0928 -0.7458  0.3681
  247MOL    C8444856   4.470   2.480   3.162  0.1728  0.3131 -0.0820
  247MOL    C8544857   4.505   2.613   2.951 -0.5361  0.3106 -0.3081
  247MOL    O8644858   4.587   2.578   2.868  0.5431 -0.0627 -0.0857
  247MOL    O8744859   4.387   2.665   2.932 -0.5365  0.7733 -0.3226
  247MOL    H8844860   4.489   2.688   3.154 -0.4163 -2.8552  3.9978
  247MOL    H8944861   4.513   2.389   3.120  0.3245 -0.8397  2.4510
  247MOL    H9044862   4.499   2.471   3.267  0.7608 -0.0903 -0.2761
  247MOL    H9144863   4.362   2.496   3.156  0.1320 -0.6963 -2.6974
  247MOL    C9244864   4.340   2.695   2.797  0.7240  0.2656  0.0744
  247MOL    C9344865   4.236   2.808   2.824 -0.5667  0.0229  0.4720
  247MOL    C9444866   4.267   2.576   2.737 -0.2710 -0.7675  0.0262
  247MOL    O9544867   4.270   2.552   2.619  0.1910 -0.3088 -0.8143
  247MOL    O9644868   4.216   2.500   2.835  0.3019 -0.0994  0.3919
  247MOL    H9744869   4.416   2.726   2.725  0.7418  0.8485  0.3427
  247MOL    H9844870   4.148   2.776   2.880 -0.0427  0.6557  1.6673
  247MOL    H9944871   4.272   2.857   2.915  1.0049 -2.0215  0.9926
  247MOL   H10044872   4.205   2.862   2.735  1.3446 -1.4820 -1.1605
  247MOL   C10144873   4.097   2.422   2.812  0.2008 -0.4066  0.4322
  247MOL   C10244874   3.967   2.506   2.824  0.2869 -0.3611  0.1849
  247MOL   C10344875   4.084   2.310   2.915 -0.0219 -0.0940  0.5290
  247MOL   O10444876   3.990   2.283   2.990  0.1057  0.2868  0.3003
  247MOL   O10544877   4.203   2.250   2.920 -0.2022 -0.2388  0.4542
  247MOL   H10644878   4.104   2.362   2.721  0.1581 -0.2301  0.3133
  247MOL   H10744879   3.974   2.577   2.741 -1.5463 -0.6227 -0.2129
  247MOL   H10844880   3.881   2.444   2.798  0.4702 -0.4524 -0.2080
  247MOL   H10944881   3.950   2.561   2.916  1.0521  2.0606 -1.0691
  247MOL   C11044882   4.238   2.138   3.000 -0.5242 -0.0417 -0.5767
  247MOL   C11144883   4.391   2.108   2.982 -0.3832  0.0510 -0.4201
  247MOL   C11244884   4.168   2.017   2.946  0.3603 -0.4408 -0.2292
  247MOL   O11344885   4.138   2.016   2.825 -0.4368  0.1036 -0.2565
  247MOL   O11444886   4.132   1.924   3.043  0.7266 -0.8169  0.1584
  247MOL   H11544887   4.211   2.159   3.103 -0.8774  1.2610 -0.9275
  247MOL   H11644888   4.409   2.086   2.876 -0.1442 -2.9915  0.2208
  247MOL   H11744889   4.455   2.191   3.014 -0.7249 -0.1155  0.7132
  247MOL   H11844890   4.407   2.017   3.039 -0.3120  0.4009  0.1198
  247MOL   C11944891   4.049   1.805   3.000 -0.0438 -0.6582 -0.0405
  247MOL   C12044892   3.970   1.749   3.116 -0.0328  0.5468 -0.0477
  247MOL   C12144893   4.145   1.705   2.929  0.6225  0.2761 -0.2750
  247MOL   O12244894   4.124   1.663   2.811 -0.0106  0.3979 -0.1038
  247MOL   O12344895   4.240   1.657   3.012 -0.0619  0.6373 -0.0849
  247MOL   H12444896   3.986   1.844   2.920  1.1341  0.6255 -0.3737
  247MOL   H12544897   4.043   1.708   3.186 -0.0902  0.2205 -0.1771
  247MOL   H12644898   3.926   1.835   3.167 -1.4512 -0.4160  0.3720
  247MOL   H12744899   3.899   1.673   3.085  2.1426 -0.7722 -2.0009
  247MOL   C12844900   4.330   1.558   2.966  0.3034 -0.4075 -0.8108
  247MOL   C12944901   4.365   1.476   3.085  0.5483  0.2134 -0.5045
  247MOL   C13044902   4.452   1.634   2.918  0.1231  0.2840  0.4011
  247MOL   O13144903   4.511   1.699   2.999  0.3438  0.1728  0.4338
  247MOL   O13244904   4.480   1.617   2.786 -0.1892  0.4652  0.3299
  247MOL   H13344905   4.288   1.493   2.889 -1.8999  1.1950 -1.0303
  247MOL   H13444906   4.439   1.404   3.049  2.1075  0.8636  1.2696
  247MOL   H13544907   4.414   1.533   3.164  1.7581 -1.9303  0.3442
  247MOL   H13644908   4.268   1.434   3.111  1.2574 -0.4460  1.1557
  247MOL   C13744909   4.591   1.682   2.723  0.1889 -0.7014 -0.0235
  247MOL   C13844910   4.540   1.823   2.670 -0.1836  0.0683  0.3496
  247MOL   C13944911   4.646   1.590   2.611  0.5984 -0.1922  0.0683
  247MOL   O14044912   4.672   1.637   2.501  0.7593  0.1435 -0.4771
  247MOL   O14144913   4.676   1.469   2.644 -0.8946  0.6732  0.0373
  247MOL   H14244914   4.678   1.696   2.786  1.2716 -0.7227 -1.4707
  247MOL   H14344915   4.457   1.817   2.599  0.7696  0.3506 -0.7945
  247MOL   H14444916   4.509   1.884   2.755 -1.2842 -1.3235  0.9740
  247MOL   H14544917   4.622   1.878   2.624  1.4670 -1.3116  1.6048
  247MOL   C14644918   4.767   1.391   2.564  0.4095  0.5603 -0.3015
  247MOL   C14744919   4.786   1.268   2.655 -0.3417  0.2730 -0.5413
  247MOL   C14844920   4.908   1.454   2.543  0.9779  0.1337 -0.4333
  247MOL   O14944921   4.971   1.424   2.444  0.1841  0.2931  0.8919
  247MOL   O15044922   4.958   1.522   2.648 -0.4783 -0.1774  0.0994
  247MOL   H15144923   4.731   1.367   2.464  2.1686  2.3390 -1.3960
  247MOL   H15244924   4.837   1.189   2.600 -1.9216 -0.1407 -1.4399
  247MOL   H15344925   4.841   1.280   2.748  0.1064 -1.8186 -0.5063
  247MOL   H15444926   4.696   1.210   2.675  0.1525 -1.4293 -3.0515
  247MOL   C15544927   5.091   1.570   2.642 -0.2002 -0.0237  0.1324
  247MOL   C15644928   5.107   1.613   2.783 -0.3232 -0.0993  0.4277
  247MOL   C15744929   5.127   1.673   2.533 -0.0815  0.2391  0.1283
  247MOL   O15844930   5.227   1.658   2.460  0.3673 -0.1311  0.1020
  247MOL   O15944931   5.045   1.780   2.547 -0.1010  0.0064 -0.3773
  247MOL   H16044932   5.156   1.484   2.626  0.7260  0.7437 -0.3677
  247MOL   H16144933   5.020   1.669   2.817 -0.1693  0.1147  0.4753
  247MOL   H16244934   5.123   1.531   2.852 -1.1441 -0.6461 -0.0341
  247MOL   H16344935   5.197   1.671   2.805  1.2204 -1.6780 -1.5754
  247MOL   C16444936   5.080   1.900   2.486  0.0176  0.0968  0.2223
  247MOL   C16544937   5.007   2.009   2.557  0.4785  1.0304 -0.1966
  247MOL   C16644938   5.048   1.885   2.342  0.4136  0.4465 -0.4334
  247MOL   O16744939   5.139   1.896   2.258 -0.1002 -0.6770 -0.1601
  247MOL   O16844940   4.927   1.875   2.316 -0.2917  0.1040 -0.0342
  247MOL   H16944941   5.188   1.916   2.489 -0.1598  1.1333  1.1541
  247MOL   H17044942   4.900   1.990   2.564  0.5137  0.3640 -1.3445
  247MOL   H17144943   5.046   2.004   2.659 -2.8295 -0.3424  1.0789
  247MOL   H17244944   5.021   2.108   2.513 -0.2902  0.7173 -1.1741
  247MOL   C17344945   4.888   1.853   2.181  0.7466  0.6601 -0.1124
  247MOL   C17444946   4.734   1.861   2.182 -0.2152 -0.3264  0.6187
  247MOL   C17544947   4.937   1.714   2.132 -0.2281  0.3667  0.0147
  247MOL   O17644948   5.018   1.690   2.045 -0.4242  0.3577  0.3593
  247MOL   O17744949   4.885   1.612   2.207 -0.6298  0.0257 -0.9176
  247MOL   H17844950   4.930   1.936   2.123  0.5626  0.9849  0.2128
  247MOL   H17944951   4.695   1.856   2.080 -0.4576  0.5917  0.6561
  247MOL   H18044952   4.701   1.780   2.247  1.2937 -0.7848  0.8113
  247MOL   H18144953   4.703   1.956   2.225  0.8694 -1.0481  3.0509
  247MOL   H18244954   4.918   1.526   2.184 -0.9967 -0.0976 -0.9843
  248MOL     C144955   1.675   1.479   3.154  0.7638 -0.5468  0.4157
  248MOL     C244956   1.734   1.380   3.260  0.2240  0.3260 -0.3754
  248MOL     C344957   1.766   1.499   3.040  0.2858 -0.6311 -0.0355
  248MOL     O444958   1.763   1.612   2.983  0.5529  0.3511  0.2747
  248MOL     O544959   1.850   1.396   3.002 -0.5157  0.1972 -0.1307
  248MOL     H644960   1.576   1.436   3.139  0.6474  0.2460 -1.1374
  248MOL     H744961   1.835   1.344   3.239 -0.0190  0.8588 -2.5918
  248MOL     H844962   1.750   1.428   3.357 -1.6044  0.3151 -0.0620
  248MOL     H944963   1.676   1.288   3.258 -0.5066  0.7999 -2.3468
  248MOL    H1044964   1.659   1.576   3.200  2.5226 -0.3430  0.6544
  248MOL    C1144965   1.902   1.386   2.875 -0.1960  0.1383  0.3634
  248MOL    C1244966   1.958   1.246   2.865 -0.3195  0.3035  0.0074
  248MOL    C1344967   2.018   1.489   2.863 -0.7617  0.1632  0.1724
  248MOL    O1444968   2.089   1.523   2.954  0.1755  0.1083 -0.1077
  248MOL    O1544969   2.031   1.539   2.740 -0.2848 -0.4597  0.1537
  248MOL    H1644970   1.826   1.416   2.803  0.8986  0.4518 -0.6737
  248MOL    H1744971   1.882   1.168   2.867  0.2402 -0.2839 -0.8844
  248MOL    H1844972   2.015   1.226   2.774  1.8631 -1.8842  1.7685
  248MOL    H1944973   2.020   1.212   2.949 -0.3768  0.4281  0.0989
  248MOL    C2044974   2.095   1.662   2.700  0.8522  0.1061 -0.2387
  248MOL    C2144975   1.984   1.751   2.645 -0.0661  0.2921 -0.7532
  248MOL    C2244976   2.197   1.633   2.590  0.1470  0.4008 -0.3565
  248MOL    O2344977   2.209   1.712   2.496 -0.1493 -0.3502  0.1715
  248MOL    O2444978   2.270   1.516   2.612  0.2546  0.1311  0.0938
  248MOL    H2544979   2.143   1.717   2.781  4.0104 -0.4355 -1.6787
  248MOL    H2644980   2.023   1.851   2.631  3.3173 -1.1177 -1.9038
  248MOL    H2744981   1.959   1.709   2.547 -0.6580  2.3911 -1.5335
  248MOL    H2844982   1.901   1.755   2.716 -0.5176 -0.6394 -1.2070
  248MOL    C2944983   2.382   1.476   2.536 -0.1249 -0.2232 -0.2695
  248MOL    C3044984   2.427   1.337   2.577 -0.2989 -0.8863  0.3515
  248MOL    C3144985   2.497   1.586   2.538  0.3258 -0.3041  0.1986
  248MOL    O3244986   2.533   1.642   2.437 -0.8236  0.0669 -0.3663
  248MOL    O3344987   2.550   1.604   2.653  0.1282  0.4481  0.3436
  248MOL    H3444988   2.348   1.463   2.433 -1.2313  1.0955 -0.0851
  248MOL    H3544989   2.478   1.349   2.672  0.0296 -0.7136  0.1516
  248MOL    H3644990   2.334   1.283   2.597 -1.4958 -0.3806 -3.4145
  248MOL    H3744991   2.494   1.291   2.505 -0.0281  1.0665 -0.6583
  248MOL    C3844992   2.657   1.695   2.665 -0.7082 -0.4533 -1.2565
  248MOL    C3944993   2.718   1.659   2.811 -0.4257 -0.3943 -0.0646
  248MOL    C4044994   2.611   1.842   2.671 -0.0481  0.4018 -0.5017
  248MOL    O4144995   2.687   1.925   2.628  0.1719  0.0833  0.4386
  248MOL    O4244996   2.502   1.866   2.744 -0.3603  0.0470 -0.4328
  248MOL    H4344997   2.738   1.682   2.593 -0.1088 -1.3725 -0.4314
  248MOL    H4444998   2.792   1.732   2.844 -0.7138 -1.1021  2.2387
  248MOL    H4544999   2.640   1.654   2.887 -2.5818  1.3016 -2.1224
  248MOL    H4645000   2.771   1.563   2.809 -1.4154 -0.9402 -0.7284
  248MOL    C4745001   2.421   1.985   2.728 -0.7084  0.6771 -0.1203
  248MOL    C4845002   2.372   2.018   2.584 -0.2541  0.4130  0.4421
  248MOL    C4945003   2.484   2.105   2.800 -0.1993 -0.4833 -0.5217
  248MOL    O5045004   2.475   2.123   2.920 -0.0945  0.3419  0.7368
  248MOL    O5145005   2.548   2.193   2.712 -0.3450 -0.1333 -0.4607
  248MOL    H5245006   2.329   1.972   2.785 -0.2877 -0.1223  0.3979
  248MOL    H5345007   2.332   2.119   2.572  0.0483  0.3021 -1.7961
  248MOL    H5445008   2.457   1.998   2.519  0.7982  2.3445  1.1618
  248MOL    H5545009   2.303   1.942   2.548 -0.1341 -0.0966  1.2811
  248MOL    C5645010   2.607   2.306   2.769 -0.2870 -0.6019 -0.3644
  248MOL    C5745011   2.609   2.402   2.649  0.6271 -0.1342 -0.0599
  248MOL    C5845012   2.750   2.279   2.827  0.3765  0.1735 -0.2519
  248MOL    O5945013   2.843   2.352   2.794  0.2845  0.1387 -0.1636
  248MOL    O6045014   2.757   2.172   2.910 -0.5476  0.0285 -0.6890
  248MOL    H6145015   2.552   2.354   2.850  2.2334  0.0705  1.0227
  248MOL    H6245016   2.516   2.408   2.593  1.4675 -0.8138 -1.5692
  248MOL    H6345017   2.628   2.502   2.687  0.5208 -0.6537  1.4120
  248MOL    H6445018   2.683   2.371   2.576  0.1436  0.7903 -0.9481
  248MOL    C6545019   2.890   2.134   2.963 -0.4089 -0.2755  0.5162
  248MOL    C6645020   2.949   2.023   2.865  0.0815  0.2625 -0.2753
  248MOL    C6745021   2.879   2.089   3.108  0.5576  0.1030 -0.5381
  248MOL    O6845022   2.923   1.980   3.142 -0.2800 -0.3739 -0.3533
  248MOL    O6945023   2.809   2.171   3.192  0.2336 -0.0559 -0.2547
  248MOL    H7045024   2.960   2.217   2.970  1.7979 -2.1416  1.0598
  248MOL    H7145025   2.896   1.933   2.897 -1.2557  1.2750  0.4033
  248MOL    H7245026   2.930   2.048   2.761  2.7127 -2.1460 -1.3758
  248MOL    H7345027   3.052   2.019   2.898 -0.3199  1.9373  1.2583
  248MOL    C7445028   2.783   2.140   3.331 -0.3232  0.1541 -0.2005
  248MOL    C7545029   2.897   2.193   3.421  0.8219 -0.9099 -0.0372
  248MOL    C7645030   2.757   1.988   3.360  0.6411  0.0427  0.7014
  248MOL    O7745031   2.832   1.925   3.425 -0.3245 -0.5475 -0.4933
  248MOL    O7845032   2.656   1.935   3.292  0.3999 -0.0365 -0.1495
  248MOL    H7945033   2.698   2.192   3.373 -0.4269  0.0123 -0.2349
  248MOL    H8045034   2.995   2.153   3.393  2.0499  1.5856  0.5937
  248MOL    H8145035   2.892   2.301   3.414 -2.9578 -1.0618 -0.5932
  248MOL    H8245036   2.890   2.165   3.526 -1.7717  0.8323  0.2960
  248MOL    C8345037   2.642   1.791   3.290  0.2415 -0.1757  0.1748
  248MOL    C8445038   2.548   1.774   3.170  0.2142 -0.5749  0.4724
  248MOL    C8545039   2.588   1.746   3.427  0.1463  0.1395  0.0781
  248MOL    O8645040   2.479   1.797   3.462 -0.0803  0.1002  0.2131
  248MOL    O8745041   2.667   1.667   3.496  0.0103 -0.0825 -0.3168
  248MOL    H8845042   2.738   1.747   3.265  1.3800  1.4414  1.6020
  248MOL    H8945043   2.547   1.673   3.130 -1.3000  0.3261 -1.8722
  248MOL    H9045044   2.443   1.793   3.192  0.8840  0.9021  2.5627
  248MOL    H9145045   2.579   1.842   3.091 -3.1917  0.7904  0.2073
  248MOL    C9245046   2.618   1.597   3.612 -0.0692  0.4510  0.1152
  248MOL    C9345047   2.732   1.537   3.688 -0.0497  0.1427  0.0349
  248MOL    C9445048   2.506   1.499   3.572 -0.2290  0.2217 -0.1142
  248MOL    O9545049   2.391   1.535   3.579 -0.0497 -0.3946 -0.1440
  248MOL    O9645050   2.555   1.383   3.515  0.6908  0.3662  0.2302
  248MOL    H9745051   2.584   1.666   3.690 -0.3320  0.8576 -0.3556
  248MOL    H9845052   2.704   1.515   3.791  0.8374  0.3628  0.3289
  248MOL    H9945053   2.769   1.447   3.639  0.5350  1.5483 -2.1720
  248MOL   H10045054   2.825   1.593   3.698 -0.6044  0.9516  0.7542
  248MOL   C10145055   2.480   1.306   3.418  0.2620 -0.0848  0.2148
  248MOL   C10245056   2.513   1.153   3.439 -0.5861 -0.5181  0.3462
  248MOL   C10345057   2.491   1.368   3.275 -0.1866  0.4953 -0.1329
  248MOL   O10445058   2.560   1.468   3.259 -0.1271  0.9633 -0.3437
  248MOL   O10545059   2.418   1.296   3.186  0.1288 -0.2505 -0.1515
  248MOL   H10645060   2.373   1.321   3.434  0.2709  2.3759 -1.6898
  248MOL   H10745061   2.451   1.109   3.518 -0.8490 -1.5600 -0.4289
  248MOL   H10845062   2.514   1.107   3.340  0.3891  0.8602 -0.2964
  248MOL   H10945063   2.612   1.130   3.477 -0.1933 -1.8310 -1.4030
  248MOL   C11045064   2.426   1.311   3.041  0.8019  0.6029 -0.4232
  248MOL   C11145065   2.320   1.225   2.966 -0.9900 -0.0023 -0.2006
  248MOL   C11245066   2.565   1.268   2.991  0.6461  0.3979 -0.3084
  248MOL   O11345067   2.619   1.346   2.912  0.2110 -0.7548  0.4752
  248MOL   O11445068   2.601   1.152   3.048 -0.0072  0.1229 -0.4929
  248MOL   H11545069   2.398   1.412   3.010 -1.5319 -0.1800 -0.9214
  248MOL   H11645070   2.223   1.276   2.966 -0.6707  0.6062  0.4483
  248MOL   H11745071   2.351   1.205   2.863 -1.4517  1.7779 -0.7039
  248MOL   H11845072   2.302   1.125   3.005  1.5299 -0.8781 -1.1805
  248MOL   C11945073   2.745   1.117   3.033 -0.0795 -0.3211 -0.2032
  248MOL   C12045074   2.763   0.961   3.037 -0.6196  0.9303 -0.6458
  248MOL   C12145075   2.823   1.184   3.140  0.0130 -0.0619 -0.0733
  248MOL   O12245076   2.814   1.140   3.254  0.1343 -0.4705 -0.3456
  248MOL   O12345077   2.907   1.282   3.098 -0.3832 -0.0313  0.8317
  248MOL   H12445078   2.781   1.141   2.933  1.3834 -1.1658  0.1135
  248MOL   H12545079   2.708   0.931   2.948  2.1782 -0.5374 -1.9193
  248MOL   H12645080   2.866   0.927   3.031 -0.7351  0.4315  0.1093
  248MOL   H12745081   2.712   0.917   3.123  0.6340 -2.7071 -1.6747
  248MOL   C12845082   3.002   1.337   3.187  0.1053  0.3905 -0.0791
  248MOL   C12945083   2.941   1.431   3.294  0.2054  0.2093 -0.5137
  248MOL   C13045084   3.108   1.414   3.107  0.3089  0.8947  0.1123
  248MOL   O13145085   3.226   1.379   3.105 -0.1087 -0.0542 -0.1753
  248MOL   O13245086   3.064   1.524   3.037 -0.1420 -0.5394 -0.3492
  248MOL   H13345087   3.063   1.261   3.236 -0.6568  0.3185  0.7877
  248MOL   H13445088   3.020   1.478   3.353  0.2305  0.1506 -0.5005
  248MOL   H13545089   2.860   1.496   3.260  1.0558  2.1782  1.1444
  248MOL   H13645090   2.884   1.374   3.367 -2.5497  2.4433 -0.8381
  248MOL   C13745091   3.156   1.585   2.947  0.2526  0.2076 -0.6345
  248MOL   C13845092   3.119   1.735   2.919  0.1126 -0.7022  0.4906
  248MOL   C13945093   3.173   1.505   2.815  0.7516 -0.1089  0.2316
  248MOL   O14045094   3.101   1.412   2.790  0.1736 -0.7275 -0.0330
  248MOL   O14145095   3.266   1.556   2.728  0.4455 -0.2133 -0.1802
  248MOL   H14245096   3.252   1.586   3.000 -0.0057  0.9700 -0.1594
  248MOL   H14345097   3.029   1.758   2.862  0.3959 -0.0471  0.3081
  248MOL   H14445098   3.119   1.790   3.014  0.7996 -1.0804  0.7100
  248MOL   H14545099   3.212   1.769   2.873 -0.0904 -1.2015 -0.2923
  248MOL   C14645100   3.296   1.490   2.606  0.5601 -0.3925  0.4510
  248MOL   C14745101   3.445   1.467   2.613  0.1382 -1.2008  0.5377
  248MOL   C14845102   3.251   1.580   2.488  0.0515 -0.0883 -0.7947
  248MOL   O14945103   3.326   1.597   2.398  0.1411  0.1405  0.6234
  248MOL   O15045104   3.137   1.647   2.507  0.4830  0.5076 -0.4004
  248MOL   H15145105   3.238   1.398   2.594 -1.3018  0.6680  1.0726
  248MOL   H15245106   3.484   1.454   2.512 -1.6764 -0.4509 -0.2682
  248MOL   H15345107   3.489   1.559   2.651 -0.3900 -0.5982 -0.2903
  248MOL   H15445108   3.478   1.373   2.658 -0.6770 -1.3282  0.8664
  248MOL   C15545109   3.108   1.777   2.461  0.8173 -0.0294  0.1200
  248MOL   C15645110   3.004   1.829   2.558 -0.5435  0.5260  0.2544
  248MOL   C15745111   3.057   1.760   2.318  0.4811  0.3472 -0.7716
  248MOL   O15845112   3.090   1.837   2.228 -0.8437  0.4175  0.2655
  248MOL   O15945113   2.973   1.649   2.301 -0.6041 -0.2374  0.5293
  248MOL   H16045114   3.198   1.836   2.480  0.2277  0.2913  2.0132
  248MOL   H16145115   3.055   1.852   2.652  0.1337 -0.2618  0.0817
  248MOL   H16245116   2.958   1.921   2.520 -2.1019 -1.4077 -2.7530
  248MOL   H16345117   2.915   1.769   2.579  0.5421 -0.6859  1.5167
  248MOL   C16445118   2.912   1.624   2.174  0.4132 -0.5425 -0.2442
  248MOL   C16545119   2.781   1.546   2.205 -0.5803  0.2577  0.3153
  248MOL   C16645120   3.015   1.572   2.071 -0.3573  0.4832  0.4659
  248MOL   O16745121   3.115   1.508   2.096 -0.0142 -1.0593  0.2900
  248MOL   O16845122   2.986   1.617   1.942  0.0948 -0.1499 -0.1795
  248MOL   H16945123   2.882   1.724   2.142 -1.3430 -0.7902  0.5817
  248MOL   H17045124   2.720   1.537   2.115 -0.5515  2.4792  0.0471
  248MOL   H17145125   2.808   1.441   2.211  1.0148  0.6250 -0.0316
  248MOL   H17245126   2.714   1.580   2.283 -1.7837 -1.7833  0.1917
  248MOL   C17345127   3.064   1.577   1.830 -0.0359 -0.2441  0.3292
  248MOL   C17445128   3.017   1.670   1.718 -0.7313 -0.0980 -0.1295
  248MOL   C17545129   3.048   1.424   1.798 -0.0277  0.6325 -0.9349
  248MOL   O17645130   2.979   1.342   1.862 -0.1099  0.4814  0.4265
  248MOL   O17745131   3.132   1.392   1.697  0.5349 -0.2732  0.1585
  248MOL   H17845132   3.172   1.591   1.830 -0.0306  0.2147  3.5713
  248MOL   H17945133   3.048   1.771   1.744 -2.9832  0.5355  0.1491
  248MOL   H18045134   3.071   1.643   1.627 -1.0821  0.2162 -0.4280
  248MOL   H18145135   2.909   1.669   1.711 -0.7585  2.7554 -0.8677
  248MOL   H18245136   3.128   1.300   1.677 -0.0535  0.2319 -2.3218
  249MOL     C145137   3.533   7.750   6.836  0.4693 -0.7054 -0.1364
  249MOL     C245138   3.445   7.626   6.819  0.5494 -0.5397  0.8571
  249MOL     C345139   3.642   7.757   6.724  0.6102 -0.1381 -0.2187
  249MOL     O445140   3.633   7.690   6.622  0.1968  0.1724 -0.3542
  249MOL     O545141   3.733   7.851   6.747 -0.3070 -0.2035 -0.5164
  249MOL     H645142   3.482   7.846   6.830  0.3096 -0.8827 -1.8666
  249MOL     H745143   3.488   7.530   6.850  0.9519 -0.2911  1.0764
  249MOL     H845144   3.357   7.646   6.879 -0.3572 -2.1377  0.0768
  249MOL     H945145   3.409   7.622   6.716 -1.0425  0.8748  1.3343
  249MOL    H1045146   3.574   7.749   6.937 -0.9986 -0.2512  0.4639
  249MOL    C1145147   3.835   7.877   6.656  0.3639  0.2162 -0.0832
  249MOL    C1245148   3.959   7.777   6.677 -0.5679 -0.1658 -0.3315
  249MOL    C1345149   3.883   8.022   6.669  0.3880 -0.0278 -0.1929
  249MOL    O1445150   4.008   8.048   6.680  1.1155 -0.1396  0.4569
  249MOL    O1545151   3.789   8.113   6.662  0.2235  0.5609  0.0550
  249MOL    H1645152   3.801   7.877   6.553 -1.5376 -0.6921  0.5201
  249MOL    H1745153   4.046   7.795   6.614 -1.1137  1.7182 -0.5827
  249MOL    H1845154   3.987   7.804   6.779  0.1678  0.5844 -0.7190
  249MOL    H1945155   3.940   7.671   6.669  1.7677 -0.5929 -0.7190
  249MOL    C2045156   3.823   0.106   6.667  0.4640 -0.2830 -0.1211
  249MOL    C2145157   3.698   0.190   6.673 -0.8650 -0.2333  1.3908
  249MOL    C2245158   3.918   0.147   6.549 -0.5984 -0.5516  1.3594
  249MOL    O2345159   4.022   0.214   6.559  0.4318 -0.0166 -0.1547
  249MOL    O2445160   3.859   0.108   6.431 -0.3800  0.1070  0.0874
  249MOL    H2545161   3.889   0.119   6.753 -0.0346 -1.8922  0.5224
  249MOL    H2645162   3.636   0.154   6.755 -2.4365 -0.3419  0.1711
  249MOL    H2745163   3.717   0.298   6.675  0.3092 -0.3969 -0.0542
  249MOL    H2845164   3.631   0.181   6.588  0.5190  1.5556  0.0604
  249MOL    C2945165   3.926   0.131   6.305 -0.1907  0.0474 -0.3502
  249MOL    C3045166   3.812   0.141   6.205  0.1610 -0.5086 -0.5818
  249MOL    C3145167   4.034   0.026   6.271 -0.2181  0.1874 -0.4670
  249MOL    O3245168   4.055   8.079   6.346 -0.0080  0.5850 -0.5091
  249MOL    O3345169   4.080   0.047   6.148 -0.0252  0.1396  0.5488
  249MOL    H3445170   3.975   0.228   6.309 -1.3409  0.5832  1.5557
  249MOL    H3545171   3.855   0.149   6.105 -0.3841  1.0063 -0.7008
  249MOL    H3645172   3.732   0.067   6.206 -0.8673  0.5959  0.4219
  249MOL    H3745173   3.761   0.233   6.234 -1.4366 -1.8713  1.0672
  249MOL    C3845174   4.181   8.112   6.088 -0.3034  0.2739 -0.4268
  249MOL    C3945175   4.252   0.067   6.001 -0.0497 -0.1299 -0.0453
  249MOL    C4045176   4.121   8.004   5.995 -0.8299 -0.0896 -0.0224
  249MOL    O4145177   4.017   8.019   5.934  0.0873 -0.6326 -0.1476
  249MOL    O4245178   4.208   7.894   5.977  0.3738  0.1368  0.0694
  249MOL    H4345179   4.252   8.080   6.165  0.1650 -0.5793 -1.2055
  249MOL    H4445180   4.349   0.025   5.975 -0.6520 -2.2394  0.9573
  249MOL    H4545181   4.198   0.088   5.909  1.9230  0.6616 -1.0409
  249MOL    H4645182   4.281   0.156   6.057  2.2959 -1.2806  0.6393
  249MOL    C4745183   4.163   7.788   5.900 -0.1977 -0.0174  0.5332
  249MOL    C4845184   4.148   7.824   5.749 -0.2478  0.0544  0.3191
  249MOL    C4945185   4.036   7.720   5.972  0.5663  0.2757  0.5885
  249MOL    O5045186   3.928   7.698   5.914 -0.0558  0.5356 -0.2012
  249MOL    O5145187   4.060   7.676   6.102  0.0074 -0.0412  0.4707
  249MOL    H5245188   4.233   7.704   5.904  1.9145  1.8349  3.5637
  249MOL    H5345189   4.240   7.858   5.701 -0.6609 -0.0004 -0.5306
  249MOL    H5445190   4.134   7.724   5.707  1.3791 -0.6251  1.3354
  249MOL    H5545191   4.064   7.890   5.727 -1.6102 -1.6002  0.4147
  249MOL    C5645192   3.954   7.631   6.185 -0.0146  0.8301  0.3788
  249MOL    C5745193   3.914   7.752   6.274 -0.1701  0.4669 -0.0189
  249MOL    C5845194   4.014   7.517   6.266  0.2527 -0.3562  0.4356
  249MOL    O5945195   4.005   7.510   6.387  0.8191 -0.3842  0.0618
  249MOL    O6045196   4.071   7.433   6.188  0.1974 -0.5674 -0.1213
  249MOL    H6145197   3.869   7.585   6.135  0.4264  2.0766 -1.5690
  249MOL    H6245198   3.996   7.782   6.339 -0.9798  0.9387  0.8006
  249MOL    H6345199   3.881   7.837   6.213  0.0377  0.3672 -0.2685
  249MOL    H6445200   3.827   7.718   6.330  1.7998 -3.6154  0.7466
  249MOL    C6545201   4.141   7.322   6.242 -0.5829  0.3394 -0.3037
  249MOL    C6645202   4.268   7.305   6.161 -0.5830 -0.6776 -0.0324
  249MOL    C6745203   4.039   7.212   6.232  0.3674  0.2006 -0.3566
  249MOL    O6845204   4.057   7.119   6.152  0.2712 -0.3911 -0.0789
  249MOL    O6945205   3.921   7.226   6.306 -0.7737 -0.2032 -0.6463
  249MOL    H7045206   4.178   7.331   6.344 -0.3183 -2.1635 -0.1546
  249MOL    H7145207   4.333   7.392   6.169 -0.5369 -0.5964 -1.1829
  249MOL    H7245208   4.333   7.224   6.194  1.2366  0.8647  0.2285
  249MOL    H7345209   4.247   7.302   6.054 -1.1355 -0.0384  0.0545
  249MOL    C7445210   3.812   7.137   6.303 -0.0486  0.2291 -0.8656
  249MOL    C7545211   3.694   7.226   6.325 -0.1640 -0.4464 -0.5702
  249MOL    C7645212   3.837   7.025   6.410 -0.1833  0.5971 -0.1529
  249MOL    O7745213   3.811   7.044   6.527 -0.6789  0.2565 -0.5537
  249MOL    O7845214   3.900   6.921   6.359  0.5592 -0.5115  0.2063
  249MOL    H7945215   3.808   7.086   6.207 -0.9228  0.1096 -0.7643
  249MOL    H8045216   3.698   7.274   6.423 -1.2144  0.1352 -0.8028
  249MOL    H8145217   3.688   7.303   6.248  0.6693  0.8493  0.6396
  249MOL    H8245218   3.597   7.176   6.321 -0.1185 -0.5206 -0.7270
  249MOL    C8345219   3.941   6.814   6.446 -0.0606  0.1654 -0.7624
  249MOL    C8445220   4.089   6.826   6.473 -0.4426  0.3391 -1.0180
  249MOL    C8545221   3.894   6.674   6.395 -0.1444  0.1291 -1.0179
  249MOL    O8645222   3.824   6.671   6.297 -0.2299  0.1613  1.0300
  249MOL    O8745223   3.936   6.567   6.462  0.0345 -0.2352  0.4951
  249MOL    H8845224   3.893   6.823   6.543  0.4139 -0.2127 -0.4951
  249MOL    H8945225   4.123   6.749   6.543  1.7141  0.8133 -1.5190
  249MOL    H9045226   4.150   6.806   6.386  1.7901 -1.2897  0.8465
  249MOL    H9145227   4.125   6.914   6.526  1.9412 -0.9459 -0.4034
  249MOL    C9245228   3.903   6.441   6.415 -0.2368 -0.0104  0.1562
  249MOL    C9345229   3.916   6.349   6.538  0.4323  1.2759  0.1568
  249MOL    C9445230   3.996   6.400   6.298 -0.3626 -0.3352  0.2853
  249MOL    O9545231   4.119   6.407   6.303  0.2635  0.2738 -0.4411
  249MOL    O9645232   3.931   6.380   6.187  0.2377  0.1828  0.4626
  249MOL    H9745233   3.797   6.440   6.389  0.1888  0.0094 -1.5930
  249MOL    H9845234   3.911   6.249   6.494  1.3486  1.0029  0.6542
  249MOL    H9945235   4.011   6.367   6.588  0.7563 -0.2738  0.1539
  249MOL   H10045236   3.830   6.349   6.605 -1.2930  3.4184 -1.9734
  249MOL   C10145237   3.999   6.365   6.067  0.1867 -0.1624  0.2197
  249MOL   C10245238   3.896   6.354   5.957  0.5621  0.0731  0.1019
  249MOL   C10345239   4.085   6.239   6.065  0.0129  0.0551  0.0282
  249MOL   O10445240   4.029   6.131   6.082  0.5463 -0.2673  0.2866
  249MOL   O10545241   4.216   6.274   6.055  0.5253  0.7480  0.2654
  249MOL   H10645242   4.068   6.448   6.051  2.7279 -2.2269  0.0868
  249MOL   H10745243   3.835   6.266   5.975  0.8783 -0.5857 -1.8885
  249MOL   H10845244   3.841   6.448   5.952  2.1015  0.9734 -0.3891
  249MOL   H10945245   3.945   6.332   5.862  1.9664 -1.3248  1.1278
  249MOL   C11045246   4.317   6.173   6.029  0.2001 -0.5335  0.4246
  249MOL   C11145247   4.457   6.234   6.008  0.5021  1.0629  0.3979
  249MOL   C11245248   4.286   6.081   5.915 -0.3254 -0.5227 -0.6447
  249MOL   O11345249   4.249   5.965   5.940 -0.2418 -0.3628 -0.1798
  249MOL   O11445250   4.312   6.136   5.793 -0.3203 -0.4193 -0.5370
  249MOL   H11545251   4.322   6.113   6.119 -0.9809 -1.1628  0.0864
  249MOL   H11645252   4.450   6.309   5.929 -1.4555  1.0742  0.5610
  249MOL   H11745253   4.475   6.284   6.103  1.2545  0.9751  0.3084
  249MOL   H11845254   4.532   6.159   5.982 -0.0286 -0.7396  3.7994
  249MOL   C11945255   4.295   6.049   5.679 -0.3494 -0.3583  0.6017
  249MOL   C12045256   4.433   6.010   5.635 -0.7193 -0.3769 -0.0706
  249MOL   C12145257   4.221   6.134   5.568 -0.0595 -0.6372 -0.4592
  249MOL   O12245258   4.149   6.230   5.592  0.9140  0.3301  0.6673
  249MOL   O12345259   4.246   6.084   5.449 -0.2171 -0.3981  0.7386
  249MOL   H12445260   4.238   5.958   5.701 -2.2863  1.0465  1.6475
  249MOL   H12545261   4.429   5.931   5.560 -2.6940 -1.1609  0.8429
  249MOL   H12645262   4.484   6.102   5.604 -0.3861 -0.2887  0.7103
  249MOL   H12745263   4.496   5.971   5.715 -1.1285 -0.1095  0.3765
  249MOL   C12845264   4.192   6.150   5.323  0.6920  1.0035 -0.2924
  249MOL   C12945265   4.199   6.050   5.217  0.3087  0.4183 -0.0473
  249MOL   C13045266   4.289   6.264   5.270  0.3626  0.4828  0.2019
  249MOL   O13145267   4.251   6.364   5.206 -0.1136  0.8006 -0.0600
  249MOL   O13245268   4.418   6.221   5.281  0.7638 -0.2150 -0.2280
  249MOL   H13345269   4.090   6.187   5.334  0.0848 -0.5561 -0.5475
  249MOL   H13445270   4.147   5.957   5.240  1.4238 -0.3081 -0.3696
  249MOL   H13545271   4.157   6.087   5.124  0.0257  0.4981  0.1164
  249MOL   H13645272   4.294   6.004   5.189  0.5046 -0.8757  2.5668
  249MOL   C13745273   4.531   6.300   5.244 -0.4975 -0.5695  0.5830
  249MOL   C13845274   4.659   6.228   5.205 -0.7619 -0.7745 -0.1578
  249MOL   C13945275   4.545   6.424   5.340 -0.5630 -0.1717 -0.7391
  249MOL   O14045276   4.603   6.524   5.310  0.3394 -0.5865  0.1257
  249MOL   O14145277   4.488   6.407   5.468  0.2009 -0.0242  0.5769
  249MOL   H14245278   4.507   6.348   5.149  1.6752  0.2344  0.3969
  249MOL   H14345279   4.641   6.173   5.113  0.2974  1.2523 -1.6065
  249MOL   H14445280   4.747   6.292   5.207 -1.1581 -0.2233  1.8812
  249MOL   H14545281   4.685   6.159   5.286  1.7508 -0.5678 -0.7548
  249MOL   C14645282   4.488   6.509   5.569 -0.0101 -0.4251  0.2749
  249MOL   C14745283   4.617   6.495   5.656  0.3151  0.0949  0.2865
  249MOL   C14845284   4.358   6.497   5.651  0.1425 -0.2914 -0.1932
  249MOL   O14945285   4.366   6.484   5.774 -0.2587 -0.4476 -0.9075
  249MOL   O15045286   4.243   6.510   5.583  0.1591 -0.5666 -0.0737
  249MOL   H15145287   4.498   6.610   5.528  1.0865 -1.2641 -1.5526
  249MOL   H15245288   4.621   6.550   5.750 -0.8321 -1.0756  1.0414
  249MOL   H15345289   4.626   6.391   5.687  0.5878  0.1624  0.4337
  249MOL   H15445290   4.701   6.513   5.589  0.7403  1.7692  1.2478
  249MOL   C15545291   4.113   6.527   5.640 -0.2326  0.6306  0.1543
  249MOL   C15645292   4.004   6.499   5.533 -0.0549 -0.0526 -0.2158
  249MOL   C15745293   4.099   6.664   5.704  0.5223 -0.6284 -0.8979
  249MOL   O15845294   4.106   6.765   5.639  0.0064  0.1010 -0.6206
  249MOL   O15945295   4.079   6.671   5.842  0.1581 -0.2069 -0.0671
  249MOL   H16045296   4.101   6.452   5.718  2.3848 -0.5372 -0.5197
  249MOL   H16145297   4.011   6.562   5.445  0.2020 -0.3726 -0.4236
  249MOL   H16245298   4.006   6.395   5.500 -0.6488 -0.6855  1.6433
  249MOL   H16345299   3.905   6.530   5.568 -0.7201 -1.1928 -1.0583
  249MOL   C16445300   4.032   6.797   5.903  0.0771  0.2720 -0.0305
  249MOL   C16545301   4.053   6.778   6.052  0.2088 -0.0740  0.5543
  249MOL   C16645302   3.888   6.822   5.860  0.1403 -0.3097  0.0250
  249MOL   O16745303   3.836   6.779   5.760 -0.5276 -0.1681  0.1189
  249MOL   O16845304   3.823   6.899   5.954 -0.2013 -0.6238  0.3200
  249MOL   H16945305   4.101   6.876   5.872  2.2676 -1.1672  1.0824
  249MOL   H17045306   3.985   6.699   6.084 -1.4977  1.7785  1.5805
  249MOL   H17145307   4.154   6.750   6.082  0.1523 -0.6185  0.2512
  249MOL   H17245308   4.030   6.870   6.105 -0.5134  0.9009 -1.4003
  249MOL   C17345309   3.680   6.904   5.968  0.2686  0.4433 -0.0191
  249MOL   C17445310   3.650   7.056   5.973 -0.4798 -0.3190  0.3748
  249MOL   C17545311   3.650   6.824   6.090 -0.2712 -0.1576 -0.0952
  249MOL   O17645312   3.592   6.874   6.186 -0.5955 -0.1323 -0.4679
  249MOL   O17745313   3.678   6.692   6.083 -0.1362 -0.0715  0.1364
  249MOL   H17845314   3.619   6.852   5.894 -0.1984 -0.1093  0.7438
  249MOL   H17945315   3.628   7.101   5.877 -1.0227  1.2093  1.2058
  249MOL   H18045316   3.555   7.071   6.024 -0.6778  0.4904 -0.2422
  249MOL   H18145317   3.726   7.109   6.030 -1.9726  1.8441  0.4224
  249MOL   H18245318   3.646   6.646   6.159 -2.0886  0.7246 -0.1640
  250MOL     C145319   8.130   5.370   0.631 -0.2594 -0.2348 -0.2719
  250MOL     C245320   0.087   5.393   0.743  0.3281 -0.0532  0.1522
  250MOL     C345321   8.091   5.503   0.571  0.4483  0.2077  0.3405
  250MOL     O445322   8.135   5.611   0.614  0.1073  0.0649  0.6010
  250MOL     O545323   8.007   5.484   0.466 -0.5574  0.2590  0.2491
  250MOL     H645324   0.017   5.300   0.555  0.7573  0.2850 -0.3013
  250MOL     H745325   0.184   5.416   0.699 -0.1823 -0.7134 -1.3656
  250MOL     H845326   0.054   5.474   0.808 -0.0747 -0.4876  0.4962
  250MOL     H945327   0.104   5.300   0.798 -0.3243  2.2003  4.3416
  250MOL    H1045328   8.055   5.331   0.699  0.1443 -2.1353 -0.8692
  250MOL    C1145329   7.938   5.587   0.393 -0.1743 -0.5556  0.2149
  250MOL    C1245330   8.033   5.670   0.306 -0.2985  0.0034  0.2235
  250MOL    C1345331   7.845   5.664   0.483  0.3791 -0.2481 -0.0697
  250MOL    O1445332   7.841   5.787   0.480 -0.2080 -0.2137 -0.4416
  250MOL    O1545333   7.773   5.592   0.578  0.0896 -0.4875 -0.0112
  250MOL    H1645334   7.870   5.536   0.324 -0.9233 -0.1107  0.6209
  250MOL    H1745335   7.987   5.725   0.224 -0.0471  1.4294  1.0213
  250MOL    H1845336   8.075   5.741   0.378 -0.4192 -0.2146  0.5112
  250MOL    H1945337   8.113   5.616   0.255 -0.4256  0.8527 -0.8827
  250MOL    C2045338   7.692   5.652   0.673  0.5020  0.4233 -0.5516
  250MOL    C2145339   7.549   5.681   0.631  0.0678  0.0888  0.3533
  250MOL    C2245340   7.765   5.759   0.755  0.3884 -0.0244 -0.0922
  250MOL    O2345341   7.728   5.876   0.767  0.4863 -0.4430 -0.1404
  250MOL    O2445342   7.870   5.716   0.814 -0.3340  0.0399  0.3157
  250MOL    H2545343   7.678   5.569   0.742  0.3761 -0.2944 -1.4392
  250MOL    H2645344   7.511   5.600   0.569  1.2254 -0.4712  0.3547
  250MOL    H2745345   7.478   5.708   0.709 -1.5481  0.8403 -1.3246
  250MOL    H2845346   7.563   5.766   0.564  1.6812  2.1968  3.2533
  250MOL    C2945347   7.971   5.800   0.875 -0.1114  0.4242 -0.4536
  250MOL    C3045348   8.069   5.867   0.771  0.7399  0.5739  0.4144
  250MOL    C3145349   8.048   5.718   0.984  0.4189 -0.2107  0.2720
  250MOL    O3245350   8.034   5.598   1.000 -0.4356 -0.2929  0.4147
  250MOL    O3345351   8.124   5.807   1.061 -0.1512  0.4942 -0.4938
  250MOL    H3445352   7.920   5.887   0.914 -0.6993 -1.3473  2.9343
  250MOL    H3545353   0.020   5.822   0.775  0.8647  0.8344  0.3055
  250MOL    H3645354   8.023   5.866   0.672  0.1077 -0.8363  0.7132
  250MOL    H3745355   8.088   5.969   0.805 -2.9085  0.7382  2.2836
  250MOL    C3845356   0.056   5.758   1.166  0.7083  0.1298 -0.0017
  250MOL    C3945357   0.093   5.875   1.261  0.0947 -0.0230  0.0831
  250MOL    C4045358   0.180   5.684   1.111  0.7909 -0.2498  0.4188
  250MOL    O4145359   0.263   5.738   1.039 -0.4210  0.4603 -0.4986
  250MOL    O4245360   0.191   5.559   1.156 -0.5561 -0.4931 -0.4061
  250MOL    H4345361   0.002   5.684   1.226 -2.0994  1.9391 -0.2195
  250MOL    H4445362   0.144   5.955   1.207  1.2159  0.0176  1.1632
  250MOL    H4545363   0.006   5.914   1.313  0.5708 -0.0079  0.8770
  250MOL    H4645364   0.166   5.832   1.330 -0.3163 -2.4232 -0.9215
  250MOL    C4745365   0.309   5.484   1.127 -0.8523  0.4814  0.0242
  250MOL    C4845366   0.271   5.334   1.132 -0.7791  0.2020 -0.2403
  250MOL    C4945367   0.417   5.506   1.235 -0.2237 -0.3475 -0.9616
  250MOL    O5045368   0.533   5.472   1.217  0.5123 -0.6560 -0.7395
  250MOL    O5145369   0.367   5.565   1.344  1.1138  0.3394 -0.1118
  250MOL    H5245370   0.348   5.497   1.026 -0.8169  1.5764  0.1722
  250MOL    H5345371   0.235   5.300   1.229 -0.7040  2.0051  0.4234
  250MOL    H5445372   0.196   5.325   1.053 -0.2265  0.5549 -0.8116
  250MOL    H5545373   0.358   5.276   1.101  0.0036  2.7366 -3.0419
  250MOL    C5645374   0.450   5.616   1.449  0.4547  0.1827 -0.3048
  250MOL    C5745375   0.361   5.677   1.567 -0.7102  0.0321  0.5292
  250MOL    C5845376   0.559   5.717   1.405 -0.7635 -0.2017 -0.2838
  250MOL    O5945377   0.674   5.714   1.449  0.6608 -0.0056 -0.0057
  250MOL    O6045378   0.511   5.803   1.317  0.4818  0.2050  0.2300
  250MOL    H6145379   0.507   5.542   1.505  1.0861 -0.1362 -1.3501
  250MOL    H6245380   0.425   5.729   1.638 -0.9262  0.3630  0.4803
  250MOL    H6345381   0.283   5.742   1.528 -1.2430 -0.5363  0.6372
  250MOL    H6445382   0.306   5.608   1.631  1.1897 -2.8393 -0.8099
  250MOL    C6545383   0.594   5.906   1.261  0.5299 -1.2973  0.5141
  250MOL    C6645384   0.500   5.996   1.181 -0.1724 -0.0049 -0.1866
  250MOL    C6745385   0.711   5.842   1.172  0.1945 -0.7661 -0.5880
  250MOL    O6845386   0.821   5.893   1.171 -1.4155  0.0193  0.0001
  250MOL    O6945387   0.667   5.741   1.100  0.1463  0.1341 -0.4050
  250MOL    H7045388   0.635   5.969   1.340  0.8145  0.5652 -1.0713
  250MOL    H7145389   0.406   6.025   1.228 -0.0481 -1.2019  0.8401
  250MOL    H7245390   0.547   6.091   1.160 -1.0613  1.2279  3.0895
  250MOL    H7345391   0.465   5.941   1.093 -0.5903  2.1092 -1.3696
  250MOL    C7445392   0.745   5.698   0.989 -0.6292  0.1518 -0.0708
  250MOL    C7545393   0.665   5.739   0.866  1.0257  0.5909 -0.0043
  250MOL    C7645394   0.782   5.546   0.997  0.0503  0.6046  0.8046
  250MOL    O7745395   0.744   5.461   0.913 -0.5150  0.3316  0.1889
  250MOL    O7845396   0.858   5.522   1.099 -0.3971 -0.0210  0.6056
  250MOL    H7945397   0.841   5.751   0.993 -0.3996 -0.4159  4.5691
  250MOL    H8045398   0.724   5.691   0.788  3.1627  1.8542  0.8058
  250MOL    H8145399   0.567   5.690   0.864  2.1367 -1.7385  0.8228
  250MOL    H8245400   0.661   5.848   0.856 -2.2449  0.5223  0.0065
  250MOL    C8345401   0.895   5.392   1.138  0.2815  0.1474 -0.0924
  250MOL    C8445402   0.853   5.378   1.288  0.1183  0.0481 -0.2195
  250MOL    C8545403   1.049   5.387   1.118  0.4276 -0.2004  0.1104
  250MOL    O8645404   1.121   5.335   1.200 -0.0469  0.2586  0.5260
  250MOL    O8745405   1.096   5.435   0.996 -0.0666  0.2203  0.5239
  250MOL    H8845406   0.840   5.317   1.081 -1.6332  1.2277  0.2925
  250MOL    H8945407   0.744   5.376   1.284  0.0666  2.3953 -0.5507
  250MOL    H9045408   0.899   5.289   1.332  1.8880  0.2476 -1.5947
  250MOL    H9145409   0.873   5.468   1.347  2.8814 -2.4221  2.8313
  250MOL    C9245410   1.236   5.456   0.958 -0.0961 -0.5364  0.3796
  250MOL    C9345411   1.304   5.321   0.914  0.1398 -0.5601  0.1056
  250MOL    C9445412   1.312   5.541   1.064 -0.1505 -0.0412  0.5818
  250MOL    O9545413   1.417   5.506   1.120 -0.4665 -0.0126  0.1013
  250MOL    O9645414   1.244   5.654   1.082  0.9521 -0.0482  0.0461
  250MOL    H9745415   1.215   5.513   0.867 -2.5956 -0.8268  0.7497
  250MOL    H9845416   1.237   5.262   0.851 -0.4490  0.9796 -0.7248
  250MOL    H9945417   1.393   5.337   0.852  1.1110  1.0018  1.8501
  250MOL   H10045418   1.324   5.251   0.995 -0.2423  1.5608  2.0922
  250MOL   C10145419   1.255   5.728   1.205  0.4811  0.0023  0.1168
  250MOL   C10245420   1.115   5.779   1.242 -0.0874  0.2705 -0.3476
  250MOL   C10345421   1.354   5.846   1.187  0.0656  0.8887  0.1907
  250MOL   O10445422   1.406   5.867   1.081 -0.1610  0.4070 -0.1489
  250MOL   O10545423   1.379   5.918   1.294 -0.0243  0.4520  0.0340
  250MOL   H10645424   1.291   5.676   1.294  0.5476  1.8143  1.1679
  250MOL   H10745425   1.047   5.705   1.283 -1.3005  0.7785 -1.4440
  250MOL   H10845426   1.118   5.867   1.308  1.2472 -0.1274  0.1474
  250MOL   H10945427   1.070   5.811   1.149 -0.9584 -1.7355 -0.6397
  250MOL   C11045428   1.456   6.038   1.288 -0.1224 -0.3230 -0.5347
  250MOL   C11145429   1.531   6.068   1.422 -0.5907  0.1419 -0.0399
  250MOL   C11245430   1.358   6.152   1.241 -0.7105  0.3907 -0.4846
  250MOL   O11345431   1.237   6.136   1.245 -0.4639  0.1673 -0.2281
  250MOL   O11445432   1.422   6.259   1.189 -0.5846 -0.2868  0.0968
  250MOL   H11545433   1.532   6.040   1.211  0.2332  2.2284 -0.1606
  250MOL   H11645434   1.616   6.001   1.435  1.0952  1.8133 -2.1310
  250MOL   H11745435   1.569   6.169   1.432  0.6031 -0.1208 -1.8154
  250MOL   H11845436   1.452   6.051   1.496 -2.0099  0.8084 -1.3891
  250MOL   C11945437   1.359   6.382   1.183  0.6965 -0.8015  0.1839
  250MOL   C12045438   1.473   6.463   1.117  0.6840 -0.3497 -0.1600
  250MOL   C12145439   1.340   6.450   1.325 -0.4415  0.1666  0.1033
  250MOL   O12245440   1.417   6.412   1.410  0.3020 -0.5257 -0.5226
  250MOL   O12345441   1.247   6.549   1.336  0.7809  0.4740 -0.5757
  250MOL   H12445442   1.265   6.372   1.129  0.7681 -0.8876  0.0750
  250MOL   H12545443   1.440   6.554   1.067 -1.0739 -0.4518  0.7847
  250MOL   H12645444   1.555   6.486   1.184  0.7385 -0.6312 -0.1289
  250MOL   H12745445   1.524   6.411   1.035  0.2492  0.8446 -1.2132
  250MOL   C12845446   1.205   6.603   1.453  0.8778 -0.3059 -0.3518
  250MOL   C12945447   1.054   6.579   1.460 -0.5698 -0.4264 -0.4642
  250MOL   C13045448   1.239   6.752   1.477 -0.1078 -0.0794  0.3498
  250MOL   O13145449   1.167   6.831   1.545 -0.3268  0.2825 -0.6308
  250MOL   O13245450   1.349   6.784   1.412  0.1877 -0.1030 -0.0593
  250MOL   H13345451   1.262   6.554   1.531  0.7586 -1.1421 -0.7931
  250MOL   H13445452   1.024   6.478   1.431  0.7335 -0.3278 -2.2678
  250MOL   H13545453   1.024   6.597   1.563  1.5392  1.3001 -0.1271
  250MOL   H13645454   0.998   6.661   1.414  1.3688  2.0211  1.4325
  250MOL   C13745455   1.396   6.910   1.424  0.1754 -0.2092 -0.1458
  250MOL   C13845456   1.453   6.941   1.286  0.4992  0.4569  0.2613
  250MOL   C13945457   1.506   6.906   1.530 -0.2053  0.0589 -0.1019
  250MOL   O14045458   1.601   6.983   1.518 -0.4007 -0.3179 -0.5291
  250MOL   O14145459   1.476   6.825   1.642  0.0592 -0.8317  0.1246
  250MOL   H14245460   1.322   6.987   1.445  0.6638  0.0623  0.6217
  250MOL   H14345461   1.558   6.913   1.285  0.4058 -0.1208 -3.4979
  250MOL   H14445462   1.405   6.872   1.216  1.5311  1.2868 -1.3057
  250MOL   H14545463   1.429   7.044   1.261  1.5226  0.4318 -0.8913
  250MOL   C14645464   1.573   6.796   1.747 -0.5428  0.4425 -0.0986
  250MOL   C14745465   1.581   6.928   1.837  0.4362 -0.6797  0.0786
  250MOL   C14845466   1.708   6.752   1.696 -0.3304 -0.0168  0.3302
  250MOL   O14945467   1.812   6.788   1.753  0.0854  0.0128  0.2895
  250MOL   O15045468   1.704   6.654   1.606 -0.2722 -0.0585 -0.3702
  250MOL   H15145469   1.541   6.710   1.806  0.0749 -0.0084 -0.4201
  250MOL   H15245470   1.664   6.922   1.908  2.7399 -2.2813 -2.6030
  250MOL   H15345471   1.589   7.029   1.797 -0.5231 -0.4321  0.5035
  250MOL   H15445472   1.489   6.936   1.895  1.3939 -2.4767  1.9398
  250MOL   C15545473   1.824   6.591   1.554 -0.0288 -0.0498  0.0632
  250MOL   C15645474   1.832   6.601   1.404 -0.1553  0.8052 -0.0244
  250MOL   C15745475   1.835   6.449   1.607 -0.1170 -0.0345 -0.3927
  250MOL   O15845476   1.906   6.366   1.549  0.1172  0.1065 -0.2656
  250MOL   O15945477   1.765   6.428   1.719 -0.0807 -0.3114 -0.7689
  250MOL   H16045478   1.911   6.639   1.601  0.6154  0.7633 -1.8959
  250MOL   H16145479   1.807   6.705   1.382  1.2429  1.0468 -0.5354
  250MOL   H16245480   1.936   6.591   1.371  0.3777  0.3392  1.7800
  250MOL   H16345481   1.764   6.536   1.349 -2.2131  1.2306  1.9675
  250MOL   C16445482   1.774   6.308   1.802 -0.4516  0.1716 -0.2817
  250MOL   C16545483   1.662   6.199   1.777  0.4627 -0.2218  0.1802
  250MOL   C16645484   1.786   6.368   1.945  0.0179 -0.3996 -0.5587
  250MOL   O16745485   1.893   6.366   2.011 -0.4568 -0.9403  0.4088
  250MOL   O16845486   1.671   6.422   1.985  0.1250  0.4514 -0.0430
  250MOL   H16945487   1.872   6.268   1.777 -0.1232  0.5971  0.2942
  250MOL   H17045488   1.663   6.148   1.681 -0.5555 -0.6136  0.3725
  250MOL   H17145489   1.679   6.122   1.851  1.3870  0.2439  0.4570
  250MOL   H17245490   1.561   6.239   1.789  1.1193  1.4144  0.4532
  250MOL   C17345491   1.656   6.494   2.102  0.6144 -0.0548  0.2566
  250MOL   C17445492   1.512   6.478   2.161  0.2787  0.8497  0.2491
  250MOL   C17545493   1.676   6.644   2.081 -0.4833 -0.5302  0.1212
  250MOL   O17645494   1.585   6.732   2.091 -0.5192 -0.5738 -0.0512
  250MOL   O17745495   1.803   6.670   2.038  0.0237  0.2647  0.5836
  250MOL   H17845496   1.733   6.458   2.170  0.5366  1.1343  1.0027
  250MOL   H17945497   1.487   6.552   2.237 -0.1678  1.7813 -0.8008
  250MOL   H18045498   1.434   6.483   2.084  0.8002 -0.0095 -0.3448
  250MOL   H18145499   1.508   6.373   2.193  1.2994 -0.0104 -2.3188
  250MOL   H18245500   1.818   6.756   2.003  0.3867 -0.7374 -1.8173
  251MOL     C145501   8.061   5.020   3.741 -0.7104 -0.4074 -0.1291
  251MOL     C245502   0.051   4.995   3.807 -0.1893 -0.1401  0.6148
  251MOL     C345503   8.068   5.153   3.680  0.9197 -0.1208 -0.3887
  251MOL     O445504   8.061   5.253   3.749 -0.5175  0.2949  0.3113
  251MOL     O545505   8.079   5.156   3.547  0.6426  0.7431  0.2370
  251MOL     H645506   8.058   4.945   3.661 -2.1200  0.6755 -1.1185
  251MOL     H745507   0.065   5.056   3.896  1.2908  1.4965 -0.6937
  251MOL     H845508   0.063   4.888   3.822 -0.8253 -0.3663 -0.4028
  251MOL     H945509   0.135   5.032   3.748 -2.4359  3.3779 -0.5570
  251MOL    H1045510   7.975   5.020   3.807 -0.0092 -0.0797  0.7945
  251MOL    C1145511   8.091   5.280   3.475 -0.2568  0.3582 -0.2398
  251MOL    C1245512   8.033   5.272   3.329 -0.3249  0.4310  0.0556
  251MOL    C1345513   0.076   5.354   3.492 -1.0287  0.0973 -0.7050
  251MOL    O1445514   0.111   5.414   3.394  0.3744 -0.1386 -0.0076
  251MOL    O1545515   0.140   5.354   3.616  0.3391  0.5981 -0.3429
  251MOL    H1645516   8.033   5.357   3.528 -2.1272  0.6132 -2.5918
  251MOL    H1745517   7.925   5.255   3.339  0.0024 -1.4300  0.6132
  251MOL    H1845518   8.035   5.368   3.278 -0.8823  0.1753 -0.4545
  251MOL    H1945519   8.089   5.204   3.265  2.0035 -0.5115  2.9795
  251MOL    C2045520   0.259   5.424   3.638 -0.1609 -0.3672  0.2894
  251MOL    C2145521   0.302   5.378   3.778 -0.7078 -0.2470  0.4855
  251MOL    C2245522   0.235   5.574   3.626 -0.0168  0.6694  0.1527
  251MOL    O2345523   0.297   5.643   3.538  0.5277 -0.2007  0.0160
  251MOL    O2445524   0.149   5.613   3.711 -0.7135  0.1078 -0.1348
  251MOL    H2545525   0.331   5.397   3.561  0.2620 -1.6342  1.1298
  251MOL    H2645526   0.407   5.401   3.795 -1.0587 -0.1926  2.7762
  251MOL    H2745527   0.243   5.430   3.853 -2.4391  2.0231 -2.3194
  251MOL    H2845528   0.286   5.274   3.807 -1.4495  0.5889  3.2257
  251MOL    C2945529   0.106   5.745   3.721 -0.8948  0.1837  0.4722
  251MOL    C3045530   0.056   5.780   3.865 -0.1676  0.1287  0.0389
  251MOL    C3145531   0.002   5.776   3.616  0.1053 -0.3267  0.1376
  251MOL    O3245532   8.026   5.774   3.642  0.0968 -0.0518 -0.2893
  251MOL    O3345533   0.059   5.804   3.498 -0.6383  0.1592  0.1762
  251MOL    H3445534   0.189   5.814   3.706  0.4597 -1.4235  0.2837
  251MOL    H3545535   8.096   5.764   3.876 -0.0496  1.1422  3.6113
  251MOL    H3645536   0.094   5.720   3.948  0.4200 -1.2247 -1.1975
  251MOL    H3745537   0.074   5.887   3.880  1.0323  0.3916 -3.0114
  251MOL    C3845538   8.139   5.852   3.388 -0.1387  0.3415  0.1264
  251MOL    C3945539   8.130   5.745   3.284 -0.3955  0.8112  0.1654
  251MOL    C4045540   0.063   5.980   3.349 -0.8991  0.1477  0.4588
  251MOL    O4145541   0.127   5.999   3.245  0.3062  0.5155  0.1089
  251MOL    O4245542   0.045   6.071   3.443 -0.0955 -0.1696 -0.5407
  251MOL    H4345543   8.036   5.878   3.410  0.2379 -0.1591  2.6105
  251MOL    H4445544   8.048   5.750   3.212  0.9723  0.9549 -1.4075
  251MOL    H4545545   0.075   5.728   3.230 -0.3681  2.1566 -0.2164
  251MOL    H4645546   8.117   5.650   3.337 -2.7702  0.9025 -0.2213
  251MOL    C4745547   0.116   6.200   3.435  0.6404  0.3584  0.0529
  251MOL    C4845548   0.106   6.264   3.570  0.6036  0.9038  0.9049
  251MOL    C4945549   0.065   6.276   3.316 -0.2747 -0.7087 -0.3360
  251MOL    O5045550   0.143   6.317   3.232  0.1238 -0.3748 -0.1368
  251MOL    O5145551   8.073   6.269   3.308 -0.0886 -0.5321  0.9448
  251MOL    H5245552   0.220   6.170   3.419  0.4678 -2.5075  3.4746
  251MOL    H5345553   0.009   6.305   3.596 -0.8567 -1.3300 -0.8445
  251MOL    H5445554   0.147   6.191   3.639  0.8128  0.4535  0.3153
  251MOL    H5545555   0.175   6.348   3.577  0.0334  1.1798  3.6342
  251MOL    C5645556   7.997   6.322   3.202  0.4284  0.6877  0.4722
  251MOL    C5745557   7.963   6.467   3.219 -0.4520  0.3241  0.9664
  251MOL    C5845558   7.869   6.246   3.183  0.5134  0.0945 -0.1205
  251MOL    O5945559   7.763   6.296   3.197 -0.9109  0.4127  0.4577
  251MOL    O6045560   7.890   6.120   3.146 -0.4749 -0.2806  0.2727
  251MOL    H6145561   8.042   6.299   3.106 -0.3869 -1.4980  0.5964
  251MOL    H6245562   8.052   6.527   3.199  0.0141  0.3191  2.8704
  251MOL    H6345563   7.888   6.491   3.144 -0.9460 -0.5880  1.1759
  251MOL    H6445564   7.928   6.482   3.321  1.1063 -0.7091  1.6798
  251MOL    C6545565   7.780   6.041   3.105 -0.2287 -0.0347 -0.1732
  251MOL    C6645566   7.822   5.897   3.141  0.3450 -0.3384 -0.8220
  251MOL    C6745567   7.757   6.064   2.950  0.1425 -0.5384  0.3432
  251MOL    O6845568   7.650   6.090   2.908 -0.2152  0.1245  0.4298
  251MOL    O6945569   7.863   6.020   2.876  0.3053  0.2244  0.3903
  251MOL    H7045570   7.693   6.055   3.169  1.4475  1.8118  1.7667
  251MOL    H7145571   7.796   5.885   3.246 -0.8365 -0.2676 -1.1030
  251MOL    H7245572   7.751   5.834   3.088  2.2190  0.5644 -4.6045
  251MOL    H7345573   7.926   5.884   3.111  0.4738 -2.1065  0.3043
  251MOL    C7445574   7.857   6.024   2.731 -0.8843 -0.3220 -0.0817
  251MOL    C7545575   7.963   5.920   2.676  0.3022  0.0525 -0.0434
  251MOL    C7645576   7.886   6.166   2.694 -0.8237  0.6667  0.0799
  251MOL    O7745577   7.811   6.221   2.615  0.5630  0.1729  0.2721
  251MOL    O7845578   8.010   6.210   2.734  0.0128 -0.0825 -0.1218
  251MOL    H7945579   7.757   5.996   2.699 -0.9676 -0.4976  0.3219
  251MOL    H8045580   7.978   5.949   2.572 -0.3540  0.2292 -0.0905
  251MOL    H8145581   8.057   5.925   2.733  0.4690  1.2401 -0.3933
  251MOL    H8245582   7.908   5.826   2.673  0.5052 -0.0596 -0.3166
  251MOL    C8345583   8.051   6.345   2.711  0.2527 -0.2974  0.5009
  251MOL    C8445584   0.058   6.343   2.743  1.0335  0.0887 -0.1208
  251MOL    C8545585   7.975   6.444   2.803 -0.2270  0.3625  0.3457
  251MOL    O8645586   7.915   6.402   2.902  0.2125  0.3143 -0.1216
  251MOL    O8745587   7.973   6.567   2.749  0.2813  0.1172  0.5868
  251MOL    H8845588   8.035   6.372   2.607  0.9700  1.0619  0.7269
  251MOL    H8945589   0.105   6.435   2.709 -1.3434  1.0604 -0.8933
  251MOL    H9045590   0.074   6.359   2.849 -3.0473 -0.6538  0.7003
  251MOL    H9145591   0.117   6.256   2.715 -0.2176 -0.4071 -1.2843
  251MOL    C9245592   7.881   6.666   2.785 -0.2143  0.4022  0.1794
  251MOL    C9345593   7.931   6.729   2.919 -0.3780  0.6691  0.0683
  251MOL    C9445594   7.738   6.620   2.796  0.4257 -0.0910 -0.2532
  251MOL    O9545595   7.685   6.603   2.907  0.2486 -0.0467  0.1526
  251MOL    O9645596   7.691   6.586   2.674 -0.1044  0.2446  0.0811
  251MOL    H9745597   7.886   6.743   2.709 -2.7650 -0.9010 -1.3957
  251MOL    H9845598   8.035   6.762   2.919 -0.8076  2.0583 -0.7860
  251MOL    H9945599   7.875   6.822   2.928 -0.9027  0.4040 -0.4708
  251MOL   H10045600   7.915   6.669   3.009  2.6349 -0.5237 -0.1243
  251MOL   C10145601   7.551   6.560   2.663  0.0402 -0.2625 -0.4779
  251MOL   C10245602   7.528   6.407   2.667 -0.4730 -0.3136  0.1463
  251MOL   C10345603   7.511   6.623   2.532 -0.2269  0.1243 -0.3482
  251MOL   O10445604   7.482   6.558   2.430 -0.2857  0.2297 -0.3244
  251MOL   O10545605   7.497   6.758   2.538  0.1007  0.3053  0.2970
  251MOL   H10645606   7.491   6.614   2.738  0.9946  1.2401 -0.7724
  251MOL   H10745607   7.612   6.353   2.624 -1.2251  0.2009 -2.0046
  251MOL   H10845608   7.519   6.368   2.769  0.2876 -0.1736  0.2757
  251MOL   H10945609   7.447   6.361   2.612  1.1974  1.4831 -3.9832
  251MOL   C11045610   7.419   6.832   2.438 -0.0811 -0.4720 -0.4526
  251MOL   C11145611   7.478   6.970   2.429  0.4049 -0.4377  0.3751
  251MOL   C11245612   7.267   6.814   2.445 -0.3174 -0.1897 -0.0450
  251MOL   O11345613   7.218   6.767   2.547  0.3596 -0.2824 -0.4418
  251MOL   O11445614   7.192   6.858   2.343  0.6569 -0.0493 -0.1661
  251MOL   H11545615   7.440   6.788   2.340  1.4436  1.7885 -1.1978
  251MOL   H11645616   7.450   7.014   2.524 -0.0553  0.1141 -0.0087
  251MOL   H11745617   7.586   6.977   2.417  0.4063  0.2022  0.7481
  251MOL   H11845618   7.438   7.032   2.349 -1.7721 -0.6490  1.2638
  251MOL   C11945619   7.057   6.805   2.319 -0.2856 -0.6685 -0.5884
  251MOL   C12045620   7.067   6.727   2.187 -0.4423  0.4557  0.8626
  251MOL   C12145621   6.960   6.922   2.294 -0.0624  0.1263 -0.3437
  251MOL   O12245622   6.996   7.033   2.269  0.5746 -0.5232  0.4354
  251MOL   O12345623   6.834   6.873   2.302  0.6631  0.1802  0.6123
  251MOL   H12445624   7.025   6.759   2.412  0.6253 -2.2333 -1.0337
  251MOL   H12545625   6.965   6.701   2.158 -0.4239 -1.0027  2.0375
  251MOL   H12645626   7.120   6.765   2.100 -0.7250  0.6150  0.7585
  251MOL   H12745627   7.119   6.632   2.203  1.9391  1.5527 -0.1464
  251MOL   C12845628   6.722   6.957   2.265  0.7846  0.1742 -0.1600
  251MOL   C12945629   6.698   7.038   2.399  0.2959 -0.2801  0.5033
  251MOL   C13045630   6.599   6.871   2.236 -0.4050 -0.5628  1.1330
  251MOL   O13145631   6.546   6.864   2.119 -0.3082 -0.0121 -0.0885
  251MOL   O13245632   6.576   6.798   2.340  0.4748  0.0501 -0.2854
  251MOL   H13345633   6.744   7.028   2.185 -0.6896  0.9696  0.1025
  251MOL   H13445634   6.695   6.971   2.484 -2.0668 -1.5414 -0.5321
  251MOL   H13545635   6.756   7.127   2.424  2.4350 -1.4917 -0.0089
  251MOL   H13645636   6.598   7.080   2.406  0.3909 -0.0295  0.3740
  251MOL   C13745637   6.473   6.701   2.336 -0.7428 -0.2179  0.2414
  251MOL   C13845638   6.414   6.674   2.472  0.0097  0.1008 -0.4286
  251MOL   C13945639   6.533   6.575   2.272 -1.0213 -0.2224 -0.0391
  251MOL   O14045640   6.539   6.470   2.338  0.3699  0.9066 -1.1978
  251MOL   O14145641   6.565   6.588   2.143  0.2319  0.1737 -0.5029
  251MOL   H14245642   6.397   6.724   2.262 -0.2925 -1.5208 -0.6352
  251MOL   H14345643   6.480   6.635   2.549  0.5482 -0.5328 -1.2041
  251MOL   H14445644   6.361   6.759   2.515  0.4552  0.6684 -1.0018
  251MOL   H14545645   6.336   6.600   2.453 -0.5793  1.6115 -4.3690
  251MOL   C14645646   6.610   6.482   2.062 -0.0295 -0.5478 -0.0877
  251MOL   C14745647   6.667   6.561   1.942  0.0518  0.2138  0.2520
  251MOL   C14845648   6.490   6.397   2.012  1.1646  0.7324  0.1474
  251MOL   O14945649   6.494   6.276   1.988  0.7373 -0.3952 -0.2354
  251MOL   O15045650   6.375   6.471   2.003  0.7235 -0.3004  0.1538
  251MOL   H15145651   6.679   6.416   2.116 -0.3032 -0.1054  0.8094
  251MOL   H15245652   6.712   6.493   1.870 -0.4688 -1.1726  1.2324
  251MOL   H15345653   6.590   6.619   1.891  1.6088 -0.2253 -2.6848
  251MOL   H15445654   6.745   6.623   1.987  0.1224 -0.5744  1.2248
  251MOL   C15545655   6.248   6.412   1.956 -0.5021 -0.0709 -0.6863
  251MOL   C15645656   6.150   6.535   1.927  0.4509  0.3453 -0.6882
  251MOL   C15745657   6.196   6.302   2.046  0.1682 -0.2928 -0.2616
  251MOL   O15845658   6.129   6.206   2.013 -0.5953  0.0536  0.1653
  251MOL   O15945659   6.230   6.326   2.176  0.1466  0.6260 -0.0528
  251MOL   H16045660   6.250   6.364   1.858 -2.0657  0.0731 -0.8121
  251MOL   H16145661   6.205   6.610   1.870  1.8297 -0.4375 -0.4072
  251MOL   H16245662   6.075   6.488   1.863  1.0097 -1.5176 -0.0043
  251MOL   H16345663   6.105   6.572   2.019 -0.6485 -4.0050  0.6164
  251MOL   C16445664   6.194   6.236   2.274 -0.2586  1.0913 -0.0651
  251MOL   C16545665   6.193   6.316   2.400  0.3943  0.1024  1.1013
  251MOL   C16645666   6.299   6.116   2.281 -0.2501  0.9842 -0.2952
  251MOL   O16745667   6.378   6.104   2.370  0.5329  0.3783 -0.4495
  251MOL   O16845668   6.283   6.035   2.182 -0.3119 -0.3952  0.1739
  251MOL   H16945669   6.093   6.200   2.256 -0.0007 -0.5368  1.6497
  251MOL   H17045670   6.111   6.385   2.416 -0.3601 -0.5316 -0.0333
  251MOL   H17145671   6.191   6.250   2.487 -3.3003 -1.0038  0.2432
  251MOL   H17245672   6.291   6.364   2.407  0.2877  0.4699  0.0703
  251MOL   C17345673   6.388   5.953   2.126 -0.6747 -0.1518  0.0100
  251MOL   C17445674   6.373   5.947   1.973 -1.0107 -0.1700 -0.6074
  251MOL   C17545675   6.382   5.818   2.187  0.0039  1.1444 -0.3819
  251MOL   O17645676   6.360   5.711   2.131 -0.2838 -0.2907  0.1021
  251MOL   O17745677   6.400   5.823   2.322  0.3110  0.6223 -0.5190
  251MOL   H17845678   6.486   5.992   2.152 -0.9898  0.5859  0.0998
  251MOL   H17945679   6.441   5.891   1.908 -0.4806 -0.2720  0.0255
  251MOL   H18045680   6.273   5.909   1.955 -0.7182 -2.3478  1.9881
  251MOL   H18145681   6.370   6.047   1.929 -2.4233 -0.8624 -2.1294
  251MOL   H18245682   6.394   5.737   2.360 -0.1508  0.5226 -0.8153
  252MOL     C145683   3.238   3.066   4.726  0.0945 -0.8414  0.0199
  252MOL     C245684   3.279   3.216   4.698  0.1488 -0.9101  0.6597
  252MOL     C345685   3.298   3.018   4.854 -0.3850 -0.5820  0.2398
  252MOL     O445686   3.395   2.946   4.843  0.5143  0.3694 -0.4505
  252MOL     O545687   3.242   3.049   4.974  0.1069 -0.8189  0.2392
  252MOL     H645688   3.130   3.052   4.721  0.0513 -0.6001  0.2201
  252MOL     H745689   3.235   3.255   4.606  0.7968  0.6347  0.9892
  252MOL     H845690   3.250   3.280   4.782  0.0928  0.5075 -0.4234
  252MOL     H945691   3.387   3.232   4.696  0.0478 -0.1849  0.8264
  252MOL    H1045692   3.248   3.004   4.637 -2.8765 -1.8170  0.3123
  252MOL    C1145693   3.306   3.011   5.097 -0.0594 -0.6349  1.0239
  252MOL    C1245694   3.201   3.010   5.209  0.6354 -0.8535  0.2853
  252MOL    C1345695   3.422   3.096   5.125  0.1339  0.6030 -0.5849
  252MOL    O1445696   3.419   3.210   5.091  0.2549  0.0397  0.2618
  252MOL    O1545697   3.503   3.047   5.210  0.4453  0.3964 -0.0539
  252MOL    H1645698   3.331   2.905   5.089  1.0270 -0.4809  2.2033
  252MOL    H1745699   3.144   3.103   5.204  3.0995  0.6635 -0.9336
  252MOL    H1845700   3.131   2.928   5.193  0.7016 -0.7361 -0.6566
  252MOL    H1945701   3.245   2.989   5.307  3.3916 -0.7924 -0.8959
  252MOL    C2045702   3.602   3.124   5.282 -0.8170 -0.0102  0.7578
  252MOL    C2145703   3.709   3.034   5.343 -0.2662  0.6449  0.2905
  252MOL    C2245704   3.530   3.211   5.388 -0.3081 -0.0716  0.2595
  252MOL    O2345705   3.410   3.192   5.429  0.0416 -0.1393  0.3187
  252MOL    O2445706   3.620   3.308   5.437 -0.2840 -0.3006 -0.2241
  252MOL    H2545707   3.645   3.182   5.199 -2.7388  0.5668  0.1464
  252MOL    H2645708   3.757   2.984   5.259  2.2916 -0.2422  2.2218
  252MOL    H2745709   3.786   3.091   5.394  1.2575 -0.0701 -1.1745
  252MOL    H2845710   3.657   2.970   5.414 -1.4740  0.1904 -0.9698
  252MOL    C2945711   3.582   3.379   5.556 -0.1262 -0.1067  0.2720
  252MOL    C3045712   3.683   3.494   5.602 -0.0981 -0.0807  0.5345
  252MOL    C3145713   3.563   3.278   5.672  0.5617 -0.1252 -0.2329
  252MOL    O3245714   3.634   3.180   5.698 -0.0346  0.4809 -0.1718
  252MOL    O3345715   3.451   3.314   5.745 -0.1587 -0.2744  0.3484
  252MOL    H3445716   3.484   3.423   5.534 -0.4610 -0.6264  0.7136
  252MOL    H3545717   3.711   3.504   5.707 -0.9129 -0.7958  0.8229
  252MOL    H3645718   3.779   3.489   5.550  0.5272  0.8384  1.5754
  252MOL    H3745719   3.633   3.588   5.577 -2.2378 -1.3744 -0.0960
  252MOL    C3845720   3.422   3.237   5.860 -0.3873  0.4106 -0.6339
  252MOL    C3945721   3.297   3.301   5.922  0.5336  0.4642  0.2685
  252MOL    C4045722   3.529   3.238   5.973 -0.2228  0.5981  0.4300
  252MOL    O4145723   3.561   3.134   6.025 -0.0946 -0.0272  0.2443
  252MOL    O4245724   3.591   3.368   6.002 -0.3017  0.4552  0.0075
  252MOL    H4345725   3.409   3.133   5.831 -2.2735  0.3823  0.2196
  252MOL    H4445726   3.257   3.251   6.010 -0.0565 -0.6051 -0.5907
  252MOL    H4545727   3.311   3.408   5.934 -0.5499  0.7896 -1.2222
  252MOL    H4645728   3.213   3.296   5.853 -0.5111 -0.5556  1.5897
  252MOL    C4745729   3.713   3.383   6.087  0.7270 -0.1513  0.7251
  252MOL    C4845730   3.777   3.517   6.068  0.0841  0.5326 -0.3338
  252MOL    C4945731   3.819   3.273   6.059  0.1178  0.0082  0.3669
  252MOL    O5045732   3.857   3.194   6.149 -0.1048 -0.7576  0.3513
  252MOL    O5145733   3.865   3.274   5.933  0.0494  0.2109  0.0115
  252MOL    H5245734   3.677   3.368   6.189  0.0330  0.1087  0.5205
  252MOL    H5345735   3.815   3.523   5.966  0.6191 -0.4656 -0.2008
  252MOL    H5445736   3.706   3.599   6.072  0.1625  0.6779 -1.7449
  252MOL    H5545737   3.866   3.521   6.131  1.8918  0.3886 -2.8149
  252MOL    C5645738   3.966   3.177   5.884 -0.3851 -0.3293 -0.8968
  252MOL    C5745739   4.010   3.225   5.747 -0.3558  0.2165  0.2457
  252MOL    C5845740   3.933   3.027   5.890  1.0399 -0.6388 -0.4686
  252MOL    O5945741   4.002   2.954   5.963 -0.0918 -0.1246 -0.2258
  252MOL    O6045742   3.832   2.991   5.817  0.1427 -0.4982 -0.8671
  252MOL    H6145743   4.046   3.198   5.955  0.0215  0.4529 -1.5715
  252MOL    H6245744   4.012   3.334   5.745  1.8919  0.2682  2.3776
  252MOL    H6345745   4.111   3.189   5.727 -1.1520 -1.1210 -1.6047
  252MOL    H6445746   3.936   3.201   5.670  0.1737  0.8667 -0.4833
  252MOL    C6545747   3.773   2.867   5.814  0.5951  0.3835 -0.4291
  252MOL    C6645748   3.730   2.845   5.672  0.2963 -0.2629 -0.5508
  252MOL    C6745749   3.652   2.849   5.915 -0.3371  0.1416 -0.7035
  252MOL    O6845750   3.530   2.862   5.887 -0.0012 -0.2345 -0.6440
  252MOL    O6945751   3.700   2.830   6.036 -0.2834  0.7934  0.2706
  252MOL    H7045752   3.854   2.795   5.829  0.4091  0.5039  1.2241
  252MOL    H7145753   3.702   2.741   5.653 -0.9351  0.1451 -1.0365
  252MOL    H7245754   3.645   2.911   5.657 -0.0762 -0.9171 -1.3966
  252MOL    H7345755   3.811   2.864   5.601  1.7571  0.5832  1.2915
  252MOL    C7445756   3.620   2.823   6.149  0.6169  0.3357 -0.2001
  252MOL    C7545757   3.711   2.886   6.254  0.6853  0.2379 -0.3382
  252MOL    C7645758   3.578   2.681   6.182  0.3888 -0.4857  0.2573
  252MOL    O7745759   3.456   2.648   6.195  0.2683 -0.1599 -0.2098
  252MOL    O7845760   3.684   2.596   6.193 -0.2762  0.0734 -0.6678
  252MOL    H7945761   3.535   2.891   6.143  0.5316  0.4571  1.8617
  252MOL    H8045762   3.694   2.989   6.284  0.1787  0.5450 -1.6222
  252MOL    H8145763   3.712   2.821   6.342  4.3359  0.3556 -0.2278
  252MOL    H8245764   3.817   2.888   6.230  0.4520  0.2517 -1.4116
  252MOL    C8345765   3.660   2.470   6.256 -0.5444  0.2854  0.3543
  252MOL    C8445766   3.708   2.476   6.402 -0.1591  0.5550  0.1354
  252MOL    C8545767   3.733   2.355   6.179  0.1151 -0.5173 -0.6677
  252MOL    O8645768   3.803   2.384   6.083 -0.0628  0.1486  0.1977
  252MOL    O8745769   3.705   2.225   6.222 -0.5972  0.1571  0.1015
  252MOL    H8845770   3.555   2.445   6.245 -0.5940  0.8962 -0.6005
  252MOL    H8945771   3.632   2.519   6.467  0.5245  1.0808  0.6014
  252MOL    H9045772   3.720   2.376   6.443 -1.5929 -0.0687 -0.9307
  252MOL    H9145773   3.796   2.539   6.415 -0.1172  0.7214 -0.8717
  252MOL    C9245774   3.776   2.115   6.173 -0.2302 -0.0556  0.5596
  252MOL    C9345775   3.695   1.985   6.191 -0.1073  0.2572 -0.0143
  252MOL    C9445776   3.913   2.105   6.249  0.5383  0.2622  0.5317
  252MOL    O9545777   4.000   2.036   6.210  0.4128 -0.5247 -0.0646
  252MOL    O9645778   3.908   2.160   6.371 -0.4418 -0.1899 -0.2758
  252MOL    H9745779   3.802   2.125   6.068  3.2551  0.5694  1.4112
  252MOL    H9845780   3.646   1.976   6.288  1.2632 -0.9105  0.5908
  252MOL    H9945781   3.611   1.993   6.122  0.8158 -2.1817 -1.4854
  252MOL   H10045782   3.752   1.894   6.171 -1.4391 -0.4307 -0.7558
  252MOL   C10145783   4.027   2.185   6.446  0.8009 -0.2355 -0.4928
  252MOL   C10245784   3.985   2.233   6.590 -0.2706  0.3189  0.1206
  252MOL   C10345785   4.119   2.289   6.383 -0.7481  0.0768 -0.5174
  252MOL   O10445786   4.240   2.261   6.394  0.0712  0.5985  0.5954
  252MOL   O10545787   4.071   2.402   6.350  0.6030 -0.4093 -0.2673
  252MOL   H10645788   4.093   2.098   6.448 -0.7182 -1.4053  2.2911
  252MOL   H10745789   4.068   2.270   6.651 -0.1778 -1.0229  0.8207
  252MOL   H10845790   3.909   2.310   6.575 -1.4335 -0.7369  0.5807
  252MOL   H10945791   3.929   2.153   6.637 -0.5257 -0.6011 -1.7185
  252MOL   C11045792   4.149   2.501   6.280 -0.4038 -0.8096  0.1030
  252MOL   C11145793   4.068   2.621   6.276 -0.2478  0.3721  0.2288
  252MOL   C11245794   4.194   2.455   6.136 -0.5306 -0.0630  0.1529
  252MOL   O11345795   4.141   2.354   6.085 -0.3684 -0.0297  0.2578
  252MOL   O11445796   4.292   2.525   6.082  0.4826  0.2781 -0.1095
  252MOL   H11545797   4.229   2.531   6.348  0.8806  2.5950 -2.7860
  252MOL   H11645798   3.975   2.608   6.221 -0.5222  2.2650  0.2201
  252MOL   H11745799   4.041   2.656   6.376 -0.8824 -1.1924  0.6381
  252MOL   H11845800   4.125   2.697   6.224 -0.3709  0.6882  0.5558
  252MOL   C11945801   4.335   2.492   5.948  0.6701  0.2462 -0.2630
  252MOL   C12045802   4.485   2.540   5.934 -0.8521 -0.1233  1.1082
  252MOL   C12145803   4.253   2.562   5.834 -0.0376  0.0953  0.4746
  252MOL   O12245804   4.281   2.669   5.787 -0.6382  0.1329 -0.5654
  252MOL   O12345805   4.137   2.506   5.809  0.1395  0.3944 -0.2062
  252MOL   H12445806   4.333   2.384   5.936 -1.6053  0.2770 -0.2459
  252MOL   H12545807   4.531   2.525   5.836 -0.1877 -0.7602  1.5044
  252MOL   H12645808   4.496   2.647   5.954 -2.0071  0.5473 -1.6796
  252MOL   H12745809   4.538   2.474   6.004 -2.1618 -1.5671  0.7617
  252MOL   C12845810   4.043   2.567   5.720 -0.8233  0.4725  0.6901
  252MOL   C12945811   3.917   2.490   5.768 -0.1964 -0.4486  0.1537
  252MOL   C13045812   4.076   2.540   5.570  0.1827  0.1380  0.1473
  252MOL   O13145813   4.181   2.487   5.536 -0.2300 -0.0509 -0.2693
  252MOL   O13245814   3.985   2.589   5.488  0.4233 -0.0248  0.3131
  252MOL   H13345815   4.036   2.673   5.744 -0.7157  0.3140  1.4402
  252MOL   H13445816   3.829   2.513   5.708  0.1347 -1.7056 -0.8356
  252MOL   H13545817   3.913   2.384   5.743  1.2689 -0.9731  2.0423
  252MOL   H13645818   3.879   2.503   5.869 -0.7622  1.9310 -0.3401
  252MOL   C13745819   4.008   2.590   5.347  0.5430  0.2099  0.0414
  252MOL   C13845820   3.898   2.685   5.291  0.3629  0.9940 -0.3303
  252MOL   C13945821   4.009   2.454   5.280 -0.2949 -0.4714  0.0880
  252MOL   O14045822   3.942   2.358   5.328 -0.4422  0.3548  0.9721
  252MOL   O14145823   4.091   2.442   5.173  0.5491  0.6735  0.4648
  252MOL   H14245824   4.101   2.646   5.332  1.1893 -0.8021  0.1582
  252MOL   H14345825   3.939   2.712   5.194  0.7458  2.1755  0.1514
  252MOL   H14445826   3.800   2.639   5.280  0.8529  0.5056 -3.1155
  252MOL   H14545827   3.883   2.774   5.352  0.3343  1.6275 -1.2496
  252MOL   C14645828   4.091   2.321   5.089  0.5545 -0.2565 -0.2065
  252MOL   C14745829   4.217   2.327   5.001  0.3221 -0.3641 -0.5055
  252MOL   C14845830   3.958   2.315   5.009  0.0062  0.8971 -0.2959
  252MOL   O14945831   3.881   2.411   5.006 -0.1993  1.0207 -0.7639
  252MOL   O15045832   3.936   2.204   4.937 -1.0248  0.1512  0.1122
  252MOL   H15145833   4.087   2.240   5.163 -1.7569  0.5854  0.6177
  252MOL   H15245834   4.301   2.319   5.069 -0.0686  0.7223  0.1132
  252MOL   H15345835   4.230   2.248   4.927  2.7650  0.2286 -0.7295
  252MOL   H15445836   4.214   2.423   4.949 -1.2228 -1.0643 -1.7553
  252MOL   C15545837   3.828   2.193   4.841 -0.4292  0.0493  0.3414
  252MOL   C15645838   3.822   2.052   4.796  0.1658  0.0008  0.1833
  252MOL   C15745839   3.844   2.278   4.711 -0.2899 -0.0185 -0.1072
  252MOL   O15845840   3.751   2.304   4.641 -0.8789 -0.2149  0.2028
  252MOL   O15945841   3.967   2.329   4.691  0.6959  0.1305 -0.7455
  252MOL   H16045842   3.732   2.228   4.877 -0.5904 -1.0828  1.0519
  252MOL   H16145843   3.785   1.994   4.881 -1.1061  2.1245  1.1238
  252MOL   H16245844   3.753   2.035   4.713  1.5698 -1.6439 -0.6772
  252MOL   H16345845   3.918   2.005   4.775 -0.3738 -0.8294 -0.4459
  252MOL   C16445846   3.997   2.425   4.583  0.0152  0.5124 -0.1982
  252MOL   C16545847   4.150   2.430   4.580  0.0278 -0.4565 -0.0492
  252MOL   C16645848   3.924   2.555   4.622  0.8986  0.3719  0.5636
  252MOL   O16745849   3.868   2.626   4.536 -0.1984  0.2008  0.0787
  252MOL   O16845850   3.939   2.595   4.749  0.5172  0.2429 -0.5498
  252MOL   H16945851   3.969   2.395   4.482 -1.3839  1.3183 -0.0617
  252MOL   H17045852   4.187   2.519   4.528  0.3377 -0.1692  0.6494
  252MOL   H17145853   4.189   2.437   4.682  1.0882 -1.7480 -0.3569
  252MOL   H17245854   4.193   2.346   4.526  0.9263  0.6891 -1.1443
  252MOL   C17345855   3.857   2.706   4.795 -0.1268  0.2872  0.0576
  252MOL   C17445856   3.929   2.755   4.921  0.7250  0.5229 -0.1516
  252MOL   C17545857   3.707   2.665   4.835  0.0886  0.2990  0.4522
  252MOL   O17645858   3.600   2.715   4.804 -0.3268 -0.3009 -0.0338
  252MOL   O17745859   3.701   2.554   4.920  0.2592  1.1020  0.2117
  252MOL   H17845860   3.860   2.788   4.723 -0.5490  2.6261  2.6191
  252MOL   H17945861   3.848   2.806   4.972  0.0739 -2.5313  2.0044
  252MOL   H18045862   3.972   2.679   4.986 -0.4412 -0.6327 -0.7180
  252MOL   H18145863   4.001   2.832   4.893  0.4559  0.8432  0.0313
  252MOL   H18245864   3.773   2.500   4.950  0.0225  0.0714 -1.0454
  253MOL     C145865   1.279   8.070   3.853 -0.3299  0.2656  0.0492
  253MOL     C245866   1.132   8.081   3.835  0.7058  0.6393 -0.6122
  253MOL     C345867   1.358   8.009   3.739 -0.3207  0.8002  0.4098
  253MOL     O445868   1.401   8.081   3.647  0.0424  0.1434  0.2330
  253MOL     O545869   1.364   7.876   3.738 -0.1349  0.4845 -0.3358
  253MOL     H645870   1.325   0.017   3.882 -0.4708 -0.1093  1.5430
  253MOL     H745871   1.094   8.087   3.937 -0.7831 -1.8931 -0.9723
  253MOL     H845872   1.093   0.014   3.772 -1.6045  0.7235  0.8609
  253MOL     H945873   1.090   7.988   3.796  3.5364 -1.6321  1.5837
  253MOL    H1045874   1.297   8.008   3.940 -0.1307 -0.7885 -0.7351
  253MOL    C1145875   1.396   7.801   3.615 -0.5356 -0.1485  0.5199
  253MOL    C1245876   1.349   7.656   3.637 -0.3522 -0.2194  0.0304
  253MOL    C1345877   1.543   7.805   3.591  0.1134  0.8745 -0.4894
  253MOL    O1445878   1.624   7.830   3.677 -0.3233 -0.1952  0.3002
  253MOL    O1545879   1.570   7.773   3.459  0.6441 -0.0258  0.5911
  253MOL    H1645880   1.345   7.836   3.526  2.2989 -1.7021 -1.8115
  253MOL    H1745881   1.251   7.648   3.684  0.0267 -1.2551  0.6782
  253MOL    H1845882   1.346   7.593   3.548  2.3212  0.9755 -0.9692
  253MOL    H1945883   1.416   7.621   3.715  0.7806  1.1574 -0.3016
  253MOL    C2045884   1.701   7.772   3.407 -0.3300  0.0653 -0.3814
  253MOL    C2145885   1.778   7.657   3.464 -0.2035  0.0095 -0.4380
  253MOL    C2245886   1.772   7.911   3.420  0.2779  0.1908 -0.1344
  253MOL    O2345887   1.883   7.932   3.477 -0.0745  0.1764  0.4382
  253MOL    O2445888   1.700   8.006   3.361 -0.0560 -0.4170  0.2698
  253MOL    H2545889   1.692   7.752   3.300  0.9520 -1.8425 -0.1603
  253MOL    H2645890   1.803   7.687   3.565 -0.2135 -2.4080  0.3053
  253MOL    H2745891   1.724   7.562   3.466  1.2467 -0.8463 -1.0661
  253MOL    H2845892   1.870   7.660   3.406  1.9229  1.7902  2.8681
  253MOL    C2945893   1.737   8.145   3.369 -0.0693  0.6423 -0.1272
  253MOL    C3045894   1.618   0.085   3.345  0.0855  0.6048  0.1609
  253MOL    C3145895   1.851   0.030   3.277 -1.4587  0.3479 -0.5225
  253MOL    O3245896   1.834   0.042   3.153  0.6186 -0.2376 -0.2183
  253MOL    O3345897   1.965   0.041   3.349 -0.0652 -0.3391 -0.0396
  253MOL    H3445898   1.766   0.015   3.473 -1.0911 -2.2685  0.6984
  253MOL    H3545899   1.556   0.088   3.255  2.6698 -0.2401 -1.6946
  253MOL    H3645900   1.557   0.051   3.429  1.1903 -2.0445 -0.0749
  253MOL    H3745901   1.648   0.184   3.378  2.2440 -0.4356  1.4097
  253MOL    C3845902   2.086   0.058   3.273 -0.5916 -0.6134 -0.6993
  253MOL    C3945903   2.205   0.009   3.348 -0.0950  0.3837 -0.5637
  253MOL    C4045904   2.099   0.205   3.243 -0.1800  0.1322  0.0082
  253MOL    O4145905   2.103   0.241   3.120  0.5231  0.0253  0.1454
  253MOL    O4245906   2.091   0.284   3.345  0.0195  0.2849  0.0524
  253MOL    H4345907   2.086   8.143   3.184 -0.9851 -2.0467  0.3003
  253MOL    H4445908   2.296   0.008   3.287  1.2496  0.6931  1.4109
  253MOL    H4545909   2.227   0.067   3.438 -2.1724 -0.1901  0.3298
  253MOL    H4645910   2.181   8.056   3.381  0.3924  0.0841 -1.1070
  253MOL    C4745911   2.085   0.428   3.329 -0.1516  0.1049  0.7986
  253MOL    C4845912   2.180   0.487   3.434  0.2621 -0.1752  0.4344
  253MOL    C4945913   1.933   0.455   3.352 -0.9654 -0.1255  0.1448
  253MOL    O5045914   1.842   0.414   3.278 -0.2276  0.0737  0.4211
  253MOL    O5145915   1.915   0.509   3.479  0.1990 -0.2487  0.4984
  253MOL    H5245916   2.109   0.460   3.227  1.0166  2.3305  1.7335
  253MOL    H5345917   2.149   0.571   3.496 -2.7872  0.0673 -1.3168
  253MOL    H5445918   2.212   0.410   3.505  3.2040 -0.6514 -1.3287
  253MOL    H5545919   2.274   0.524   3.393 -0.3183  0.2249 -0.5495
  253MOL    C5645920   1.780   0.519   3.530 -0.5802 -0.7129  0.2017
  253MOL    C5745921   1.787   0.629   3.647 -0.9643  0.5487 -0.3853
  253MOL    C5845922   1.739   0.381   3.582 -0.9663  0.2188 -0.2843
  253MOL    O5945923   1.809   0.278   3.568 -0.2302  0.2629  0.0622
  253MOL    O6045924   1.612   0.381   3.631 -0.2027  0.2922  0.4654
  253MOL    H6145925   1.721   0.562   3.449  0.6138  1.1761  0.3044
  253MOL    H6245926   1.813   0.592   3.747  0.9510 -1.7416 -1.6573
  253MOL    H6345927   1.860   0.706   3.622 -0.6145  1.0503  2.0381
  253MOL    H6445928   1.693   0.677   3.673 -0.1576  1.1201  1.5994
  253MOL    C6545929   1.558   0.266   3.689  0.7687  0.6637 -0.3814
  253MOL    C6645930   1.403   0.294   3.677 -0.2178 -0.2561  0.3543
  253MOL    C6745931   1.614   0.240   3.834 -0.3288  0.5205  0.3761
  253MOL    O6845932   1.678   0.322   3.891  0.3914  0.6721 -0.1633
  253MOL    O6945933   1.604   0.111   3.872 -0.2214 -0.1926  0.0178
  253MOL    H7045934   1.580   0.185   3.620  0.9977  0.7822 -0.4474
  253MOL    H7145935   1.355   0.354   3.754 -1.7826  1.4748 -1.9278
  253MOL    H7245936   1.364   0.347   3.591  0.9456  0.0368 -0.0038
  253MOL    H7345937   1.353   0.197   3.682  3.1946 -2.1700 -0.6396
  253MOL    C7445938   1.628   0.079   4.010 -0.0407 -0.1682  1.0691
  253MOL    C7545939   1.617   8.077   4.024  0.6158  0.6045 -0.5166
  253MOL    C7645940   1.531   0.140   4.108  0.2419 -0.4845  0.7699
  253MOL    O7745941   1.567   0.153   4.223  0.1031 -0.0500  0.5716
  253MOL    O7845942   1.408   0.173   4.055  0.3464  0.1209 -0.1932
  253MOL    H7945943   1.731   0.101   4.040  0.0110 -0.5155  1.1484
  253MOL    H8045944   1.664   8.039   4.114 -0.0504 -0.2620 -0.5324
  253MOL    H8145945   1.517   8.036   4.039  0.2412  1.9017  0.7146
  253MOL    H8245946   1.671   8.028   3.943  2.1756 -0.7182  1.2898
  253MOL    C8345947   1.311   0.258   4.128 -0.0540 -0.1464 -0.1030
  253MOL    C8445948   1.177   0.250   4.060  0.0166 -0.2439 -0.0209
  253MOL    C8545949   1.358   0.395   4.146  0.3626 -0.0310  0.0268
  253MOL    O8645950   1.344   0.457   4.252  0.0852 -0.5010  0.7301
  253MOL    O8745951   1.418   0.443   4.037 -0.0124  0.1438  0.1010
  253MOL    H8845952   1.302   0.212   4.227 -0.1295  0.3088  0.1039
  253MOL    H8945953   1.123   0.335   4.103  0.5282 -0.5128  1.1782
  253MOL    H9045954   1.201   0.255   3.954  2.3092 -1.8416  0.3786
  253MOL    H9145955   1.122   0.158   4.074  0.4977 -0.6614 -0.8476
  253MOL    C9245956   1.445   0.580   4.021  0.5154 -0.3139  0.0144
  253MOL    C9345957   1.479   0.619   3.871 -0.0075  0.5954  0.3668
  253MOL    C9445958   1.573   0.607   4.108  0.3821  0.0569 -0.1047
  253MOL    O9545959   1.575   0.704   4.186  0.3583  0.4963 -0.2824
  253MOL    O9645960   1.680   0.525   4.086  0.2906 -0.5335 -0.0191
  253MOL    H9745961   1.368   0.649   4.057  0.6883  1.1955 -2.3398
  253MOL    H9845962   1.392   0.616   3.805 -0.6613 -2.5066  1.2777
  253MOL    H9945963   1.534   0.712   3.860  1.1617 -0.2411 -0.9944
  253MOL   H10045964   1.544   0.538   3.836  1.4104  1.4147  1.0560
  253MOL   C10145965   1.809   0.537   4.148  0.5786 -0.2127 -0.2037
  253MOL   C10245966   1.912   0.475   4.046  1.0840  0.1951 -0.1562
  253MOL   C10345967   1.809   0.471   4.284  0.3374 -0.0394  0.6662
  253MOL   O10445968   1.733   0.391   4.321  0.1812  0.1627  0.1431
  253MOL   O10545969   1.916   0.507   4.354 -0.4244 -0.8560  0.3831
  253MOL   H10645970   1.825   0.645   4.159 -0.7835  0.0582 -0.7329
  253MOL   H10745971   1.893   0.368   4.044 -0.0311  0.3871  0.0132
  253MOL   H10845972   1.899   0.513   3.945  1.5696  0.3203 -0.1756
  253MOL   H10945973   2.019   0.486   4.065  0.6881  4.3957  0.2424
  253MOL   C11045974   1.948   0.438   4.471 -0.2059 -1.0408  0.0007
  253MOL   C11145975   2.059   0.510   4.538  0.5004 -0.1523  0.1620
  253MOL   C11245976   1.987   0.297   4.438 -0.0251  0.0756 -0.4932
  253MOL   O11345977   2.047   0.266   4.337 -0.2514  0.3372  0.6236
  253MOL   O11445978   1.967   0.211   4.541  0.7795 -0.0299 -0.5233
  253MOL   H11545979   1.860   0.439   4.535 -0.0524  0.7433  0.2143
  253MOL   H11645980   2.153   0.494   4.485  0.3256  2.0922 -0.8820
  253MOL   H11745981   2.039   0.617   4.546 -1.5786 -0.7120  3.8371
  253MOL   H11845982   2.086   0.475   4.638  3.2473  0.7986 -0.2076
  253MOL   C11945983   2.038   0.093   4.546 -0.2839 -0.0941 -0.1262
  253MOL   C12045984   1.934   8.133   4.565  0.1066  0.2275  0.1230
  253MOL   C12145985   2.123   0.113   4.671 -0.0667 -0.0568 -0.0855
  253MOL   O12245986   2.072   0.134   4.781  0.4312 -0.8190 -0.2905
  253MOL   O12345987   2.253   0.083   4.648  0.2707  0.4268  0.2397
  253MOL   H12445988   2.103   0.073   4.461  1.2428 -1.3749  1.3047
  253MOL   H12545989   1.976   8.044   4.615 -2.4670 -1.4776 -0.6622
  253MOL   H12645990   1.844   0.016   4.617 -1.4433  1.0786 -2.9947
  253MOL   H12745991   1.912   8.083   4.471  0.7870 -2.8141  1.5144
  253MOL   C12845992   2.352   0.049   4.745  0.0263  0.2672 -0.6647
  253MOL   C12945993   2.474   0.016   4.673  0.9583  0.7890 -0.9792
  253MOL   C13045994   2.301   8.076   4.822 -0.5882 -0.4747  0.2814
  253MOL   O13145995   2.306   8.070   4.947 -0.0414  0.0023  0.1881
  253MOL   O13245996   2.267   7.970   4.746  0.2121  0.8521 -0.6025
  253MOL   H13345997   2.379   0.129   4.814  0.7412 -0.2480 -0.3353
  253MOL   H13445998   2.454   8.082   4.604 -0.8750 -1.0117  1.5955
  253MOL   H13545999   2.515   0.096   4.611  0.2439  2.5901  0.7976
  253MOL   H13646000   2.549   8.134   4.746 -0.3042  1.0225  0.4274
  253MOL   C13746001   2.220   7.849   4.806 -0.1721 -0.5344 -0.2204
  253MOL   C13846002   2.245   7.741   4.689  0.1455  0.6596  0.4018
  253MOL   C13946003   2.071   7.863   4.825 -0.8901 -0.1174  0.1350
  253MOL   O14046004   1.997   7.813   4.743  0.2148  0.5383  1.0911
  253MOL   O14146005   2.029   7.934   4.927 -0.5681 -0.6395 -0.3677
  253MOL   H14246006   2.274   7.823   4.896 -1.8442  0.6681  1.1786
  253MOL   H14346007   2.349   7.738   4.657 -0.3524 -2.0815 -1.1571
  253MOL   H14446008   2.222   7.642   4.728 -0.0698  1.1979  1.6620
  253MOL   H14546009   2.189   7.763   4.598  0.1428 -0.7674  0.0466
  253MOL   C14646010   1.882   7.955   4.945  0.0133 -0.2614  0.2645
  253MOL   C14746011   1.847   8.070   5.045 -0.0640  0.4085 -0.1510
  253MOL   C14846012   1.811   7.826   5.000 -0.7677 -0.4002 -0.4386
  253MOL   O14946013   1.861   7.750   5.079 -0.1792  0.2177  0.1813
  253MOL   O15046014   1.688   7.828   4.955 -0.6365  0.7879  0.0704
  253MOL   H15146015   1.842   7.989   4.849  1.7900 -0.6352 -0.6397
  253MOL   H15246016   1.741   8.087   5.065 -0.0992 -0.0084  0.0247
  253MOL   H15346017   1.893   8.053   5.143 -0.3823  2.0966  0.3142
  253MOL   H15446018   1.893   0.016   5.012 -0.7191  0.4456 -0.9684
  253MOL   C15546019   1.593   7.726   4.985  0.0082  0.5666  0.4584
  253MOL   C15646020   1.472   7.762   4.892  0.5112 -0.0551 -0.4575
  253MOL   C15746021   1.550   7.724   5.131  0.2202 -0.7747  0.1637
  253MOL   O15846022   1.560   7.829   5.197 -0.5520  0.1070  0.2626
  253MOL   O15946023   1.490   7.610   5.169 -0.1348  0.1037  0.5805
  253MOL   H16046024   1.620   7.626   4.954 -0.0941  1.1351 -1.5049
  253MOL   H16146025   1.437   7.863   4.914 -1.8764 -0.2026 -3.3540
  253MOL   H16246026   1.491   7.764   4.785  0.0654  2.0130 -0.5103
  253MOL   H16346027   1.388   7.695   4.913  0.6810 -0.2289 -0.3267
  253MOL   C16446028   1.444   7.587   5.302 -0.3113  0.0451 -0.0642
  253MOL   C16546029   1.569   7.551   5.384  0.4327  0.2630 -0.9731
  253MOL   C16646030   1.336   7.480   5.319  0.3947  0.6282 -0.7174
  253MOL   O16746031   1.225   7.511   5.355  0.2002 -0.0661  0.5158
  253MOL   O16846032   1.381   7.352   5.285 -0.2867 -0.9211  0.1573
  253MOL   H16946033   1.405   7.680   5.344  0.3219  1.1920 -1.9334
  253MOL   H17046034   1.653   7.620   5.377  1.7001 -0.9208  1.9194
  253MOL   H17146035   1.539   7.549   5.488 -0.7026 -2.7484 -1.3018
  253MOL   H17246036   1.605   7.450   5.364 -1.0169 -0.6465  0.8945
  253MOL   C17346037   1.302   7.236   5.324 -0.1581  0.7197  0.6620
  253MOL   C17446038   1.382   7.108   5.351 -0.1558  0.2421  0.0603
  253MOL   C17546039   1.194   7.211   5.218  0.1195  0.6639  0.1914
  253MOL   O17646040   1.184   7.262   5.106  0.0102 -0.4102  0.6864
  253MOL   O17746041   1.108   7.114   5.257  1.0193  0.6115 -0.0246
  253MOL   H17846042   1.253   7.256   5.419 -0.1864  1.3473  0.5192
  253MOL   H17946043   1.434   7.086   5.258 -2.6133 -0.8009 -1.1179
  253MOL   H18046044   1.452   7.130   5.431 -0.5365  0.0974  0.4343
  253MOL   H18146045   1.333   7.017   5.386 -2.1014  2.2775  2.8539
  253MOL   H18246046   1.040   7.106   5.192 -0.5812  1.9873  1.4281
  254MOL     C146047   6.468   3.822   1.868  0.8660  0.2583  0.0031
  254MOL     C246048   6.545   3.776   1.743  0.1030 -0.4152 -0.4349
  254MOL     C346049   6.437   3.972   1.863 -1.0445 -0.1115 -0.3056
  254MOL     O446050   6.467   4.045   1.773 -0.1439 -0.0829  0.3623
  254MOL     O546051   6.375   4.017   1.978 -0.1953  0.0270  0.0428
  254MOL     H646052   6.372   3.771   1.879  0.7351  0.4150 -0.3907
  254MOL     H746053   6.638   3.830   1.758 -0.0734  0.1817 -1.4243
  254MOL     H846054   6.567   3.670   1.739 -0.6588 -0.5278 -1.9020
  254MOL     H946055   6.487   3.810   1.657  0.5333  0.6830 -0.3033
  254MOL    H1046056   6.523   3.808   1.961 -1.2392  0.8253  1.3853
  254MOL    C1146057   6.343   4.156   1.993 -0.2173 -1.3735  0.3698
  254MOL    C1246058   6.318   4.188   2.141 -0.2704 -0.3556  0.4082
  254MOL    C1346059   6.223   4.198   1.907 -1.2935  0.6612 -0.5587
  254MOL    O1446060   6.150   4.126   1.847 -0.0814  0.0143  0.0048
  254MOL    O1546061   6.211   4.326   1.911 -0.0873 -0.0469  0.5489
  254MOL    H1646062   6.431   4.218   1.972 -1.0834  0.2058  1.3031
  254MOL    H1746063   6.410   4.199   2.199  0.3358 -2.3565 -0.1259
  254MOL    H1846064   6.260   4.279   2.157  0.9306  0.6850 -0.9908
  254MOL    H1946065   6.258   4.107   2.183 -0.4315 -0.9101 -0.8822
  254MOL    C2046066   6.107   4.400   1.846 -0.5621  0.5391 -0.5062
  254MOL    C2146067   6.141   4.551   1.833 -0.4148  0.9196 -0.1257
  254MOL    C2246068   5.972   4.386   1.924  0.0379  0.2150 -0.5228
  254MOL    O2346069   5.863   4.373   1.868  0.6041  0.3026  0.1321
  254MOL    O2446070   5.980   4.395   2.057  0.3012  0.2567 -0.1861
  254MOL    H2546071   6.090   4.355   1.748 -3.0354 -0.0934  0.1879
  254MOL    H2646072   6.066   4.600   1.772 -1.4461 -0.2393  0.2063
  254MOL    H2746073   6.134   4.603   1.929  2.6095  2.8658 -0.8833
  254MOL    H2846074   6.240   4.550   1.786 -0.2002 -1.0160  0.3089
  254MOL    C2946075   5.862   4.386   2.141  0.0192 -0.8943 -0.0881
  254MOL    C3046076   5.794   4.529   2.136  0.2371 -0.1760 -0.2604
  254MOL    C3146077   5.902   4.339   2.281  1.1654 -0.2113  0.0660
  254MOL    O3246078   6.015   4.291   2.308  0.4908  0.8653 -0.0691
  254MOL    O3346079   5.802   4.358   2.371 -0.0311  0.5064 -0.0221
  254MOL    H3446080   5.804   4.306   2.096  1.5467 -2.5293  0.7478
  254MOL    H3546081   5.854   4.602   2.190  0.9192  0.0569 -1.3117
  254MOL    H3646082   5.764   4.563   2.037 -0.2842 -0.7633 -0.3060
  254MOL    H3746083   5.708   4.523   2.202  2.4126 -0.5750  2.6405
  254MOL    C3846084   5.813   4.311   2.503  0.0457  0.7314  0.0600
  254MOL    C3946085   5.671   4.312   2.579 -0.2215  0.1225 -0.6023
  254MOL    C4046086   5.917   4.387   2.584  0.7333 -0.1613 -0.9859
  254MOL    O4146087   6.019   4.328   2.627  0.3016 -0.3229 -0.2678
  254MOL    O4246088   5.889   4.517   2.602  0.3709  0.1558 -0.6663
  254MOL    H4346089   5.847   4.208   2.491 -1.1267  0.4228 -0.7033
  254MOL    H4446090   5.589   4.260   2.528 -0.4855  0.4484 -0.5128
  254MOL    H4546091   5.685   4.270   2.678 -1.9043  1.2619  0.1434
  254MOL    H4646092   5.628   4.410   2.600  1.0572  0.8343 -1.2633
  254MOL    C4746093   5.989   4.601   2.656 -0.6476  0.6291  0.4595
  254MOL    C4846094   5.937   4.748   2.662 -0.0466 -0.4721  0.2618
  254MOL    C4946095   6.125   4.601   2.582 -0.9846  0.6469  0.1878
  254MOL    O5046096   6.132   4.561   2.466 -0.2450  0.3379  0.5560
  254MOL    O5146097   6.228   4.631   2.660 -0.3844 -0.1344  0.2291
  254MOL    H5246098   6.001   4.561   2.757  2.0493  1.5241  0.5230
  254MOL    H5346099   6.021   4.815   2.680 -0.8297  1.2384 -2.2201
  254MOL    H5446100   5.907   4.778   2.562  0.5975 -1.8537 -0.3722
  254MOL    H5546101   5.864   4.766   2.740 -1.3406  0.3998 -1.1346
  254MOL    C5646102   6.360   4.634   2.616 -0.3704  0.1182  0.3238
  254MOL    C5746103   6.456   4.658   2.733  0.3554  0.6159 -0.3446
  254MOL    C5846104   6.373   4.757   2.524  0.5488 -0.4759  0.6135
  254MOL    O5946105   6.381   4.739   2.399 -0.6968  0.2438  0.2346
  254MOL    O6046106   6.343   4.872   2.581 -0.6019  0.6157  0.1055
  254MOL    H6146107   6.371   4.544   2.556  4.2882  0.2270  0.8851
  254MOL    H6246108   6.550   4.606   2.713  1.4011  2.2534  0.2471
  254MOL    H6346109   6.471   4.765   2.747  0.9747  0.6266 -1.0744
  254MOL    H6446110   6.424   4.609   2.825  0.6929 -2.3054 -1.7253
  254MOL    C6546111   6.314   4.983   2.497  0.1794  0.9603 -0.3482
  254MOL    C6646112   6.327   5.108   2.586 -0.3727 -0.3060 -0.0489
  254MOL    C6746113   6.173   4.975   2.445 -0.3034 -0.2694  0.5637
  254MOL    O6846114   6.077   5.035   2.500  0.6616  0.3491  0.0578
  254MOL    O6946115   6.168   4.913   2.320 -0.5205  0.2521 -0.6810
  254MOL    H7046116   6.380   4.985   2.410  1.3073 -1.1447  0.4065
  254MOL    H7146117   6.290   5.196   2.535 -2.1248 -0.9739  0.0481
  254MOL    H7246118   6.263   5.097   2.673  0.3207  2.6071  0.8715
  254MOL    H7346119   6.433   5.115   2.611 -0.0731  2.2301 -1.8626
  254MOL    C7446120   6.079   4.961   2.222 -0.3267  0.0890 -0.0089
  254MOL    C7546121   6.100   4.873   2.102 -0.0875 -0.0060  0.1647
  254MOL    C7646122   6.110   5.110   2.179 -0.1827 -0.1303 -0.5734
  254MOL    O7746123   6.227   5.153   2.164  0.1706  0.0244 -0.1255
  254MOL    O7846124   6.004   5.181   2.150 -0.7429  0.2452 -0.6344
  254MOL    H7946125   5.978   4.954   2.264 -0.1587 -0.3144  0.3388
  254MOL    H8046126   6.038   4.907   2.020 -2.3324 -1.7290  1.0823
  254MOL    H8146127   6.201   4.878   2.061 -1.3421  1.5491 -2.8952
  254MOL    H8246128   6.081   4.769   2.129 -0.1670  0.0225  0.2176
  254MOL    C8346129   6.008   5.320   2.115 -0.5624 -0.0585  0.3838
  254MOL    C8446130   5.883   5.376   2.171  0.2611 -0.1142 -0.7387
  254MOL    C8546131   6.034   5.325   1.966  0.5632 -0.9629  1.0317
  254MOL    O8646132   6.133   5.367   1.909  0.4865  0.4699  0.5071
  254MOL    O8746133   5.925   5.270   1.906 -1.0537  0.0887  0.2647
  254MOL    H8846134   6.095   5.372   2.154  0.9255  0.0516 -2.9171
  254MOL    H8946135   5.865   5.473   2.123  1.5087  0.5019  0.0175
  254MOL    H9046136   5.799   5.319   2.131  1.4739 -0.7142 -2.5016
  254MOL    H9146137   5.882   5.392   2.279 -1.0423 -0.9393 -0.6247
  254MOL    C9246138   5.910   5.272   1.767 -0.0569 -0.2205  0.0705
  254MOL    C9346139   5.763   5.302   1.736  0.2478  0.5434 -0.4562
  254MOL    C9446140   5.955   5.128   1.714 -0.1302 -0.5345 -0.0460
  254MOL    O9546141   5.880   5.029   1.711 -0.0651  0.2865 -0.1160
  254MOL    O9646142   6.082   5.123   1.675 -0.4163  0.1273  0.2875
  254MOL    H9746143   5.974   5.345   1.718 -1.5225  1.2631  0.3160
  254MOL    H9846144   5.688   5.240   1.786  1.0599 -0.0153  0.0826
  254MOL    H9946145   5.737   5.407   1.742  0.1804  0.4961  0.1510
  254MOL   H10046146   5.753   5.273   1.632 -3.3215  1.2387 -0.3721
  254MOL   C10146147   6.163   5.004   1.636  0.8307 -0.2578  0.3321
  254MOL   C10246148   6.192   4.901   1.753 -0.2917 -0.3460  0.8250
  254MOL   C10346149   6.291   5.061   1.568  0.1009 -0.5216  0.4903
  254MOL   O10446150   6.345   5.017   1.465 -0.6760  0.1971 -0.8330
  254MOL   O10546151   6.335   5.171   1.627 -0.1513  0.0662 -0.5591
  254MOL   H10646152   6.116   4.948   1.554  1.2370  3.0196 -2.2508
  254MOL   H10746153   6.277   4.918   1.820 -1.1857 -0.1687  1.9287
  254MOL   H10846154   6.105   4.882   1.816  0.9664 -2.0540  2.0961
  254MOL   H10946155   6.220   4.808   1.703  1.1865  1.4929 -1.8761
  254MOL   C11046156   6.445   5.245   1.576  0.2564  0.7255  0.4010
  254MOL   C11146157   6.586   5.191   1.600 -0.3151  0.0536  0.5849
  254MOL   C11246158   6.434   5.392   1.611  0.2149 -0.3822  0.0713
  254MOL   O11346159   6.431   5.484   1.528  0.0400 -0.5012 -0.3552
  254MOL   O11446160   6.441   5.427   1.741  0.4367  0.5194 -0.2515
  254MOL   H11546161   6.436   5.242   1.468 -1.6011 -0.4533  0.5607
  254MOL   H11646162   6.593   5.175   1.707  1.3292  2.2453  0.8494
  254MOL   H11746163   6.608   5.099   1.546 -3.3331 -0.6157  0.4358
  254MOL   H11846164   6.665   5.264   1.580 -0.8367  0.6876  0.7948
  254MOL   C11946165   6.442   5.565   1.785  0.3907  0.2324 -0.3657
  254MOL   C12046166   6.298   5.627   1.775  0.3255 -0.3296 -0.0958
  254MOL   C12146167   6.546   5.649   1.723 -0.3226  0.3196 -0.6534
  254MOL   O12246168   6.523   5.769   1.710 -0.2184  0.1470 -0.2153
  254MOL   O12346169   6.670   5.595   1.711  0.7261  0.8247  0.5876
  254MOL   H12446170   6.469   5.565   1.891 -3.8568  3.0942  0.8771
  254MOL   H12546171   6.289   5.649   1.669 -1.3252  0.6267  0.2362
  254MOL   H12646172   6.213   5.560   1.789  1.0280 -1.1861  0.1270
  254MOL   H12746173   6.287   5.714   1.839  1.3035  1.1519 -1.8843
  254MOL   C12846174   6.790   5.673   1.695 -0.3855 -0.3804  0.7394
  254MOL   C12946175   6.888   5.582   1.629  0.1217  0.2199 -0.7827
  254MOL   C13046176   6.844   5.730   1.827  0.2577  0.4750 -0.0470
  254MOL   O13146177   6.917   5.825   1.831  0.4359 -0.6285 -0.3510
  254MOL   O13246178   6.814   5.651   1.941 -0.3368 -0.0221 -0.1535
  254MOL   H13346179   6.770   5.758   1.629 -1.0987  0.7535  2.3662
  254MOL   H13446180   6.984   5.629   1.613 -0.0042  0.7478 -0.0359
  254MOL   H13546181   6.914   5.493   1.687  0.7585  0.6293 -0.4338
  254MOL   H13646182   6.845   5.558   1.532 -0.8364 -0.2883 -0.2487
  254MOL   C13746183   6.868   5.671   2.071  0.0833  0.1623 -0.2225
  254MOL   C13846184   6.837   5.551   2.154 -0.1196  0.2025  0.0032
  254MOL   C13946185   6.794   5.795   2.126  0.7948 -0.0013 -0.1463
  254MOL   O14046186   6.694   5.836   2.065 -0.3795 -0.9597 -0.2566
  254MOL   O14146187   6.860   5.850   2.229  0.4750 -0.1164 -0.3761
  254MOL   H14246188   6.973   5.701   2.078 -0.5472  3.0184 -1.9445
  254MOL   H14346189   6.728   5.550   2.162 -0.2832 -1.9738 -1.7820
  254MOL   H14446190   6.864   5.456   2.109 -2.2280 -0.3065 -0.2726
  254MOL   H14546191   6.876   5.562   2.254 -0.1344  1.5208 -0.1292
  254MOL   C14646192   6.832   5.977   2.288 -0.0060 -0.8714  0.1185
  254MOL   C14746193   6.706   5.974   2.383 -0.0837 -0.7195 -0.0828
  254MOL   C14846194   6.820   6.094   2.178  0.0560 -0.3287  0.1105
  254MOL   O14946195   6.734   6.180   2.193 -0.0325 -0.7851  0.1214
  254MOL   O15046196   6.912   6.095   2.071 -0.0551 -0.0012  0.4194
  254MOL   H15146197   6.917   6.010   2.348  0.4623 -1.4246 -0.2406
  254MOL   H15246198   6.665   6.068   2.419  1.4285 -0.0997  0.0580
  254MOL   H15346199   6.626   5.933   2.321 -0.3030 -0.7485  0.2196
  254MOL   H15446200   6.722   5.905   2.466 -0.1182 -0.8082 -0.1497
  254MOL   C15546201   6.917   6.209   1.988 -0.2338 -0.0931  0.5691
  254MOL   C15646202   6.970   6.162   1.850 -0.1381 -0.4637  0.3177
  254MOL   C15746203   7.008   6.316   2.054  0.8527  0.1399  0.1084
  254MOL   O15846204   6.976   6.438   2.059  0.2689  0.1413  0.3094
  254MOL   O15946205   7.126   6.255   2.085  0.5146 -0.1738 -0.3000
  254MOL   H16046206   6.823   6.257   1.958 -0.4059 -0.1746  0.9750
  254MOL   H16146207   7.063   6.108   1.870  0.4931  0.3731 -0.3560
  254MOL   H16246208   6.899   6.098   1.799 -2.1344  1.1445  1.0209
  254MOL   H16346209   6.976   6.245   1.780 -0.2773 -0.2556  0.5521
  254MOL   C16446210   7.224   6.325   2.159 -0.4424 -0.0159 -0.4481
  254MOL   C16546211   7.377   6.303   2.116  0.7875  0.2896  1.1464
  254MOL   C16646212   7.204   6.303   2.315  0.6947  0.0090 -0.4598
  254MOL   O16746213   7.294   6.251   2.379 -0.2163 -0.1383 -0.8190
  254MOL   O16846214   7.080   6.339   2.356 -0.1525 -0.0886 -0.0582
  254MOL   H16946215   7.220   6.434   2.159 -0.1539  0.0148  2.0432
  254MOL   H17046216   7.442   6.350   2.189  1.7345 -0.9242  1.1017
  254MOL   H17146217   7.402   6.199   2.096  1.1353  0.8896 -1.7825
  254MOL   H17246218   7.402   6.359   2.026  1.6324 -1.9977 -0.0920
  254MOL   C17346219   7.046   6.317   2.498 -0.0831  0.5186  1.0229
  254MOL   C17446220   6.896   6.299   2.506  0.3238  0.8451  0.4469
  254MOL   C17546221   7.112   6.426   2.586  0.0381 -0.1797  0.4598
  254MOL   O17646222   7.188   6.408   2.683  0.1616 -0.0511  0.3876
  254MOL   O17746223   7.064   6.545   2.545 -0.2547  0.3820 -0.2162
  254MOL   H17846224   7.085   6.226   2.545 -2.0087  0.5666  2.7912
  254MOL   H17946225   6.852   6.363   2.429 -0.1403  0.4304  0.3697
  254MOL   H18046226   6.877   6.193   2.492 -0.1617  0.8360  1.1856
  254MOL   H18146227   6.847   6.334   2.596  0.7161 -2.1590  1.8801
  254MOL   H18246228   7.113   6.622   2.569 -1.6977  1.4239 -0.5420
  255MOL     C146229   4.193   0.670   2.122  0.3061 -0.5400 -1.0059
  255MOL     C246230   4.205   0.537   2.054  0.1349  0.2710  0.2112
  255MOL     C346231   4.219   0.787   2.028 -0.5477  0.1723 -0.1377
  255MOL     O446232   4.299   0.784   1.933  0.5085  0.1400 -0.0724
  255MOL     O546233   4.149   0.893   2.059  0.3894 -0.0501 -0.5017
  255MOL     H646234   4.093   0.684   2.161  0.6032  0.1506 -0.4794
  255MOL     H746235   4.230   0.453   2.119 -1.4951  0.8592  1.6104
  255MOL     H846236   4.107   0.518   2.011  2.0477 -0.4248 -4.0636
  255MOL     H946237   4.285   0.525   1.980  0.0447  0.5443  0.0719
  255MOL    H1046238   4.264   0.673   2.206 -0.4002 -0.4209 -0.4125
  255MOL    C1146239   4.154   1.009   1.977  0.7350  0.7856  0.0640
  255MOL    C1246240   4.241   1.119   2.033 -0.2865 -0.8804 -0.3879
  255MOL    C1346241   4.005   1.049   1.959  0.1359 -0.0289 -0.5751
  255MOL    O1446242   3.932   1.066   2.055  0.4512  0.2821  0.0737
  255MOL    O1546243   3.961   1.067   1.836 -0.3934  0.4752  0.1083
  255MOL    H1646244   4.199   0.993   1.879  0.7226 -2.6289  0.5514
  255MOL    H1746245   4.212   1.217   1.997 -1.3001 -2.3539 -3.8205
  255MOL    H1846246   4.248   1.121   2.142  0.0570  2.1137 -0.4278
  255MOL    H1946247   4.347   1.100   2.016  0.6010  2.1069  1.6090
  255MOL    C2046248   3.835   1.136   1.813  0.4864  0.5509 -0.4338
  255MOL    C2146249   3.719   1.048   1.833  0.1828 -0.3963 -0.2915
  255MOL    C2246250   3.841   1.185   1.667 -0.8474 -0.8125  0.4144
  255MOL    O2346251   3.841   1.307   1.640 -0.6773  0.1277 -0.3225
  255MOL    O2446252   3.835   1.088   1.573  0.3526 -0.0859  0.5457
  255MOL    H2546253   3.836   1.222   1.880  1.3368  0.6378 -0.5468
  255MOL    H2646254   3.688   1.026   1.936  3.9047 -1.0176  0.7550
  255MOL    H2746255   3.631   1.075   1.775  0.5480 -0.9260 -1.1048
  255MOL    H2846256   3.746   0.951   1.792  1.1462 -0.7431  1.1331
  255MOL    C2946257   3.833   1.113   1.433 -0.2412 -0.2625  0.1042
  255MOL    C3046258   3.817   0.991   1.347  0.5609  0.1404  0.2446
  255MOL    C3146259   3.976   1.165   1.398 -0.5603 -0.0329  0.1007
  255MOL    O3246260   4.073   1.089   1.416  0.4118  0.1203 -0.2290
  255MOL    O3346261   3.972   1.286   1.328  0.1729  0.5841  0.4650
  255MOL    H3446262   3.772   1.197   1.400  1.5171  0.0532 -2.4877
  255MOL    H3546263   3.870   1.001   1.252 -1.3904 -1.7352 -1.0925
  255MOL    H3646264   3.859   0.907   1.403  0.1582 -1.4746 -1.8081
  255MOL    H3746265   3.712   0.976   1.323  0.4188  1.1545  0.2204
  255MOL    C3846266   4.088   1.343   1.277 -0.0550 -0.0508  0.2879
  255MOL    C3946267   4.111   1.471   1.358 -0.3771 -0.4202  0.4152
  255MOL    C4046268   4.086   1.358   1.125  0.1141 -0.3670 -0.3453
  255MOL    O4146269   4.087   1.465   1.063 -0.2684 -0.0155 -0.3673
  255MOL    O4246270   4.083   1.234   1.073  0.1725 -0.1628  0.3652
  255MOL    H4346271   4.177   1.281   1.289  1.0796  1.3837 -0.5961
  255MOL    H4446272   4.179   1.544   1.315  0.5544 -1.3463  0.2940
  255MOL    H4546273   4.013   1.514   1.380  1.2801  2.9233  1.6792
  255MOL    H4646274   4.164   1.453   1.452 -0.2517  0.5559  0.5338
  255MOL    C4746275   4.075   1.221   0.931 -0.3802  0.3317  0.2466
  255MOL    C4846276   3.986   1.099   0.884  0.5747  0.0153 -0.2247
  255MOL    C4946277   4.212   1.218   0.865  0.0166  0.0938  0.0139
  255MOL    O5046278   4.314   1.230   0.932  0.1700  0.3709  0.0700
  255MOL    O5146279   4.213   1.203   0.731  0.3664 -0.0258  0.5626
  255MOL    H5246280   4.016   1.304   0.891  1.4532  1.1194 -0.8693
  255MOL    H5346281   3.897   1.094   0.947  2.6440 -0.3685  2.7715
  255MOL    H5446282   3.954   1.105   0.780 -0.0082 -0.5400 -0.0767
  255MOL    H5546283   4.034   1.004   0.904  1.3548  0.2565 -0.9228
  255MOL    C5646284   4.337   1.187   0.662 -0.1135  0.3791  0.1914
  255MOL    C5746285   4.312   1.189   0.516  0.7470  0.8450  0.1143
  255MOL    C5846286   4.406   1.054   0.702  0.0388 -0.5584 -0.6543
  255MOL    O5946287   4.492   1.057   0.787  0.1241 -0.1588 -0.0136
  255MOL    O6046288   4.348   0.938   0.660 -0.3353 -0.4542  0.1850
  255MOL    H6146289   4.404   1.272   0.676 -1.0530  1.7132 -2.8652
  255MOL    H6246290   4.410   1.184   0.468  0.6545  1.4153 -0.1468
  255MOL    H6346291   4.249   1.107   0.484  2.9886 -0.8720  0.0119
  255MOL    H6446292   4.272   1.284   0.480 -1.8057 -0.8762 -1.7601
  255MOL    C6546293   4.402   0.813   0.710  0.4418  0.1524 -0.7232
  255MOL    C6646294   4.380   0.703   0.617  0.4246 -0.3624  1.0893
  255MOL    C6746295   4.324   0.783   0.840 -1.1132 -0.1961  0.3741
  255MOL    O6846296   4.209   0.828   0.861 -0.6863  0.1918 -0.1032
  255MOL    O6946297   4.406   0.704   0.926  0.1471 -0.3226  0.0813
  255MOL    H7046298   4.508   0.820   0.731  0.0638  3.4657  0.3607
  255MOL    H7146299   4.472   0.645   0.614 -0.3799 -1.6555  0.8705
  255MOL    H7246300   4.292   0.642   0.639 -0.7447  1.1495  0.7482
  255MOL    H7346301   4.367   0.724   0.511 -1.2696  1.1653  1.5730
  255MOL    C7446302   4.382   0.665   1.055 -0.2732 -0.0298 -0.3243
  255MOL    C7546303   4.282   0.555   1.068  0.2610  0.4613  0.0716
  255MOL    C7646304   4.354   0.792   1.142  1.0063 -0.0189 -0.7356
  255MOL    O7746305   4.244   0.818   1.201 -0.4251  0.0383  0.2678
  255MOL    O7846306   4.465   0.873   1.146 -0.2904  0.2006 -0.3164
  255MOL    H7946307   4.478   0.627   1.091  0.2024  1.7615  0.3348
  255MOL    H8046308   4.200   0.573   0.998 -0.7409  1.1779  1.3883
  255MOL    H8146309   4.329   0.462   1.037  1.2826  1.9562 -3.1576
  255MOL    H8246310   4.251   0.551   1.172  0.4925 -0.9570  0.0962
  255MOL    C8346311   4.464   0.997   1.203 -0.0295  0.2977 -0.2339
  255MOL    C8446312   4.589   1.056   1.143  0.2663  0.2595  0.1368
  255MOL    C8546313   4.458   0.981   1.360 -0.8119 -0.7891  0.0824
  255MOL    O8646314   4.490   0.881   1.421  0.4836  0.6050 -0.3881
  255MOL    O8746315   4.422   1.096   1.417 -0.5108  0.2214 -0.8354
  255MOL    H8846316   4.380   1.056   1.165  0.1801  0.8723  0.1862
  255MOL    H8946317   4.592   1.159   1.177 -1.4653  0.7296 -1.0679
  255MOL    H9046318   4.678   1.004   1.181 -0.2977 -2.1766 -1.7353
  255MOL    H9146319   4.595   1.048   1.034 -0.7755  0.0836  0.0901
  255MOL    C9246320   4.401   1.102   1.565 -0.1723  0.2332  0.4065
  255MOL    C9346321   4.327   1.221   1.617  0.1715 -0.4483  0.1072
  255MOL    C9446322   4.533   1.079   1.638 -0.4103 -0.7093  0.3717
  255MOL    O9546323   4.639   1.111   1.586  0.5135  0.0133 -0.4471
  255MOL    O9646324   4.522   1.037   1.762  0.1263 -0.8185  0.0003
  255MOL    H9746325   4.335   1.019   1.588  1.4112 -0.9765  0.6849
  255MOL    H9846326   4.262   1.199   1.701 -0.7503 -0.6340 -0.6422
  255MOL    H9946327   4.396   1.301   1.643 -0.0991 -0.2728  0.2825
  255MOL   H10046328   4.257   1.264   1.545 -0.1297  1.8419  1.7292
  255MOL   C10146329   4.634   1.024   1.853  0.0238  0.1808 -0.4447
  255MOL   C10246330   4.610   0.907   1.949 -0.4817  0.4958 -0.2447
  255MOL   C10346331   4.650   1.157   1.932 -0.4573  0.0219  0.2231
  255MOL   O10446332   4.647   1.161   2.058  0.3851  0.4179  0.3907
  255MOL   O10546333   4.679   1.263   1.851  1.3120  0.4185  0.5958
  255MOL   H10646334   4.725   0.994   1.800  1.7417  2.2226  1.2307
  255MOL   H10746335   4.672   0.913   2.038 -1.3369 -0.4267  0.4237
  255MOL   H10846336   4.508   0.891   1.984 -0.8265  2.6501 -0.2130
  255MOL   H10946337   4.640   0.821   1.888  1.8882  0.3284  1.0778
  255MOL   C11046338   4.722   1.390   1.896  0.1825  0.7101 -0.3771
  255MOL   C11146339   4.705   1.480   1.774 -0.4058  0.4635 -0.9101
  255MOL   C11246340   4.868   1.381   1.952 -0.7718  0.8565 -1.0616
  255MOL   O11346341   4.888   1.382   2.072 -0.7729 -0.1476 -0.6021
  255MOL   O11446342   4.959   1.395   1.855 -0.1612  0.8462 -0.5767
  255MOL   H11546343   4.666   1.437   1.977 -0.5923 -1.3953  0.3417
  255MOL   H11646344   4.791   1.543   1.755  1.1779 -1.2861  0.3173
  255MOL   H11746345   4.711   1.418   1.684  1.4401  0.6705 -0.9368
  255MOL   H11846346   4.608   1.529   1.783 -1.0350 -1.0674  0.8850
  255MOL   C11946347   5.095   1.403   1.898  0.2399  0.5504  0.1165
  255MOL   C12046348   5.166   1.510   1.810 -0.1093  0.0018  0.2636
  255MOL   C12146349   5.175   1.268   1.890 -0.3407  0.1990  0.1878
  255MOL   O12246350   5.154   1.184   1.798  0.4197  0.1089 -0.2248
  255MOL   O12346351   5.252   1.252   1.994 -0.1134  0.0770 -0.2160
  255MOL   H12446352   5.101   1.446   1.998  2.7237 -0.0569  0.2810
  255MOL   H12546353   5.130   1.612   1.821 -2.7002 -0.9101  0.6194
  255MOL   H12646354   5.270   1.519   1.838  0.1636  2.2603 -1.3399
  255MOL   H12746355   5.163   1.488   1.703  0.1056  1.0958  0.0295
  255MOL   C12846356   5.323   1.132   2.021 -0.2189  0.2761  0.6278
  255MOL   C12946357   5.369   1.156   2.159 -0.0389 -0.1618 -0.8899
  255MOL   C13046358   5.437   1.099   1.920 -0.0664 -0.5461 -0.3552
  255MOL   O13146359   5.449   0.990   1.868  0.3517 -0.4600 -0.1148
  255MOL   O13246360   5.531   1.199   1.917 -0.0146 -0.4826  0.1286
  255MOL   H13346361   5.258   1.045   2.032  0.5378 -0.2205  1.2370
  255MOL   H13446362   5.283   1.149   2.227  1.3843 -1.3905  0.8379
  255MOL   H13546363   5.444   1.083   2.189  0.1355 -0.3290 -1.7178
  255MOL   H13646364   5.413   1.255   2.167 -0.2343 -0.3330  3.7449
  255MOL   C13746365   5.625   1.199   1.809  0.2613  0.0345 -0.2121
  255MOL   C13846366   5.770   1.176   1.863  1.2092 -0.3600 -0.3673
  255MOL   C13946367   5.611   1.338   1.747  0.5686 -0.8097 -1.0981
  255MOL   O14046368   5.510   1.407   1.767 -0.3312 -0.5452  0.6625
  255MOL   O14146369   5.700   1.368   1.652  0.1112  0.1672  0.3778
  255MOL   H14246370   5.593   1.128   1.732 -1.5795 -0.6318  1.1258
  255MOL   H14346371   5.842   1.154   1.785  3.1325 -0.5126  1.3918
  255MOL   H14446372   5.799   1.262   1.924  1.3099 -0.5772 -0.1098
  255MOL   H14546373   5.772   1.097   1.938  1.9857 -0.9814 -1.0487
  255MOL   C14646374   5.702   1.490   1.590 -0.2792  0.0034 -0.5831
  255MOL   C14746375   5.797   1.488   1.470 -0.0758  0.4806  0.6405
  255MOL   C14846376   5.753   1.598   1.692 -0.3701 -0.7813  0.8729
  255MOL   O14946377   5.688   1.699   1.707 -0.0338 -0.5609  0.1623
  255MOL   O15046378   5.870   1.563   1.746 -0.0822 -0.6172 -0.5447
  255MOL   H15146379   5.602   1.514   1.555 -0.3945  3.5667  1.9132
  255MOL   H15246380   5.749   1.447   1.381  0.9085 -0.2497  0.4294
  255MOL   H15346381   5.814   1.591   1.439  0.7876  0.2168  0.2001
  255MOL   H15446382   5.890   1.431   1.475  0.7928  1.8366  0.2755
  255MOL   C15546383   5.949   1.649   1.826  0.2780  0.2581 -0.4282
  255MOL   C15646384   6.079   1.571   1.843 -0.1864  0.0014  0.0803
  255MOL   C15746385   5.882   1.673   1.965  0.0752  0.2291  0.1216
  255MOL   O15846386   5.888   1.783   2.012 -0.1559 -0.0128 -0.4376
  255MOL   O15946387   5.829   1.556   2.016 -0.4636  0.2046 -0.4972
  255MOL   H16046388   5.979   1.738   1.771  0.0775  0.4876 -0.1625
  255MOL   H16146389   6.153   1.632   1.895 -0.8986 -0.3256  1.5046
  255MOL   H16246390   6.070   1.481   1.903 -0.5694  0.8387  1.2984
  255MOL   H16346391   6.123   1.547   1.747 -1.1401 -0.2106 -0.3126
  255MOL   C16446392   5.777   1.540   2.149 -0.0575 -0.1440  1.0432
  255MOL   C16546393   5.742   1.387   2.153 -0.4514  0.0168 -0.4552
  255MOL   C16646394   5.664   1.639   2.181 -0.2615 -0.0542 -0.0283
  255MOL   O16746395   5.689   1.749   2.231  0.4626 -0.1557 -0.5754
  255MOL   O16846396   5.545   1.595   2.146 -0.2216  0.0261 -0.6166
  255MOL   H16946397   5.859   1.557   2.218  0.6199 -2.7938  0.9457
  255MOL   H17046398   5.830   1.325   2.137 -1.4225 -1.3463 -0.5595
  255MOL   H17146399   5.687   1.347   2.238 -0.4905  1.8825  0.4371
  255MOL   H17246400   5.671   1.362   2.074 -0.3793 -1.6302 -0.0163
  255MOL   C17346401   5.427   1.674   2.157  0.1403  0.0281  0.2750
  255MOL   C17446402   5.301   1.589   2.172 -0.7639 -0.3464 -0.0090
  255MOL   C17546403   5.416   1.762   2.031 -0.6617  0.2974 -0.3898
  255MOL   O17646404   5.501   1.760   1.940  0.1418  0.4312 -0.4893
  255MOL   O17746405   5.304   1.842   2.025  0.2223  0.4439  0.8744
  255MOL   H17846406   5.429   1.729   2.251  0.6898 -1.1283  0.9483
  255MOL   H17946407   5.277   1.534   2.081 -3.4466  1.9128 -0.7368
  255MOL   H18046408   5.334   1.517   2.248  1.3100  0.5163 -0.0582
  255MOL   H18146409   5.209   1.643   2.194 -0.8688 -0.3879 -0.3437
  255MOL   H18246410   5.260   1.852   2.109 -4.0947 -3.3519 -0.7111
  256MOL     C146411   1.201   3.999   0.910  0.2777  0.3988 -0.0920
  256MOL     C246412   1.168   4.146   0.940 -0.0095  0.0739 -0.3926
  256MOL     C346413   1.204   3.921   1.041 -0.6173 -0.2219 -0.3610
  256MOL     O446414   1.275   3.826   1.049 -0.8719 -0.0695  0.2882
  256MOL     O546415   1.113   3.954   1.124  0.1663  0.1505 -0.0393
  256MOL     H646416   1.135   3.952   0.838  1.1262 -0.8424 -0.0700
  256MOL     H746417   1.063   4.172   0.954 -0.1334 -0.1495 -0.8846
  256MOL     H846418   1.213   4.174   1.035 -0.9931  1.4262 -0.3147
  256MOL     H946419   1.202   4.224   0.873 -1.3740  0.1286 -1.0468
  256MOL    H1046420   1.301   3.994   0.867  0.9030  0.6144  1.2979
  256MOL    C1146421   1.117   3.898   1.255  0.3661  0.9136 -0.2863
  256MOL    C1246422   0.978   3.923   1.321  0.0048 -0.5011  0.4338
  256MOL    C1346423   1.239   3.947   1.335 -0.7745 -0.1473 -0.8679
  256MOL    O1446424   1.256   4.071   1.352  0.0764  0.1932 -0.2001
  256MOL    O1546425   1.315   3.852   1.376 -0.1313 -0.2408 -0.0588
  256MOL    H1646426   1.122   3.791   1.235 -2.7124  0.4444  1.1628
  256MOL    H1746427   0.907   3.900   1.242  0.3224 -0.4542  0.1326
  256MOL    H1846428   0.959   3.855   1.404  0.6806 -1.5059 -0.2300
  256MOL    H1946429   0.973   4.025   1.358 -0.6478 -1.3872  2.8926
  256MOL    C2046430   1.431   3.870   1.458  0.1183  0.1487 -0.3597
  256MOL    C2146431   1.519   3.749   1.435  0.3693 -0.0591 -0.6976
  256MOL    C2246432   1.384   3.882   1.604  0.0578 -0.2089 -0.2178
  256MOL    O2346433   1.374   3.783   1.675 -0.3713 -0.1331  0.0439
  256MOL    O2446434   1.355   4.005   1.641  0.1724  0.1146  0.0665
  256MOL    H2546435   1.485   3.960   1.427  0.6457 -0.8575 -2.5079
  256MOL    H2646436   1.625   3.762   1.452  0.3615  1.1827 -1.5434
  256MOL    H2746437   1.501   3.663   1.500  2.0033 -1.3336 -1.8772
  256MOL    H2846438   1.516   3.707   1.334 -1.3131 -4.0798  0.9226
  256MOL    C2946439   1.302   4.028   1.775 -0.0845 -0.1720 -0.0170
  256MOL    C3046440   1.402   4.039   1.890 -0.7111  0.6423  0.4704
  256MOL    C3146441   1.168   3.961   1.809  0.6838  0.1799  0.1155
  256MOL    O3246442   1.151   3.891   1.909  0.5969  0.3258 -0.6135
  256MOL    O3346443   1.070   3.987   1.722 -0.0037 -0.2006 -0.2476
  256MOL    H3446444   1.274   4.132   1.760 -1.2585 -0.3088  1.2096
  256MOL    H3546445   1.452   3.942   1.887 -0.7060  0.6297  0.8356
  256MOL    H3646446   1.474   4.119   1.874 -0.5935  0.3721 -0.3786
  256MOL    H3746447   1.356   4.068   1.985  0.0295 -0.3527  1.1419
  256MOL    C3846448   0.943   3.917   1.722  0.5537 -0.1046 -0.6235
  256MOL    C3946449   0.859   3.962   1.844 -0.6743  0.3838  0.0002
  256MOL    C4046450   0.961   3.763   1.713  0.1038 -0.3836 -0.0749
  256MOL    O4146451   0.892   3.687   1.781 -0.0929  0.1220 -0.2921
  256MOL    O4246452   1.046   3.718   1.620 -0.3800  0.3060 -0.4940
  256MOL    H4346453   0.885   3.963   1.643 -1.6584  0.3437  1.1936
  256MOL    H4446454   0.769   3.900   1.850  1.7282 -3.2758  0.2228
  256MOL    H4546455   0.913   3.942   1.937 -1.0685 -0.1223  0.1256
  256MOL    H4646456   0.834   4.067   1.837 -0.7399  0.3575 -0.1597
  256MOL    C4746457   1.081   3.581   1.608  0.0684  1.3142 -0.3291
  256MOL    C4846458   1.195   3.545   1.509 -0.3712 -0.2339  0.1403
  256MOL    C4946459   0.959   3.491   1.564 -0.0225 -0.0757  0.2943
  256MOL    O5046460   0.904   3.505   1.454  0.2958  0.0507  0.0002
  256MOL    O5146461   0.921   3.397   1.647  0.0394  0.6123  0.1689
  256MOL    H5246462   1.122   3.553   1.705  0.5782  1.6098 -0.4549
  256MOL    H5346463   1.296   3.556   1.550 -0.5266  1.5309  0.0764
  256MOL    H5446464   1.188   3.448   1.459  1.8116 -0.3035 -0.1171
  256MOL    H5546465   1.205   3.618   1.429  0.9886 -1.1482 -0.5513
  256MOL    C5646466   0.821   3.296   1.606  0.4268 -0.0627 -0.0035
  256MOL    C5746467   0.782   3.218   1.733  0.0585 -0.4725  0.6847
  256MOL    C5846468   0.878   3.203   1.501  0.4789  0.1182 -0.5245
  256MOL    O5946469   1.003   3.183   1.502 -0.1984 -0.7000  0.3610
  256MOL    O6046470   0.781   3.150   1.425  0.3326  0.7251  0.1495
  256MOL    H6146471   0.725   3.337   1.573  0.5894  0.1594 -0.2047
  256MOL    H6246472   0.728   3.282   1.803  0.5070  1.9659 -1.1266
  256MOL    H6346473   0.717   3.134   1.709  0.4209  0.2032 -2.9084
  256MOL    H6446474   0.872   3.184   1.785  0.5039  0.8623  0.8023
  256MOL    C6546475   0.802   3.056   1.323  0.1375  0.0542  0.1485
  256MOL    C6646476   0.693   3.076   1.220  0.2455 -0.5871  0.9259
  256MOL    C6746477   0.806   2.910   1.386  0.3700 -0.3677 -0.1776
  256MOL    O6846478   0.714   2.825   1.362 -0.7796  0.0932 -0.1380
  256MOL    O6946479   0.919   2.883   1.453 -0.1930 -0.0653  0.2994
  256MOL    H7046480   0.895   3.077   1.269  0.5048 -1.7690  0.0600
  256MOL    H7146481   0.687   3.175   1.175  0.9344 -1.3562 -0.9190
  256MOL    H7246482   0.692   2.997   1.145  1.9787  0.0195  0.2378
  256MOL    H7346483   0.594   3.061   1.265 -0.5393  1.2411 -0.1119
  256MOL    C7446484   0.936   2.764   1.536  0.2350  0.1547 -0.2076
  256MOL    C7546485   1.010   2.823   1.649  0.2111 -1.3326 -0.5683
  256MOL    C7646486   1.020   2.655   1.468  0.6387 -0.0515  0.6131
  256MOL    O7746487   1.144   2.643   1.475  0.4734  0.4311  0.4531
  256MOL    O7846488   0.940   2.586   1.385  0.0864 -0.0098 -0.0027
  256MOL    H7946489   0.840   2.739   1.581  0.3993 -0.1611 -0.0279
  256MOL    H8046490   1.025   2.755   1.733  0.6293 -0.9445 -0.3346
  256MOL    H8146491   1.107   2.865   1.623 -1.2674  1.4575 -1.7430
  256MOL    H8246492   0.948   2.906   1.681  1.5265 -0.6928  0.3188
  256MOL    C8346493   0.995   2.487   1.296 -0.3511  0.7184  0.3971
  256MOL    C8446494   0.883   2.466   1.185 -0.6214 -0.3382  0.2448
  256MOL    C8546495   1.040   2.352   1.362  0.9836 -0.1436  0.3663
  256MOL    O8646496   1.154   2.319   1.378 -0.5781 -0.0303 -0.5001
  256MOL    O8746497   0.927   2.288   1.400  0.1790 -0.1556 -0.4458
  256MOL    H8846498   1.088   2.521   1.249 -1.7260  0.4968 -2.6173
  256MOL    H8946499   0.788   2.429   1.224 -2.2762  3.3522 -0.1518
  256MOL    H9046500   0.872   2.561   1.133 -0.6582 -0.0301  0.8071
  256MOL    H9146501   0.910   2.390   1.111  1.1903 -0.9844  1.5449
  256MOL    C9246502   0.927   2.172   1.471 -0.6393  0.0918 -0.9710
  256MOL    C9346503   0.779   2.134   1.487 -0.0711  0.0909  0.2124
  256MOL    C9446504   0.996   2.185   1.612  0.1942 -0.2053  0.4213
  256MOL    O9546505   1.077   2.102   1.653  0.0282  0.1076  0.1602
  256MOL    O9646506   0.953   2.300   1.678 -0.0745  1.0712 -0.2615
  256MOL    H9746507   0.978   2.093   1.417  0.1900 -0.9064  1.2275
  256MOL    H9846508   0.748   2.133   1.591 -0.4816  4.9259  0.2369
  256MOL    H9946509   0.712   2.211   1.447 -1.6816 -1.5840 -0.4110
  256MOL   H10046510   0.755   2.046   1.427  0.2782 -1.5202  2.4121
  256MOL   C10146511   1.017   2.350   1.790  0.3247  0.3729  0.6926
  256MOL   C10246512   0.927   2.456   1.858 -0.6523 -0.2846 -0.7542
  256MOL   C10346513   1.151   2.409   1.748 -0.0894 -0.2858 -0.3730
  256MOL   O10446514   1.177   2.531   1.749  0.2729 -0.2647 -0.4890
  256MOL   O10546515   1.240   2.321   1.719 -0.1079  0.2126  0.1682
  256MOL   H10646516   1.040   2.269   1.860  2.5544  0.8654  0.5550
  256MOL   H10746517   0.902   2.531   1.783 -0.1222  1.7971  1.0972
  256MOL   H10846518   0.844   2.401   1.902 -0.8107  0.2126 -0.4204
  256MOL   H10946519   0.970   2.499   1.949  0.9877 -0.4002 -1.4614
  256MOL   C11046520   1.378   2.345   1.681  0.3439 -0.6368 -0.2510
  256MOL   C11146521   1.418   2.215   1.596  0.1493 -0.2778  0.0596
  256MOL   C11246522   1.475   2.359   1.795  0.2115 -0.2029 -0.0581
  256MOL   O11346523   1.544   2.459   1.810 -0.3603 -0.5993 -0.9302
  256MOL   O11446524   1.475   2.250   1.869 -0.6942 -0.0650 -0.3233
  256MOL   H11546525   1.367   2.436   1.622 -1.7401  0.7967  2.2377
  256MOL   H11646526   1.326   2.189   1.545 -0.1757  1.5696 -0.3413
  256MOL   H11746527   1.484   2.254   1.519 -1.6742  2.8631  0.0167
  256MOL   H11846528   1.458   2.127   1.646  1.6193  0.7443  0.7227
  256MOL   C11946529   1.552   2.245   1.995  0.3907 -0.4450 -0.4984
  256MOL   C12046530   1.544   2.095   2.044  0.4187 -0.2556 -0.8625
  256MOL   C12146531   1.502   2.337   2.107 -0.6877  0.0068  0.4854
  256MOL   O12246532   1.383   2.375   2.104  0.5988 -0.2105 -0.1351
  256MOL   O12346533   1.596   2.349   2.208 -0.0794  0.3853  0.5009
  256MOL   H12446534   1.653   2.275   1.964  0.4193 -1.5728 -1.5584
  256MOL   H12546535   1.643   2.071   2.083  1.8398  1.2729 -3.4561
  256MOL   H12646536   1.453   2.081   2.103  0.2150  0.5451 -0.9764
  256MOL   H12746537   1.533   2.035   1.954  0.5494 -0.5708 -0.6712
  256MOL   C12846538   1.572   2.444   2.313 -1.2607 -0.7281  0.2764
  256MOL   C12946539   1.475   2.401   2.430  0.0425  1.3425  0.4294
  256MOL   C13046540   1.535   2.584   2.261 -0.3143  0.0051  0.0348
  256MOL   O13146541   1.422   2.639   2.290 -0.4331 -0.1456 -0.5897
  256MOL   O13246542   1.623   2.621   2.173 -0.0652 -0.0254  0.0807
  256MOL   H13346543   1.666   2.454   2.368 -0.3365  0.0871 -1.4062
  256MOL   H13446544   1.512   2.326   2.501 -0.3201  0.1913 -0.5739
  256MOL   H13546545   1.427   2.482   2.485 -1.6909  0.4735  0.2374
  256MOL   H13646546   1.396   2.349   2.376 -0.1104  0.4041  1.5315
  256MOL   C13746547   1.619   2.746   2.110 -0.2983 -0.0398 -0.6727
  256MOL   C13846548   1.695   2.723   1.969  0.1796 -0.1601 -0.4675
  256MOL   C13946549   1.676   2.851   2.201  0.1572 -0.0602  0.4388
  256MOL   O14046550   1.612   2.955   2.212 -0.1546 -0.3379 -0.1960
  256MOL   O14146551   1.795   2.825   2.260  0.0315 -0.3711 -0.1418
  256MOL   H14246552   1.517   2.777   2.089  0.2907  1.2707 -1.7335
  256MOL   H14346553   1.671   2.781   1.880  2.6111 -1.0392 -1.7325
  256MOL   H14446554   1.803   2.727   1.983 -0.0247  1.0674  0.9750
  256MOL   H14546555   1.678   2.627   1.922 -2.8837 -0.2339  0.6508
  256MOL   C14646556   1.827   2.884   2.383 -0.8679 -0.2492 -0.2966
  256MOL   C14746557   1.964   2.948   2.385  0.0035 -0.6513  0.5292
  256MOL   C14846558   1.809   2.782   2.499  0.5424  0.2813  0.1816
  256MOL   O14946559   1.759   2.669   2.486 -0.0890 -0.0431  0.1510
  256MOL   O15046560   1.846   2.829   2.624 -0.3075 -0.4419 -0.5701
  256MOL   H15146561   1.756   2.960   2.415 -0.2550  0.9236 -1.6596
  256MOL   H15246562   1.993   2.983   2.484 -0.0008  0.1906  0.2385
  256MOL   H15346563   2.042   2.894   2.331  1.2177  1.1911  0.4096
  256MOL   H15446564   1.957   3.036   2.321 -1.2487 -0.7743  0.4879
  256MOL   C15546565   1.853   2.750   2.745 -0.1598 -0.0022 -0.5121
  256MOL   C15646566   1.887   2.847   2.856 -0.0286  0.0145  0.3042
  256MOL   C15746567   1.973   2.651   2.742 -0.2914 -0.4622 -0.0099
  256MOL   O15846568   1.967   2.540   2.800  0.2359 -0.0686  0.1381
  256MOL   O15946569   2.086   2.706   2.687 -0.4029 -0.1832 -0.5945
  256MOL   H16046570   1.760   2.694   2.757 -1.3515  2.1379  0.3364
  256MOL   H16146571   1.972   2.909   2.829 -0.5979  0.0294 -1.4666
  256MOL   H16246572   1.805   2.919   2.857  0.2387  0.3180  0.5751
  256MOL   H16346573   1.914   2.804   2.953 -0.7865 -0.9029  0.1141
  256MOL   C16446574   2.210   2.636   2.680  0.5141 -0.4672  0.0787
  256MOL   C16546575   2.316   2.732   2.634 -0.3277  1.0844  0.2761
  256MOL   C16646576   2.197   2.516   2.593 -0.6188  0.5579  0.3785
  256MOL   O16746577   2.239   2.417   2.644 -0.0355  0.1964 -0.8787
  256MOL   O16846578   2.152   2.540   2.466 -0.5889 -0.0686 -0.6624
  256MOL   H16946579   2.242   2.595   2.776 -1.8333 -4.2085 -0.6458
  256MOL   H17046580   2.286   2.812   2.567 -0.2738  1.8901  1.1987
  256MOL   H17146581   2.349   2.774   2.729 -2.6232  2.2832  0.5784
  256MOL   H17246582   2.400   2.681   2.588 -0.8336  0.2781  0.2387
  256MOL   C17346583   2.126   2.446   2.366 -0.4689  0.6633 -0.3564
  256MOL   C17446584   1.994   2.373   2.403 -0.0556  0.6513  0.1001
  256MOL   C17546585   2.245   2.354   2.333  0.2749 -0.4035 -0.3818
  256MOL   O17646586   2.236   2.232   2.333 -0.0965 -0.3337 -0.5263
  256MOL   O17746587   2.359   2.428   2.306  0.2593  0.2019  0.2486
  256MOL   H17846588   2.109   2.508   2.278  0.2191  1.2143 -0.1027
  256MOL   H17946589   2.006   2.282   2.461  3.3661  0.6600 -0.4882
  256MOL   H18046590   1.926   2.439   2.456 -0.2438  0.4539  0.1053
  256MOL   H18146591   1.942   2.334   2.315  0.6992  0.9997 -0.5158
  256MOL   H18246592   2.422   2.361   2.284 -0.5213 -0.7991  1.0108
  257MOL     C146593   2.078   2.394   6.061 -0.1074 -0.8194  0.4795
  257MOL     C246594   2.113   2.259   6.008  0.5257 -0.1926 -1.3709
  257MOL     C346595   1.948   2.389   6.130 -0.0094  0.1542  0.3658
  257MOL     O446596   1.942   2.343   6.244 -0.4656 -0.6849 -0.6426
  257MOL     O546597   1.850   2.424   6.047  0.6585 -0.0579 -0.5493
  257MOL     H646598   2.155   2.418   6.134  0.3612  1.3200 -0.6737
  257MOL     H746599   2.100   2.181   6.082  0.0630  1.1818  0.0237
  257MOL     H846600   2.051   2.232   5.923 -0.3213 -1.4198 -0.3723
  257MOL     H946601   2.217   2.264   5.976  1.2465  1.7326  1.0887
  257MOL    H1046602   2.082   2.467   5.980  2.1918  0.0873  1.3783
  257MOL    C1146603   1.714   2.406   6.087 -0.6901  0.0589 -0.5769
  257MOL    C1246604   1.625   2.393   5.956  0.2865 -0.7174 -0.1730
  257MOL    C1346605   1.671   2.525   6.173 -0.1416 -0.3613 -0.7997
  257MOL    O1446606   1.637   2.503   6.286  0.7613  0.0683 -0.3111
  257MOL    O1546607   1.692   2.646   6.114  0.5951  0.6087  0.5819
  257MOL    H1646608   1.706   2.316   6.148 -0.4069  0.6629  0.3566
  257MOL    H1746609   1.633   2.474   5.883  0.1710  0.0474  0.6488
  257MOL    H1846610   1.653   2.300   5.906  2.3866 -1.3958  2.1442
  257MOL    H1946611   1.516   2.394   5.966  0.3570 -1.6037  0.7103
  257MOL    C2046612   1.650   2.771   6.173 -1.0728 -0.3461  0.3127
  257MOL    C2146613   1.686   2.875   6.066 -0.4170  0.3330  0.5601
  257MOL    C2246614   1.715   2.801   6.309 -0.7290 -0.5929 -0.4571
  257MOL    O2346615   1.647   2.832   6.404  0.1881  0.2924 -0.0360
  257MOL    O2446616   1.852   2.807   6.304  0.5342 -0.0166  0.4968
  257MOL    H2546617   1.542   2.767   6.185 -0.9833  0.1981  1.3451
  257MOL    H2646618   1.785   2.856   6.024 -0.5010  0.9534  0.0641
  257MOL    H2746619   1.620   2.866   5.980 -0.5273  1.1345  0.5559
  257MOL    H2846620   1.683   2.975   6.108 -0.0735  0.5186  0.1481
  257MOL    C2946621   1.932   2.825   6.419 -0.9555 -0.3957 -0.4647
  257MOL    C3046622   2.074   2.854   6.373 -0.4887 -0.1838 -0.2590
  257MOL    C3146623   1.922   2.703   6.515  0.0896 -0.2650  0.4200
  257MOL    O3246624   2.003   2.616   6.516  0.2354  0.8876 -0.0073
  257MOL    O3346625   1.812   2.705   6.603  0.2738  0.1704  0.4808
  257MOL    H3446626   1.892   2.910   6.473 -1.0964 -1.2056  0.7215
  257MOL    H3546627   2.132   2.887   6.459  0.0174 -2.0639  0.1405
  257MOL    H3646628   2.116   2.771   6.317  0.7334  0.3020 -0.0779
  257MOL    H3746629   2.076   2.936   6.301 -0.8030  0.7702  0.8019
  257MOL    C3846630   1.806   2.598   6.697  0.1087  0.0944 -0.1459
  257MOL    C3946631   1.676   2.526   6.667  0.0822  0.4351  0.0396
  257MOL    C4046632   1.822   2.659   6.841 -0.4403 -0.0454 -1.1991
  257MOL    O4146633   1.825   2.780   6.871 -0.0553 -0.1210  0.4166
  257MOL    O4246634   1.825   2.555   6.930  0.2054 -0.0579  0.3893
  257MOL    H4346635   1.882   2.522   6.677 -0.0784  0.0682 -0.7863
  257MOL    H4446636   1.646   2.526   6.562 -1.6796  0.9035  0.5166
  257MOL    H4546637   1.667   2.421   6.698 -4.4666  0.4194 -0.9183
  257MOL    H4646638   1.591   2.583   6.704  1.3303  1.8322  0.8045
  257MOL    C4746639   1.821   2.575   7.072 -1.1599  0.2951 -0.4271
  257MOL    C4846640   1.874   2.441   7.121 -0.3064  0.3369  0.4018
  257MOL    C4946641   1.677   2.606   7.129 -0.1450 -0.7813 -0.5610
  257MOL    O5046642   1.660   2.648   7.248  0.1348  0.3069 -0.9033
  257MOL    O5146643   1.586   2.577   7.040 -0.3133 -0.2171 -0.1741
  257MOL    H5246644   1.878   2.657   7.116 -2.4819 -0.5608  2.9997
  257MOL    H5346645   1.800   2.362   7.131 -2.0255  2.1005  2.0550
  257MOL    H5446646   1.948   2.405   7.050 -0.8668  1.3796 -0.7269
  257MOL    H5546647   1.924   2.460   7.216  0.5141 -0.3975  0.1206
  257MOL    C5646648   1.445   2.592   7.080  0.1777  0.1406 -0.4402
  257MOL    C5746649   1.358   2.539   6.971  0.2039  0.1359  0.2039
  257MOL    C5846650   1.406   2.741   7.114 -0.5026  0.7114 -1.1072
  257MOL    O5946651   1.429   2.828   7.032  0.1952  0.3617  0.5580
  257MOL    O6046652   1.336   2.765   7.231  0.5290  0.6750  0.1794
  257MOL    H6146653   1.425   2.531   7.168 -1.5894  1.8331  0.3562
  257MOL    H6246654   1.385   2.602   6.887  1.1811  1.5534  1.5581
  257MOL    H6346655   1.386   2.437   6.944 -1.4406 -0.4615  0.6927
  257MOL    H6446656   1.256   2.535   7.010  0.2870  0.0319  0.4151
  257MOL    C6546657   1.293   2.895   7.267  0.6148  0.8204  0.0158
  257MOL    C6646658   1.365   2.946   7.393  0.0729  0.0606  0.6899
  257MOL    C6746659   1.142   2.901   7.270 -0.6200 -0.1034 -0.4060
  257MOL    O6846660   1.091   2.947   7.370  0.5199  0.1024  0.0752
  257MOL    O6946661   1.084   2.841   7.174  0.2299  0.7007 -0.2645
  257MOL    H7046662   1.316   2.964   7.186  0.6615 -0.8419 -1.3947
  257MOL    H7146663   1.344   3.051   7.411  0.0029 -0.0379  1.2036
  257MOL    H7246664   1.328   2.892   7.481 -1.3985  0.2848  0.2141
  257MOL    H7346665   1.473   2.933   7.382  0.2923  0.7055  2.0016
  257MOL    C7446666   0.944   2.836   7.171 -0.2986 -0.6593  0.3291
  257MOL    C7546667   0.924   2.712   7.084  0.9833 -0.1577  0.0454
  257MOL    C7646668   0.872   2.954   7.102  0.0592 -1.1457  0.6134
  257MOL    O7746669   0.944   3.030   7.042  0.3388  0.4065 -0.5014
  257MOL    O7846670   0.737   2.959   7.113  0.2388  0.1213 -0.5028
  257MOL    H7946671   0.893   2.829   7.267 -3.1212  0.0972 -1.0440
  257MOL    H8046672   0.969   2.720   6.985  0.8343 -1.0313 -0.0968
  257MOL    H8146673   0.968   2.626   7.136  0.8002 -0.7391 -0.7488
  257MOL    H8246674   0.824   2.680   7.056  1.6553 -0.4829 -2.0457
  257MOL    C8346675   0.661   3.058   7.039  0.4531  0.4749  0.1911
  257MOL    C8446676   0.544   3.095   7.131 -0.2456 -0.5652 -0.0679
  257MOL    C8546677   0.618   2.997   6.900 -0.7842  0.2692  0.1371
  257MOL    O8646678   0.656   2.884   6.873  0.0334 -0.6288 -0.3576
  257MOL    O8746679   0.539   3.083   6.825  0.3132 -0.2621  0.0322
  257MOL    H8846680   0.724   3.143   7.012  1.3087 -0.5507 -1.1082
  257MOL    H8946681   0.479   3.170   7.085 -1.1693 -0.3705  1.5078
  257MOL    H9046682   0.486   3.007   7.160 -1.2290 -0.1762 -0.8133
  257MOL    H9146683   0.574   3.143   7.225 -2.5335 -1.5243  1.1967
  257MOL    C9246684   0.493   3.044   6.695  0.3124  0.5141  0.3055
  257MOL    C9346685   0.421   3.166   6.640  0.4611 -0.2407  0.3802
  257MOL    C9446686   0.405   2.912   6.696 -0.3154  0.3361  0.4174
  257MOL    O9546687   0.341   2.889   6.799  0.4943  0.4898  0.1860
  257MOL    O9646688   0.414   2.834   6.587  0.8337  0.0480  0.1607
  257MOL    H9746689   0.582   3.021   6.636  0.0846 -1.1798  0.5965
  257MOL    H9846690   0.482   3.256   6.647 -1.7195  1.2330  1.2032
  257MOL    H9946691   0.408   3.159   6.532  0.0679 -1.6066  0.4989
  257MOL   H10046692   0.325   3.188   6.688  0.8412 -2.1093  2.0796
  257MOL   C10146693   0.337   2.717   6.574 -0.6060 -0.4108 -0.3610
  257MOL   C10246694   0.396   2.638   6.456 -0.4712 -0.6828  0.1938
  257MOL   C10346695   0.187   2.752   6.544  0.5995 -0.3507 -0.7616
  257MOL   O10446696   0.099   2.694   6.604  0.3149  0.0995 -0.0664
  257MOL   O10546697   0.184   2.854   6.450 -0.0850  0.1861  0.4124
  257MOL   H10646698   0.346   2.657   6.665 -0.8340  2.3866  1.5625
  257MOL   H10746699   0.444   2.705   6.384  0.9631  0.6252  2.3192
  257MOL   H10846700   0.479   2.579   6.495 -0.6588  0.0131  1.6755
  257MOL   H10946701   0.332   2.568   6.403 -1.4865  1.7038 -1.8615
  257MOL   C11046702   0.069   2.932   6.417  0.2078  0.5878  1.0412
  257MOL   C11146703   0.071   3.043   6.530 -0.3777  0.3504 -0.8607
  257MOL   C11246704   8.087   2.856   6.391  0.0009  0.7946  0.0137
  257MOL   O11346705   7.979   2.913   6.399  0.0835  0.2697  0.1877
  257MOL   O11446706   8.100   2.722   6.345  0.1466 -0.4745 -0.1380
  257MOL   H11546707   0.085   2.989   6.326 -0.6070 -1.1103 -0.1963
  257MOL   H11646708   8.134   3.109   6.513 -0.1338  0.4630 -1.6496
  257MOL   H11746709   0.053   2.991   6.624  0.6959 -0.2506 -0.9801
  257MOL   H11846710   0.171   3.085   6.539 -0.4330 -0.0173  1.8610
  257MOL   C11946711   8.003   2.626   6.357 -0.0606  0.3552  0.5230
  257MOL   C12046712   8.061   2.492   6.411  0.2077 -0.3316  0.1428
  257MOL   C12146713   7.918   2.610   6.225  0.3244 -1.1333  0.0082
  257MOL   O12246714   7.863   2.505   6.207  0.2161  0.8218  0.0113
  257MOL   O12346715   7.910   2.720   6.144 -0.0955 -0.4464 -0.5437
  257MOL   H12446716   7.935   2.653   6.439 -0.5373  0.7349  0.0065
  257MOL   H12546717   8.119   2.508   6.502 -2.2326 -0.7684  1.8464
  257MOL   H12646718   7.976   2.425   6.429 -1.8682  2.2013 -0.0643
  257MOL   H12746719   8.128   2.453   6.335 -0.7806 -1.9654  0.0716
  257MOL   C12846720   7.828   2.711   6.034 -0.4448 -0.1312 -0.6047
  257MOL   C12946721   7.904   2.624   5.928 -0.1415  0.1816  0.2174
  257MOL   C13046722   7.792   2.851   5.989  0.3672 -0.3071  0.3146
  257MOL   O13146723   7.675   2.885   5.960 -0.5033 -0.3664  0.2215
  257MOL   O13246724   7.900   2.929   5.981 -0.5267  0.0173  0.1293
  257MOL   H13346725   7.736   2.661   6.065 -0.2329 -0.4097 -0.4326
  257MOL   H13446726   8.011   2.644   5.923 -0.1671  0.4491  0.6188
  257MOL   H13546727   7.895   2.517   5.942 -0.4572  0.3110  1.0252
  257MOL   H13646728   7.856   2.632   5.831  2.1389 -0.3283 -0.9779
  257MOL   C13746729   7.885   3.064   5.966  0.3957  0.0791 -0.4158
  257MOL   C13846730   7.997   3.113   5.873 -0.3491 -0.2430  0.3879
  257MOL   C13946731   7.882   3.124   6.106 -0.4961 -0.2557  0.3591
  257MOL   O14046732   7.980   3.177   6.158  0.1505  0.1581 -0.4677
  257MOL   O14146733   7.766   3.101   6.160  0.3757 -0.4034 -0.3873
  257MOL   H14246734   7.789   3.099   5.928  0.7516  0.3759 -1.0543
  257MOL   H14346735   8.100   3.117   5.908 -0.0628  0.7571 -0.5655
  257MOL   H14446736   7.993   3.050   5.784  1.6944  0.7836 -0.4390
  257MOL   H14546737   7.979   3.208   5.823  1.1353 -0.7480 -1.1138
  257MOL   C14646738   7.745   3.126   6.300 -0.2150  1.0451  0.0742
  257MOL   C14746739   7.648   3.031   6.367 -0.0338  0.1990 -0.2700
  257MOL   C14846740   7.698   3.269   6.326  0.4197 -0.6318 -0.3348
  257MOL   O14946741   7.647   3.337   6.241 -0.0803  0.9349 -0.4523
  257MOL   O15046742   7.695   3.308   6.456  0.1121 -0.3305 -0.3119
  257MOL   H15146743   7.834   3.124   6.363  0.4957  0.4251 -0.9296
  257MOL   H15246744   7.634   3.035   6.475  0.1252  2.2291 -0.3151
  257MOL   H15346745   7.546   3.028   6.329 -0.3248 -0.5202  0.5486
  257MOL   H15446746   7.688   2.931   6.350  0.9287  0.6440 -0.6553
  257MOL   C15546747   7.629   3.421   6.503  0.5292 -0.6728 -0.2424
  257MOL   C15646748   7.715   3.476   6.622  0.0679  0.9286 -0.2453
  257MOL   C15746749   7.487   3.377   6.545 -0.2306  0.4044 -0.0637
  257MOL   O15846750   7.385   3.430   6.501 -0.1766  0.3248  0.0198
  257MOL   O15946751   7.482   3.274   6.635 -0.7507 -0.0327 -0.0317
  257MOL   H16046752   7.622   3.500   6.428 -0.9258 -0.6207 -0.0829
  257MOL   H16146753   7.817   3.511   6.607  0.0005  1.8586  1.3089
  257MOL   H16246754   7.657   3.562   6.659 -0.0479  1.9198 -2.6471
  257MOL   H16346755   7.714   3.404   6.703  1.2584  1.2001  0.0107
  257MOL   C16446756   7.358   3.228   6.695 -0.5124  0.4022  0.4755
  257MOL   C16546757   7.398   3.235   6.838 -0.0400 -0.5708 -1.0650
  257MOL   C16646758   7.332   3.086   6.640  0.0477 -0.0043  0.2281
  257MOL   O16746759   7.389   3.043   6.541  0.4557 -0.0045 -0.3886
  257MOL   O16846760   7.256   3.009   6.730  0.3012  0.1859 -0.2102
  257MOL   H16946761   7.283   3.305   6.675 -1.1496 -0.3276  0.0217
  257MOL   H17046762   7.497   3.190   6.850 -0.5806 -1.4414  0.1668
  257MOL   H17146763   7.394   3.340   6.866 -2.1494 -0.5821 -1.2848
  257MOL   H17246764   7.324   3.189   6.904 -0.0913  0.8537 -0.1144
  257MOL   C17346765   7.267   2.863   6.730  0.4983  0.7028  0.0501
  257MOL   C17446766   7.182   2.801   6.841 -0.0066  0.0326  0.2882
  257MOL   C17546767   7.409   2.811   6.746  0.1357 -0.1287  0.8317
  257MOL   O17646768   7.464   2.733   6.671 -0.8029 -0.1375 -0.3693
  257MOL   O17746769   7.478   2.853   6.858  0.1264  0.4424 -0.3218
  257MOL   H17846770   7.231   2.829   6.633  0.2272 -1.6232  0.9381
  257MOL   H17946771   7.164   2.694   6.829  0.3837  0.1496 -1.3920
  257MOL   H18046772   7.224   2.825   6.939  2.6409  1.3895 -1.1347
  257MOL   H18146773   7.080   2.838   6.831  0.3992  1.1752  0.2640
  257MOL   H18246774   7.564   2.814   6.865  0.2154  0.6214 -0.4223
  258MOL     C146775   5.888   3.983   0.985 -0.3749 -1.2180 -0.5473
  258MOL     C246776   5.834   4.011   1.126 -0.4207  0.2855 -0.0686
  258MOL     C346777   5.979   3.854   0.961 -0.2135 -0.1791 -1.1652
  258MOL     O446778   6.093   3.856   0.916 -0.0902 -0.4521 -0.1729
  258MOL     O546779   5.902   3.744   0.982  0.1647 -0.1374 -0.3304
  258MOL     H646780   5.796   3.969   0.927 -2.6672 -1.5936  3.0547
  258MOL     H746781   5.914   4.005   1.200  0.0596 -1.3505 -0.6972
  258MOL     H846782   5.785   4.107   1.140 -0.6246  0.0529  0.8021
  258MOL     H946783   5.752   3.946   1.156 -0.4882  0.4495  0.1036
  258MOL    H1046784   5.933   4.078   0.957  2.2510 -1.9396  1.1148
  258MOL    C1146785   5.963   3.609   0.987 -0.3255  0.2300  0.1785
  258MOL    C1246786   5.874   3.500   0.927 -0.1221 -0.0372  0.4362
  258MOL    C1346787   5.995   3.580   1.136 -0.4441  0.0152  0.0601
  258MOL    O1446788   6.112   3.596   1.178 -0.0963  0.7116  0.4536
  258MOL    O1546789   5.893   3.532   1.203 -0.2695 -0.4705 -0.5085
  258MOL    H1646790   6.051   3.610   0.922  0.4475 -0.1312  1.1850
  258MOL    H1746791   5.928   3.406   0.911 -2.2272 -1.0673 -0.9282
  258MOL    H1846792   5.780   3.487   0.980 -0.1220 -2.2491 -0.0474
  258MOL    H1946793   5.840   3.537   0.830  1.4130  0.0866 -0.0741
  258MOL    C2046794   5.908   3.512   1.344 -0.4268 -0.3189 -0.6973
  258MOL    C2146795   5.778   3.446   1.384  0.1166 -0.2245 -0.4631
  258MOL    C2246796   5.929   3.657   1.411  0.0118 -0.1517 -0.0951
  258MOL    O2346797   5.884   3.756   1.360  0.2108 -0.0095 -0.1253
  258MOL    O2446798   5.979   3.636   1.535  0.1249 -0.2312 -0.1309
  258MOL    H2546799   5.989   3.446   1.375 -0.9790  0.1804  1.9410
  258MOL    H2646800   5.757   3.362   1.318 -0.9470 -1.1234  0.9954
  258MOL    H2746801   5.783   3.395   1.480  0.3086  0.1616 -0.2676
  258MOL    H2846802   5.693   3.515   1.384 -0.2697 -0.6207  2.9150
  258MOL    C2946803   5.964   3.746   1.623 -0.7461  0.1171  0.0776
  258MOL    C3046804   6.091   3.738   1.713  0.3783  1.0010  0.2986
  258MOL    C3146805   5.834   3.750   1.706  0.5624 -0.4569 -0.3215
  258MOL    O3246806   5.793   3.843   1.773 -0.4452  0.2559 -0.5976
  258MOL    O3346807   5.765   3.632   1.699  0.3099 -0.1813  0.0193
  258MOL    H3446808   5.962   3.843   1.574 -0.9268 -1.3084 -2.8623
  258MOL    H3546809   6.178   3.711   1.654 -1.9876 -1.1368 -2.3580
  258MOL    H3646810   6.116   3.834   1.760 -0.5929  0.8424  1.1810
  258MOL    H3746811   6.066   3.672   1.796  0.6767 -0.6394 -0.9099
  258MOL    C3846812   5.632   3.614   1.747 -0.3624  0.8890  0.2410
  258MOL    C3946813   5.592   3.475   1.680 -0.2979  0.3240 -0.1558
  258MOL    C4046814   5.536   3.729   1.698 -0.8904 -0.3856  0.0418
  258MOL    O4146815   5.464   3.787   1.776  0.1392 -0.7258 -0.9370
  258MOL    O4246816   5.549   3.758   1.567 -0.1720 -0.3436 -0.5031
  258MOL    H4346817   5.637   3.618   1.856  0.5190 -0.1910  0.2448
  258MOL    H4446818   5.670   3.400   1.691  1.5051  2.3236  1.4283
  258MOL    H4546819   5.501   3.431   1.720  0.2150 -1.4590 -0.9417
  258MOL    H4646820   5.574   3.487   1.573  0.4595 -2.1656 -0.5899
  258MOL    C4746821   5.482   3.873   1.513 -0.9481 -0.1464 -0.1754
  258MOL    C4846822   5.468   3.863   1.360 -0.4033 -0.4118 -1.0234
  258MOL    C4946823   5.557   4.000   1.557 -0.1069  0.2362 -1.2332
  258MOL    O5046824   5.509   4.076   1.638 -0.1322 -0.5321  0.5865
  258MOL    O5146825   5.677   4.005   1.498  0.8013  0.2948 -0.4502
  258MOL    H5246826   5.379   3.869   1.549 -1.6509  0.9519 -1.9411
  258MOL    H5346827   5.414   3.775   1.325 -0.7889  0.5972 -3.0804
  258MOL    H5446828   5.427   3.956   1.321  0.5637 -0.0641 -1.2167
  258MOL    H5546829   5.567   3.846   1.318 -0.9301 -1.5233 -1.8458
  258MOL    C5646830   5.749   4.129   1.498  0.3248 -0.0647  0.2441
  258MOL    C5746831   5.830   4.145   1.636 -0.1151 -0.3519 -0.3150
  258MOL    C5846832   5.672   4.249   1.443  0.3122  0.4407  0.2947
  258MOL    O5946833   5.678   4.356   1.503 -0.1740 -0.3786  0.0108
  258MOL    O6046834   5.599   4.219   1.332 -0.0100  0.3895  0.7518
  258MOL    H6146835   5.818   4.113   1.416 -0.4654 -0.4089 -0.3569
  258MOL    H6246836   5.869   4.244   1.661 -2.1994  0.4208  0.0087
  258MOL    H6346837   5.759   4.111   1.712 -0.7555 -0.9596 -1.1651
  258MOL    H6446838   5.909   4.070   1.636  1.2854  1.0956  0.1212
  258MOL    C6546839   5.509   4.322   1.282  0.1687  0.0572  0.5896
  258MOL    C6646840   5.403   4.257   1.197 -0.5502 -0.0792  0.1482
  258MOL    C6746841   5.581   4.434   1.196  0.0069 -0.4436 -0.2882
  258MOL    O6846842   5.539   4.548   1.188  0.2498  0.6734  0.5276
  258MOL    O6946843   5.673   4.376   1.119  0.5171 -0.4092 -0.2353
  258MOL    H7046844   5.458   4.368   1.367  0.7420 -1.0857  1.5754
  258MOL    H7146845   5.351   4.188   1.263 -1.3678 -0.5380 -0.9681
  258MOL    H7246846   5.337   4.330   1.150 -1.1380 -0.4022  0.4720
  258MOL    H7346847   5.450   4.198   1.119 -0.9357  1.5180 -1.3268
  258MOL    C7446848   5.753   4.446   1.022 -0.1023  0.4390 -0.7669
  258MOL    C7546849   5.827   4.350   0.918  0.2763 -0.1931 -0.7336
  258MOL    C7646850   5.840   4.552   1.091  0.7219  0.4213  0.6936
  258MOL    O7746851   5.866   4.657   1.031 -0.0397  0.1246  0.0836
  258MOL    O7846852   5.898   4.512   1.215  0.2620 -0.0298  0.9616
  258MOL    H7946853   5.686   4.498   0.953 -0.4623 -0.2554 -0.9471
  258MOL    H8046854   5.888   4.408   0.848 -1.0957  2.5412  0.2679
  258MOL    H8146855   5.894   4.285   0.974 -0.3413  0.6489  0.9916
  258MOL    H8246856   5.757   4.284   0.866 -0.3127  0.8401 -1.2690
  258MOL    C8346857   5.972   4.603   1.296  0.1194 -0.3771  0.1949
  258MOL    C8446858   6.021   4.532   1.423  0.7951 -0.0603  0.4598
  258MOL    C8546859   5.895   4.731   1.329  0.4471  0.0609 -0.2195
  258MOL    O8646860   5.951   4.841   1.349  0.1236 -0.6935  0.4603
  258MOL    O8746861   5.756   4.711   1.345 -0.2244 -0.3730 -0.3970
  258MOL    H8846862   6.066   4.623   1.245  0.4362 -0.6377  0.6689
  258MOL    H8946863   6.074   4.597   1.492  0.8011  0.3462  0.0719
  258MOL    H9046864   5.938   4.473   1.462  0.0530 -2.1573 -3.9431
  258MOL    H9146865   6.088   4.449   1.398 -1.5894 -1.6813 -0.8231
  258MOL    C9246866   5.673   4.826   1.364  0.6642 -0.0977 -0.1128
  258MOL    C9346867   5.552   4.777   1.433 -0.2834  0.0080 -0.8685
  258MOL    C9446868   5.637   4.889   1.227 -0.3386 -0.3167 -0.5472
  258MOL    O9546869   5.646   5.013   1.215 -0.1487  0.1161  0.2050
  258MOL    O9646870   5.600   4.805   1.131 -0.1994  0.4093  0.5295
  258MOL    H9746871   5.727   4.900   1.423  1.5095  2.3331 -3.7890
  258MOL    H9846872   5.484   4.861   1.444 -0.4914 -0.5311  2.2641
  258MOL    H9946873   5.509   4.683   1.399  0.2103 -1.6196  2.8322
  258MOL   H10046874   5.578   4.754   1.536  0.9909 -0.2658 -1.2379
  258MOL   C10146875   5.530   4.851   1.010  0.1211  0.7081  0.7173
  258MOL   C10246876   5.452   4.733   0.954 -0.3563  0.1206 -0.0937
  258MOL   C10346877   5.628   4.913   0.900  0.2480 -0.2745 -0.0591
  258MOL   O10446878   5.728   4.857   0.852  0.1438  0.0322 -0.5649
  258MOL   O10546879   5.594   5.045   0.874 -0.2147  0.8707  0.1617
  258MOL   H10646880   5.453   4.925   1.034 -0.8067 -0.2703  0.8189
  258MOL   H10746881   5.361   4.723   1.014 -0.5457  1.4046 -0.1419
  258MOL   H10846882   5.423   4.740   0.849 -0.8659 -2.9395 -0.1987
  258MOL   H10946883   5.504   4.638   0.962  1.1394  0.8382 -1.2175
  258MOL   C11046884   5.678   5.123   0.793  0.3503 -0.0441  0.2838
  258MOL   C11146885   5.682   5.263   0.863 -0.2974 -0.5044  0.2621
  258MOL   C11246886   5.615   5.127   0.651  0.8103 -0.0071  1.0300
  258MOL   O11346887   5.557   5.024   0.609  0.2889 -0.2931 -0.5464
  258MOL   O11446888   5.625   5.245   0.587  0.1398 -0.0238 -0.4662
  258MOL   H11546889   5.780   5.085   0.784 -0.0590 -1.1447  0.2407
  258MOL   H11646890   5.717   5.258   0.965  0.0051 -0.1111  0.1802
  258MOL   H11746891   5.746   5.332   0.806 -1.1294  0.8514  0.9429
  258MOL   H11846892   5.588   5.316   0.881 -0.6326 -1.3534  1.0304
  258MOL   C11946893   5.548   5.281   0.477  0.5794  0.0816  0.2436
  258MOL   C12046894   5.615   5.404   0.405  0.3498  0.3093 -0.2177
  258MOL   C12146895   5.404   5.303   0.520 -0.5945  0.0984  0.3794
  258MOL   O12246896   5.366   5.294   0.638  0.0992  0.1211 -0.0200
  258MOL   O12346897   5.325   5.329   0.418  0.3938  0.7209  0.2519
  258MOL   H12446898   5.540   5.193   0.413 -1.0707  0.5645 -0.2413
  258MOL   H12546899   5.596   5.402   0.298 -0.0582 -1.0319 -0.1314
  258MOL   H12646900   5.587   5.501   0.446  0.1110  1.6602 -3.4736
  258MOL   H12746901   5.722   5.403   0.425  0.1098 -0.3326  1.0703
  258MOL   C12846902   5.200   5.385   0.437  0.3976 -0.2444 -0.7034
  258MOL   C12946903   5.097   5.363   0.317 -0.0590  0.8972  0.0928
  258MOL   C13046904   5.216   5.529   0.471  0.3482 -0.1836 -0.1209
  258MOL   O13146905   5.319   5.589   0.432 -0.2267  0.1252 -0.2377
  258MOL   O13246906   5.119   5.572   0.557 -0.0437 -0.2216  0.2552
  258MOL   H13346907   5.148   5.337   0.520 -0.8490 -1.2868 -2.0629
  258MOL   H13446908   4.998   5.401   0.341  0.3316  2.7672 -1.1492
  258MOL   H13546909   5.129   5.418   0.229  0.1913  0.6630  0.0354
  258MOL   H13646910   5.079   5.257   0.300 -2.5932  1.1649  0.8361
  258MOL   C13746911   5.113   5.708   0.593 -0.5295  0.2185  0.5682
  258MOL   C13846912   5.034   5.720   0.727  0.6437 -0.1710  0.2108
  258MOL   C13946913   5.045   5.780   0.475 -0.5004  0.7712 -0.3588
  258MOL   O14046914   5.094   5.877   0.414  0.7239 -0.1960 -0.3544
  258MOL   O14146915   4.928   5.718   0.442  0.0007 -0.1780  0.1635
  258MOL   H14246916   5.211   5.752   0.609 -0.2392  0.2413 -1.2064
  258MOL   H14346917   4.929   5.747   0.717  1.1090  0.9009 -2.3212
  258MOL   H14446918   5.046   5.630   0.787  0.5910 -0.3869 -0.1006
  258MOL   H14546919   5.082   5.805   0.776 -0.0622  0.0772  0.4810
  258MOL   C14646920   4.852   5.767   0.336 -0.0969  0.1614  0.8932
  258MOL   C14746921   4.716   5.710   0.340  0.3876 -0.2951  0.1209
  258MOL   C14846922   4.907   5.752   0.192  0.3845  0.8746  0.0353
  258MOL   O14946923   5.007   5.685   0.175  0.3701 -0.5337  0.0954
  258MOL   O15046924   4.836   5.817   0.092  0.0755  0.4203  0.2163
  258MOL   H15146925   4.839   5.874   0.356  0.2626 -0.2546  3.5693
  258MOL   H15246926   4.721   5.603   0.320 -2.8091 -0.0223 -2.4423
  258MOL   H15346927   4.667   5.733   0.435 -1.8033 -0.1031 -1.0363
  258MOL   H15446928   4.649   5.746   0.262 -0.7567  0.3816  1.3983
  258MOL   C15546929   4.837   5.787   8.102 -0.1615  0.4269  0.1903
  258MOL   C15646930   4.707   5.856   8.045  0.0959 -0.2503  0.1130
  258MOL   C15746931   4.841   5.636   8.073 -0.2276  0.1868  0.1222
  258MOL   O15846932   4.906   5.585   7.983  0.2388  0.1090  0.6101
  258MOL   O15946933   4.754   5.566   0.000 -0.0809  0.0906 -0.8689
  258MOL   H16046934   4.931   5.817   8.057  1.0232 -1.6952  1.1366
  258MOL   H16146935   4.720   5.920   7.958 -1.5629  0.0433  0.0610
  258MOL   H16246936   4.642   5.782   7.999 -2.3182  1.9740 -0.1578
  258MOL   H16346937   4.651   5.908   8.123  0.4571 -1.0229  0.8979
  258MOL   C16446938   4.721   5.427   8.114  0.6555 -0.1614 -0.8829
  258MOL   C16546939   4.586   5.384   0.032  0.3186 -0.1693  0.1188
  258MOL   C16646940   4.834   5.338   0.014 -0.5000 -0.1221 -0.0660
  258MOL   O16746941   4.861   5.335   0.135  0.1664 -0.6966 -0.2943
  258MOL   O16846942   4.887   5.261   8.064 -0.2366  0.0464  0.4250
  258MOL   H16946943   4.700   5.416   8.008  0.3146  0.2071 -0.8576
  258MOL   H17046944   4.500   5.442   8.147 -0.6430 -0.5528  1.8871
  258MOL   H17146945   4.569   5.278   0.010 -3.2831  0.4410 -0.4595
  258MOL   H17246946   4.589   5.394   0.141  0.5323 -2.6189  0.3783
  258MOL   C17346947   4.993   5.165   8.083  0.4523  0.6552 -0.6016
  258MOL   C17446948   5.099   5.183   7.981  0.4595 -0.7018 -1.0144
  258MOL   C17546949   4.937   5.024   8.073  0.0137  1.1451 -0.2724
  258MOL   O17646950   4.954   4.934   0.005  0.3783  0.0204  0.4685
  258MOL   O17746951   4.861   5.001   7.967 -0.0154 -0.1863 -0.2375
  258MOL   H17846952   5.037   5.176   0.035  1.7347 -3.3259 -0.6316
  258MOL   H17946953   5.052   5.221   7.890  0.4359  0.4682 -0.5212
  258MOL   H18046954   5.167   5.263   8.012 -0.0706 -0.8983  0.7000
  258MOL   H18146955   5.163   5.096   7.968 -0.4468 -1.5386  0.0664
  258MOL   H18246956   4.834   4.911   7.972 -0.7552  0.0199 -0.4415
  259MOL     C146957   6.112   3.758   3.382  1.1188  0.2957  0.1324
  259MOL     C246958   6.241   3.823   3.437  0.5009 -0.2852 -0.0339
  259MOL     C346959   5.994   3.853   3.366  0.4693 -0.2719  0.4070
  259MOL     O446960   6.005   3.968   3.408 -0.5195  0.1709 -0.3763
  259MOL     O546961   5.884   3.795   3.331  0.2726 -0.7306 -0.5814
  259MOL     H646962   6.144   3.730   3.282  4.4881 -0.5919  1.3645
  259MOL     H746963   6.206   3.880   3.523 -0.3703 -0.6965 -0.1120
  259MOL     H846964   6.302   3.742   3.477 -1.4749 -0.9219  1.8117
  259MOL     H946965   6.287   3.882   3.358  3.4765  1.6676  2.9987
  259MOL    H1046966   6.089   3.673   3.447 -0.3186 -0.4923 -1.3709
  259MOL    C1146967   5.774   3.868   3.286 -0.4089 -0.3077  1.0129
  259MOL    C1246968   5.654   3.771   3.276  0.5308 -0.5731  0.2715
  259MOL    C1346969   5.798   3.940   3.157 -0.3022  0.2305 -0.1956
  259MOL    O1446970   5.739   4.038   3.121  0.4960 -0.2931 -0.3819
  259MOL    O1546971   5.871   3.868   3.072 -0.1497  0.0239 -0.6058
  259MOL    H1646972   5.741   3.942   3.359  0.0283 -0.1669  1.0695
  259MOL    H1746973   5.624   3.714   3.364 -0.2653 -2.8675 -1.4390
  259MOL    H1846974   5.555   3.814   3.259  0.7314 -0.1624  0.1418
  259MOL    H1946975   5.677   3.697   3.199  1.3060  1.0905 -1.1181
  259MOL    C2046976   5.893   3.893   2.930 -0.2789  0.8501 -0.6214
  259MOL    C2146977   5.962   3.773   2.863 -0.3589  0.2555  1.0043
  259MOL    C2246978   5.951   4.035   2.898 -0.1237  0.8779  0.2019
  259MOL    O2346979   5.885   4.117   2.835 -0.1618  1.0815  0.4213
  259MOL    O2446980   6.077   4.048   2.933  0.2766  0.0215  0.3171
  259MOL    H2546981   5.791   3.898   2.891 -0.2390  4.3361 -0.4895
  259MOL    H2646982   5.934   3.763   2.758  0.9377  0.5052  0.6224
  259MOL    H2746983   6.066   3.790   2.835 -0.7002 -1.2594 -1.3280
  259MOL    H2846984   5.949   3.683   2.923 -3.0782  0.2898  0.5074
  259MOL    C2946985   6.151   4.168   2.914 -0.5079 -0.0798 -0.2149
  259MOL    C3046986   6.290   4.122   2.896 -0.3242  0.8091 -0.2883
  259MOL    C3146987   6.126   4.269   3.028 -0.7519 -0.0484 -0.0226
  259MOL    O3246988   6.075   4.224   3.134 -0.1683 -0.5018  0.5630
  259MOL    O3346989   6.161   4.400   2.996 -0.2394 -0.2094  0.4502
  259MOL    H3446990   6.141   4.218   2.818  0.1898 -0.0750 -0.2877
  259MOL    H3546991   6.307   4.063   2.806 -1.0260  0.1611  0.0007
  259MOL    H3646992   6.344   4.213   2.870 -1.2822  1.6902  0.7305
  259MOL    H3746993   6.340   4.065   2.974 -1.3504  0.4057  0.0901
  259MOL    C3846994   6.161   4.510   3.084 -0.7347  0.2345 -0.7895
  259MOL    C3946995   6.133   4.644   3.016  0.0204 -0.1715 -0.1118
  259MOL    C4046996   6.301   4.516   3.142  0.3933  0.0526 -0.6842
  259MOL    O4146997   6.319   4.531   3.265 -0.1761  0.6092  0.3637
  259MOL    O4246998   6.402   4.511   3.053 -0.4407  0.0424  0.4279
  259MOL    H4346999   6.085   4.492   3.160 -0.2999 -1.5869 -0.7515
  259MOL    H4447000   6.190   4.656   2.925 -0.2700 -0.4436 -0.3308
  259MOL    H4547001   6.027   4.664   3.000 -0.0180 -1.6793 -1.8766
  259MOL    H4647002   6.158   4.721   3.089 -2.9793  2.4033 -1.6925
  259MOL    C4747003   6.540   4.489   3.099 -0.1059 -0.4016  0.2394
  259MOL    C4847004   6.631   4.513   2.985  0.1311 -0.8512  0.0126
  259MOL    C4947005   6.551   4.349   3.151  0.1439  0.8165  0.1469
  259MOL    O5047006   6.477   4.252   3.120 -0.4404 -0.1950 -0.1742
  259MOL    O5147007   6.652   4.343   3.250 -0.2796  0.3397 -0.2803
  259MOL    H5247008   6.558   4.558   3.182 -0.1842 -0.8657  0.6451
  259MOL    H5347009   6.629   4.622   2.982 -1.7247 -0.8118  1.7311
  259MOL    H5447010   6.734   4.482   3.004  0.3027 -1.7335 -2.2967
  259MOL    H5547011   6.595   4.458   2.899  0.6845 -0.6952 -0.3199
  259MOL    C5647012   6.695   4.210   3.287  0.2711  0.2921  0.2572
  259MOL    C5747013   6.639   4.186   3.425  0.3695  0.1770  0.1999
  259MOL    C5847014   6.843   4.202   3.276 -0.1441 -0.9490 -0.4599
  259MOL    O5947015   6.907   4.142   3.364 -0.1039 -0.5299  0.2737
  259MOL    O6047016   6.899   4.273   3.174 -0.0762 -0.0814 -0.5830
  259MOL    H6147017   6.661   4.124   3.230  2.3178 -0.1458 -0.3541
  259MOL    H6247018   6.653   4.087   3.470 -0.9391  0.4481  1.2446
  259MOL    H6347019   6.683   4.253   3.499  0.0890 -0.1727  0.6882
  259MOL    H6447020   6.531   4.200   3.431  0.3904  0.4696 -0.1259
  259MOL    C6547021   7.038   4.252   3.141  0.2831 -0.2448 -0.1869
  259MOL    C6647022   7.085   4.381   3.071 -0.1824 -0.5187 -0.1374
  259MOL    C6747023   7.059   4.123   3.062 -0.0431 -0.2327  0.1294
  259MOL    O6847024   6.978   4.033   3.066  0.4967 -0.6519  0.2908
  259MOL    O6947025   7.168   4.125   2.988  0.1865  0.1170 -0.2701
  259MOL    H7047026   7.099   4.259   3.232 -2.3662  2.6658  1.4653
  259MOL    H7147027   7.091   4.467   3.137 -0.4377 -2.6370  2.7503
  259MOL    H7247028   7.184   4.370   3.026  0.7704  0.5489  1.6602
  259MOL    H7347029   7.024   4.407   2.985  0.1154 -1.9227 -0.7932
  259MOL    C7447030   7.215   4.008   2.906  0.2843 -0.1317 -0.0439
  259MOL    C7547031   7.362   4.028   2.865 -0.0959  0.5464 -0.1782
  259MOL    C7647032   7.122   4.000   2.782  0.0154  0.0761 -0.2034
  259MOL    O7747033   7.085   3.894   2.736 -0.0235 -0.3487  0.5818
  259MOL    O7847034   7.092   4.118   2.732 -0.0915 -0.0155  0.5671
  259MOL    H7947035   7.197   3.912   2.953 -1.7269 -0.0070 -0.5380
  259MOL    H8047036   7.427   4.002   2.949  0.2852  0.1772 -0.5885
  259MOL    H8147037   7.387   3.960   2.783  1.2376  0.3500  0.3775
  259MOL    H8247038   7.397   4.125   2.830 -2.0525  0.8614 -1.3575
  259MOL    C8347039   6.991   4.134   2.627 -0.1728  0.5150 -0.0822
  259MOL    C8447040   7.041   4.112   2.485  0.6035 -0.4927 -0.1853
  259MOL    C8547041   6.939   4.281   2.637 -0.1229  0.6748  0.5744
  259MOL    O8647042   6.826   4.317   2.671 -0.2841 -0.2007 -0.3572
  259MOL    O8747043   7.032   4.367   2.598  0.6014 -0.7687 -0.5684
  259MOL    H8847044   6.911   4.060   2.636  0.2397 -0.2936 -2.7185
  259MOL    H8947045   7.033   4.008   2.452 -1.9538  0.0745 -1.4679
  259MOL    H9047046   7.002   4.173   2.404  1.7155  0.0574 -0.3194
  259MOL    H9147047   7.149   4.129   2.489  0.3906  0.9341 -0.4980
  259MOL    C9247048   6.992   4.503   2.568 -0.7828 -0.1753 -0.6556
  259MOL    C9347049   7.075   4.551   2.456 -0.4258 -0.4936  0.3054
  259MOL    C9447050   7.021   4.594   2.688 -0.2096  0.1473  0.5859
  259MOL    O9547051   7.115   4.577   2.766 -0.0566  0.5674 -0.3678
  259MOL    O9647052   6.929   4.695   2.696 -0.5647 -0.1149  0.1456
  259MOL    H9747053   6.886   4.518   2.547 -1.9496 -3.3550  2.4277
  259MOL    H9847054   7.045   4.654   2.436 -2.9055 -1.3932 -0.7920
  259MOL    H9947055   7.182   4.556   2.478 -0.6144  1.0299  0.9361
  259MOL   H10047056   7.056   4.492   2.366  3.0099 -1.5121  0.1689
  259MOL   C10147057   6.938   4.800   2.786 -0.1783  0.9798  0.1902
  259MOL   C10247058   6.807   4.866   2.797  0.0949 -0.2014 -0.5301
  259MOL   C10347059   7.038   4.896   2.723  0.0577  0.1962  0.6532
  259MOL   O10447060   7.023   4.948   2.612 -0.0522  0.7435 -0.1593
  259MOL   O10547061   7.135   4.928   2.800  0.4640 -0.5729  0.3372
  259MOL   H10647062   6.977   4.766   2.882 -0.8230 -0.1949  0.0433
  259MOL   H10747063   6.798   4.958   2.855 -1.9304  0.6536 -2.1380
  259MOL   H10847064   6.749   4.867   2.704  0.9582  0.5465 -1.0678
  259MOL   H10947065   6.747   4.803   2.863  0.9941 -0.7321 -0.2198
  259MOL   C11047066   7.228   5.037   2.779 -0.2718 -0.2005  0.1788
  259MOL   C11147067   7.338   5.027   2.884  0.6468  1.4000  0.4556
  259MOL   C11247068   7.150   5.173   2.767 -0.7375 -0.3716  0.2982
  259MOL   O11347069   7.193   5.273   2.709  0.7139  0.3744  0.4499
  259MOL   O11447070   7.031   5.175   2.830  0.2288 -0.0980  0.5534
  259MOL   H11547071   7.271   5.026   2.679  0.5966 -0.5572  0.5907
  259MOL   H11647072   7.385   4.929   2.896  0.2512  1.0213 -0.9156
  259MOL   H11747073   7.418   5.096   2.859  0.2090  1.5057 -0.7321
  259MOL   H11847074   7.308   5.063   2.982 -0.9841  1.2943  0.0159
  259MOL   C11947075   6.945   5.293   2.812  0.4467  0.2851  0.2175
  259MOL   C12047076   6.854   5.298   2.932  0.4961 -0.1244  0.3016
  259MOL   C12147077   6.877   5.292   2.673  0.6228 -0.4895 -0.2866
  259MOL   O12247078   6.858   5.188   2.610 -0.4017 -0.7254  0.4238
  259MOL   O12347079   6.837   5.422   2.646 -0.6276 -0.4885  0.1193
  259MOL   H12447080   7.012   5.379   2.811  1.9271 -0.8289  1.2916
  259MOL   H12547081   6.907   5.273   3.024  1.9415  0.2171 -0.4245
  259MOL   H12647082   6.819   5.401   2.941 -0.9391 -0.5272 -0.5349
  259MOL   H12747083   6.767   5.234   2.924  1.1886 -1.0627  0.1944
  259MOL   C12847084   6.763   5.455   2.524 -0.1192 -0.5746  0.3781
  259MOL   C12947085   6.751   5.611   2.506  0.4917  0.7831  0.2023
  259MOL   C13047086   6.635   5.386   2.503 -0.1121  0.2340  0.3520
  259MOL   O13147087   6.564   5.328   2.585 -0.5251  0.0747 -0.6588
  259MOL   O13247088   6.592   5.412   2.378 -0.5383  0.0937  0.1464
  259MOL   H13347089   6.822   5.416   2.441  0.5664  1.7290 -0.2608
  259MOL   H13447090   6.737   5.641   2.402  1.5261 -0.4611 -0.3197
  259MOL   H13547091   6.670   5.654   2.564  0.2842  1.5210 -0.6137
  259MOL   H13647092   6.845   5.656   2.536  0.5723  0.0027  1.1463
  259MOL   C13747093   6.455   5.377   2.335  0.4242  0.0192  0.3090
  259MOL   C13847094   6.449   5.382   2.176 -0.1172 -0.5279 -0.2908
  259MOL   C13947095   6.348   5.475   2.399 -0.0671 -0.4672  1.0187
  259MOL   O14047096   6.375   5.594   2.431  0.8419  0.1815 -0.7316
  259MOL   O14147097   6.229   5.427   2.415  0.2918 -0.8680 -0.2177
  259MOL   H14247098   6.445   5.273   2.366  0.2100  0.5799  2.1768
  259MOL   H14347099   6.432   5.284   2.130 -1.8752  0.1040 -1.0499
  259MOL   H14447100   6.363   5.441   2.145 -1.2351 -1.7335  0.4436
  259MOL   H14547101   6.545   5.404   2.129 -1.6794 -0.6500 -3.6903
  259MOL   C14647102   6.134   5.503   2.492 -0.0435 -0.6333  0.2886
  259MOL   C14747103   6.035   5.397   2.543  0.7001 -0.4280 -0.3638
  259MOL   C14847104   6.060   5.605   2.403  0.2908 -0.0883  0.6039
  259MOL   O14947105   6.096   5.620   2.287 -0.0986  0.4760 -0.3438
  259MOL   O15047106   5.968   5.683   2.468 -0.0840  0.6876  0.3174
  259MOL   H15147107   6.179   5.547   2.581  0.2933 -2.8951  1.2738
  259MOL   H15247108   6.081   5.305   2.580 -1.3848 -1.7267 -0.9164
  259MOL   H15347109   5.970   5.428   2.625  0.4101 -1.5008 -0.1856
  259MOL   H15447110   5.974   5.363   2.459  2.7352  0.9584 -2.4879
  259MOL   C15547111   5.901   5.793   2.406  0.1925  0.0216  0.3027
  259MOL   C15647112   5.846   5.896   2.499  0.0881  0.1579 -0.9354
  259MOL   C15747113   5.779   5.739   2.312  0.0436 -0.1674 -0.0381
  259MOL   O15847114   5.778   5.765   2.194 -0.2011 -1.6715 -0.7672
  259MOL   O15947115   5.697   5.672   2.380  0.4228  0.5099 -0.6403
  259MOL   H16047116   5.975   5.855   2.356 -0.8019 -1.9414 -3.8712
  259MOL   H16147117   5.923   5.943   2.559 -0.1104  0.3269 -0.8128
  259MOL   H16247118   5.805   5.980   2.442 -0.7132  1.2248  1.1714
  259MOL   H16347119   5.768   5.849   2.559  0.8525  0.2326  0.1227
  259MOL   C16447120   5.587   5.608   2.319 -0.2925 -0.2598 -0.5451
  259MOL   C16547121   5.496   5.701   2.233  0.0836 -0.1436 -0.1594
  259MOL   C16647122   5.505   5.555   2.439 -0.0671 -0.2752 -0.2623
  259MOL   O16747123   5.386   5.567   2.459  0.1683  0.2724  0.0675
  259MOL   O16847124   5.585   5.481   2.522  0.2160 -0.2510  0.5023
  259MOL   H16947125   5.626   5.528   2.257  2.3279  1.0922 -0.6879
  259MOL   H17047126   5.550   5.727   2.142  0.1906 -0.6374 -0.2416
  259MOL   H17147127   5.404   5.649   2.207 -0.8161  1.1441  0.4268
  259MOL   H17247128   5.464   5.791   2.285  2.3833  1.3637 -1.2633
  259MOL   C17347129   5.529   5.422   2.638 -0.6443  0.4753 -0.2984
  259MOL   C17447130   5.597   5.479   2.762 -0.2686 -0.5994  0.8857
  259MOL   C17547131   5.545   5.270   2.629  0.3219 -0.2868 -0.5244
  259MOL   O17647132   5.451   5.189   2.635  0.2413  0.0297  0.2168
  259MOL   O17747133   5.678   5.233   2.604  0.3404  0.2095 -0.2624
  259MOL   H17847134   5.423   5.436   2.656 -0.5264 -1.5541  2.1816
  259MOL   H17947135   5.547   5.454   2.855 -0.5518 -2.8996  0.1490
  259MOL   H18047136   5.700   5.444   2.767  0.1670 -0.0102 -2.4208
  259MOL   H18147137   5.603   5.587   2.747 -0.3778 -0.7761 -0.5217
  259MOL   H18247138   5.691   5.140   2.600 -1.1598  0.0441 -1.5193
  260MOL     C147139   1.508   0.281   2.030 -0.3488 -0.2709 -0.5202
  260MOL     C247140   1.515   0.231   1.891  0.3143  0.1870 -0.2154
  260MOL     C347141   1.400   0.216   2.121 -0.4202 -0.0517  0.2788
  260MOL     O447142   1.427   0.095   2.145  0.3999 -0.3557  0.1610
  260MOL     O547143   1.312   0.302   2.182  0.0158  0.4119  0.3307
  260MOL     H647144   1.609   0.259   2.063 -0.4931 -1.1180 -0.6347
  260MOL     H747145   1.502   0.123   1.883 -1.3455  0.3683 -0.1264
  260MOL     H847146   1.444   0.277   1.823 -0.8729 -1.7951 -0.3736
  260MOL     H947147   1.611   0.249   1.843 -0.7967  1.8535 -1.8884
  260MOL    H1047148   1.487   0.388   2.032 -1.9815 -0.5971  0.9960
  260MOL    C1147149   1.230   0.249   2.285 -0.0730 -0.3051  0.2294
  260MOL    C1247150   1.085   0.293   2.259  0.2529  0.2154 -0.2301
  260MOL    C1347151   1.298   0.298   2.420 -0.0909  0.6592 -0.3992
  260MOL    O1447152   1.382   0.380   2.418 -0.6073 -0.3485  0.5149
  260MOL    O1547153   1.244   0.244   2.526  0.1919  0.1259 -0.1457
  260MOL    H1647154   1.244   0.141   2.287  0.1051 -0.3534 -2.4079
  260MOL    H1747155   1.013   0.236   2.317 -0.7904  2.3126  0.5834
  260MOL    H1847156   1.074   0.400   2.277 -1.4693  0.4599 -2.5638
  260MOL    H1947157   1.054   0.294   2.155 -0.5006  2.3126 -0.0007
  260MOL    C2047158   1.297   0.267   2.665  1.0396 -0.5630  0.5567
  260MOL    C2147159   1.211   0.179   2.756  0.3959  0.1499  0.0702
  260MOL    C2247160   1.269   0.419   2.703 -0.5291  0.4477  0.4317
  260MOL    O2347161   1.188   0.484   2.634 -0.3660 -0.3468 -0.7382
  260MOL    O2447162   1.332   0.457   2.814  0.5299 -0.2593  0.3315
  260MOL    H2547163   1.404   0.249   2.676  1.3600 -0.5714 -2.0821
  260MOL    H2647164   1.245   0.075   2.753 -0.0748  0.0350 -1.8858
  260MOL    H2747165   1.188   0.217   2.855  1.2570 -1.5872  0.9638
  260MOL    H2847166   1.110   0.175   2.716 -0.3094  0.2559  1.7997
  260MOL    C2947167   1.310   0.587   2.866  0.6230 -0.0137 -0.0427
  260MOL    C3047168   1.384   0.697   2.788  0.1668  0.1945  0.0668
  260MOL    C3147169   1.348   0.583   3.011  0.3254  0.1800  0.5919
  260MOL    O3247170   1.267   0.601   3.099 -0.4148  0.3162 -0.0088
  260MOL    O3347171   1.483   0.554   3.022  0.1540  0.1229  0.5765
  260MOL    H3447172   1.204   0.611   2.853  0.0255 -1.8151  1.1810
  260MOL    H3547173   1.489   0.670   2.785  0.0344 -0.4133  0.7657
  260MOL    H3647174   1.346   0.697   2.685  2.1661 -1.2912 -0.7120
  260MOL    H3747175   1.377   0.800   2.823 -3.0193 -0.4644  1.5476
  260MOL    C3847176   1.553   0.538   3.155  0.6883 -0.3225 -0.8296
  260MOL    C3947177   1.501   0.418   3.223 -0.7863  0.4086 -0.3585
  260MOL    C4047178   1.557   0.671   3.229 -0.2652 -0.1809 -0.6613
  260MOL    O4147179   1.512   0.680   3.345 -0.0917  0.3032  0.1381
  260MOL    O4247180   1.625   0.769   3.170  0.3301  0.3474  0.0402
  260MOL    H4347181   1.658   0.524   3.131  1.1171  0.8444  0.2638
  260MOL    H4447182   1.394   0.416   3.241 -0.9789  1.5918 -1.2861
  260MOL    H4547183   1.523   0.341   3.149 -1.2967 -1.0949  1.0411
  260MOL    H4647184   1.551   0.401   3.319  0.0907 -2.0037 -1.2058
  260MOL    C4747185   1.619   0.902   3.213  0.2259  0.1849  0.8771
  260MOL    C4847186   1.644   0.995   3.094 -0.1313 -0.1074 -0.3633
  260MOL    C4947187   1.709   0.919   3.339 -0.3724 -0.0103  1.0556
  260MOL    O5047188   1.779   0.825   3.388 -0.1613 -0.0304 -0.1419
  260MOL    O5147189   1.688   1.043   3.389 -0.2583 -0.3225 -0.3564
  260MOL    H5247190   1.521   0.933   3.249 -0.2992  0.0313 -0.3948
  260MOL    H5347191   1.732   0.956   3.042 -0.9450 -1.2101 -0.9202
  260MOL    H5447192   1.556   0.989   3.031  0.2914  0.5338 -1.0326
  260MOL    H5547193   1.653   1.100   3.123  1.0244 -0.1885 -0.3828
  260MOL    C5647194   1.747   1.071   3.519  0.5018 -0.3071 -0.0513
  260MOL    C5747195   1.675   1.197   3.564 -0.7947 -0.0866 -0.5200
  260MOL    C5847196   1.897   1.087   3.510 -0.0477 -0.6614  0.6022
  260MOL    O5947197   1.971   1.009   3.561 -0.3334 -0.0784 -0.0787
  260MOL    O6047198   1.940   1.190   3.433  0.4569 -0.4959  0.0536
  260MOL    H6147199   1.720   0.984   3.579  0.8804  0.2535  0.9308
  260MOL    H6247200   1.569   1.178   3.574 -1.3098  2.1351 -1.4288
  260MOL    H6347201   1.708   1.232   3.662 -2.4485 -0.9155  0.3399
  260MOL    H6447202   1.682   1.289   3.506 -0.6513  0.5471  0.4755
  260MOL    C6547203   2.068   1.230   3.406  0.1487 -0.6043  0.2936
  260MOL    C6647204   2.081   1.381   3.403  0.2967  0.2413  0.4283
  260MOL    C6747205   2.108   1.154   3.274 -0.7160 -0.3128  0.3978
  260MOL    O6847206   2.126   1.215   3.167  0.2030  0.8315 -0.1595
  260MOL    O6947207   2.123   1.017   3.297 -0.4816  0.5354 -0.3174
  260MOL    H7047208   2.128   1.184   3.484 -0.5524 -0.7319  0.7556
  260MOL    H7147209   2.052   1.420   3.500 -0.7301  1.1678 -0.2330
  260MOL    H7247210   2.185   1.408   3.384  0.1143  0.5769 -0.1177
  260MOL    H7347211   2.029   1.442   3.328  0.8420  0.5301  0.2797
  260MOL    C7447212   2.175   0.922   3.196  0.2132 -0.4519 -1.3984
  260MOL    C7547213   2.092   0.791   3.194  0.2838 -0.7272 -0.1907
  260MOL    C7647214   2.325   0.888   3.220 -0.1616  0.6523 -0.1915
  260MOL    O7747215   2.404   0.928   3.142  0.3372  0.4524 -0.6007
  260MOL    O7847216   2.344   0.806   3.328  0.1245  0.1923 -0.1310
  260MOL    H7947217   2.151   0.958   3.096 -1.4510  0.9612 -0.5038
  260MOL    H8047218   2.003   0.813   3.135 -0.8921  0.4221  1.9350
  260MOL    H8147219   2.145   0.706   3.151  0.6634  0.5298 -2.2524
  260MOL    H8247220   2.058   0.761   3.293 -3.2960  3.4041 -0.0183
  260MOL    C8347221   2.473   0.793   3.386 -0.2707  0.3335 -0.4449
  260MOL    C8447222   2.564   0.706   3.292 -0.3664 -0.3386  0.5108
  260MOL    C8547223   2.466   0.759   3.537  0.2026  0.4313  0.2602
  260MOL    O8647224   2.564   0.703   3.593  0.4428 -0.8076  0.2482
  260MOL    O8747225   2.352   0.793   3.599 -0.0691  0.0351 -0.0786
  260MOL    H8847226   2.530   0.886   3.384  1.2838 -0.6211 -1.7258
  260MOL    H8947227   2.513   0.621   3.246 -1.8035 -0.2265  1.8261
  260MOL    H9047228   2.597   0.752   3.199 -0.4443 -0.4233  0.4415
  260MOL    H9147229   2.647   0.664   3.348 -0.8186  0.3989  1.7546
  260MOL    C9247230   2.328   0.763   3.737  0.3291  0.5256  0.1660
  260MOL    C9347231   2.177   0.788   3.773 -0.0923  0.8778 -0.0333
  260MOL    C9447232   2.405   0.849   3.835  0.4138  0.5036  0.2363
  260MOL    O9547233   2.477   0.807   3.927 -0.0817 -0.4874  0.2001
  260MOL    O9647234   2.392   0.988   3.800 -0.1262 -0.0827 -0.1355
  260MOL    H9747235   2.347   0.656   3.753 -0.1980  0.4758  0.4619
  260MOL    H9847236   2.155   0.887   3.735 -0.2587  0.7002 -0.4118
  260MOL    H9947237   2.115   0.718   3.717 -0.5840  1.0582  0.2852
  260MOL   H10047238   2.178   0.784   3.882 -1.0679 -0.1896 -0.0564
  260MOL   C10147239   2.484   1.086   3.843 -0.1287  0.7833 -0.8014
  260MOL   C10247240   2.425   1.228   3.823 -0.3488 -0.1295  0.2085
  260MOL   C10347241   2.629   1.059   3.802  0.3487  0.3006  0.6897
  260MOL   O10447242   2.660   0.955   3.735 -0.9117  0.2788  0.0986
  260MOL   O10547243   2.719   1.151   3.848 -0.3355 -0.5151  0.1266
  260MOL   H10647244   2.485   1.067   3.951  0.8512 -1.0040 -1.1048
  260MOL   H10747245   2.499   1.307   3.836  1.2465 -1.9035  2.4680
  260MOL   H10847246   2.397   1.236   3.718  1.7649  0.2326 -0.3565
  260MOL   H10947247   2.339   1.246   3.888 -1.5517  0.1573 -1.4445
  260MOL   C11047248   2.858   1.135   3.823 -0.0596  0.0324  0.0108
  260MOL   C11147249   2.924   1.264   3.882  0.0317  0.4140  0.1421
  260MOL   C11247250   2.907   1.121   3.672 -0.3695  0.6480 -0.1200
  260MOL   O11347251   2.873   1.209   3.594  0.4433 -0.2109 -0.1119
  260MOL   O11447252   2.977   1.008   3.637 -0.3023  0.1223  0.6899
  260MOL   H11547253   2.890   1.050   3.883 -0.5579  0.4563  0.9015
  260MOL   H11647254   3.000   1.302   3.814 -2.1138  0.7173 -2.1677
  260MOL   H11747255   2.856   1.349   3.893 -0.5006 -0.0894  0.8099
  260MOL   H11847256   2.946   1.233   3.985 -0.1262 -3.0427 -0.8250
  260MOL   C11947257   3.009   0.995   3.502 -0.3082  0.3563  0.5066
  260MOL   C12047258   2.907   0.894   3.435  0.3707  0.4327  0.4824
  260MOL   C12147259   3.156   0.949   3.492 -1.1333  0.1226  0.1548
  260MOL   O12247260   3.195   0.844   3.556  0.6893  0.1407  0.0207
  260MOL   O12347261   3.231   1.040   3.418 -0.5611 -0.2427 -0.0011
  260MOL   H12447262   3.006   1.084   3.439  0.8331 -0.7491 -1.1542
  260MOL   H12547263   2.918   0.793   3.476  0.4647  0.3571  0.2738
  260MOL   H12647264   2.803   0.915   3.460  0.2069 -0.0744  0.2360
  260MOL   H12747265   2.921   0.879   3.328  2.5709 -2.1409  1.0588
  260MOL   C12847266   3.374   1.015   3.410 -0.0193  0.1171  0.0854
  260MOL   C12947267   3.436   1.129   3.319  0.2269 -0.5053 -0.4528
  260MOL   C13047268   3.408   0.866   3.359  0.1459 -0.7938 -0.2877
  260MOL   O13147269   3.496   0.795   3.409 -0.1682  0.4526  0.2786
  260MOL   O13247270   3.333   0.833   3.245 -0.3107  0.2903  0.7230
  260MOL   H13347271   3.426   1.036   3.504 -1.0973 -1.3337  1.0446
  260MOL   H13447272   3.514   1.193   3.361  0.0499  0.1568 -1.1246
  260MOL   H13547273   3.476   1.081   3.230 -0.8103 -0.7905 -0.7694
  260MOL   H13647274   3.371   1.202   3.271  0.5589 -1.0952 -1.8428
  260MOL   C13747275   3.359   0.712   3.175  0.0412 -0.2134 -0.1574
  260MOL   C13847276   3.296   0.731   3.030  0.3382  0.0000  0.2171
  260MOL   C13947277   3.292   0.596   3.238 -0.3400  0.1576 -0.0883
  260MOL   O14047278   3.350   0.490   3.232 -0.1318  0.3897 -0.3580
  260MOL   O14147279   3.166   0.622   3.294 -0.0489 -0.3521  0.0639
  260MOL   H14247280   3.466   0.693   3.166  0.3587  0.2697  2.1899
  260MOL   H14347281   3.243   0.646   2.985  1.4005 -0.1397 -0.8011
  260MOL   H14447282   3.217   0.806   3.027  0.3810  0.0081 -0.8132
  260MOL   H14547283   3.372   0.751   2.955 -0.4570 -1.4075 -0.9999
  260MOL   C14647284   3.099   0.506   3.342 -0.3705 -0.3646  0.5301
  260MOL   C14747285   2.947   0.515   3.328  0.4031 -0.6574  0.2504
  260MOL   C14847286   3.137   0.476   3.496 -0.1685  0.4565 -0.3039
  260MOL   O14947287   3.049   0.452   3.578 -0.6226  0.1472 -0.7655
  260MOL   O15047288   3.268   0.471   3.524 -0.0191  0.0990 -0.5720
  260MOL   H15147289   3.119   0.409   3.298 -2.8038 -0.6140 -0.0664
  260MOL   H15247290   2.907   0.581   3.405  1.4708  0.0948  0.1727
  260MOL   H15347291   2.927   0.555   3.229 -2.6678  3.1303  2.2680
  260MOL   H15447292   2.906   0.414   3.328  1.5472 -1.1448  1.8823
  260MOL   C15547293   3.329   0.438   3.654  0.1396  0.1441  0.2565
  260MOL   C15647294   3.383   0.555   3.728  0.3767 -0.2523 -0.1440
  260MOL   C15747295   3.437   0.346   3.617 -0.7667  0.4583 -0.0699
  260MOL   O15847296   3.445   0.231   3.652 -0.6256  0.1411  0.2213
  260MOL   O15947297   3.522   0.408   3.533  0.3150  0.0066  0.4506
  260MOL   H16047298   3.269   0.378   3.723  0.0964  1.0862  1.0524
  260MOL   H16147299   3.291   0.601   3.766 -0.6151 -1.8519 -0.5735
  260MOL   H16247300   3.456   0.546   3.808  2.8379 -0.5282 -2.3366
  260MOL   H16347301   3.430   0.621   3.654  0.3920 -0.7127 -0.5468
  260MOL   C16447302   3.651   0.357   3.507  0.4451  0.1576  0.2471
  260MOL   C16547303   3.755   0.471   3.478 -0.0209 -0.0170  0.0285
  260MOL   C16647304   3.654   0.258   3.386  0.4062 -0.3312  0.1867
  260MOL   O16747305   3.698   0.141   3.399  0.4319  0.2026  0.3996
  260MOL   O16847306   3.582   0.307   3.285  0.4253 -0.7590  0.0024
  260MOL   H16947307   3.693   0.298   3.589  2.9679  1.9044  0.2657
  260MOL   H17047308   3.716   0.536   3.399 -2.6609 -0.0617  1.2164
  260MOL   H17147309   3.773   0.538   3.562  2.6681  2.2083 -2.2440
  260MOL   H17247310   3.850   0.430   3.445 -0.7655 -1.9430  0.1935
  260MOL   C17347311   3.546   0.220   3.170  0.5357  0.1619 -0.1086
  260MOL   C17447312   3.543   0.295   3.033 -0.1647  0.2626 -0.3844
  260MOL   C17547313   3.411   0.154   3.206 -0.5810  0.2435  0.0175
  260MOL   O17647314   3.386   0.031   3.187  0.4814  0.1279 -0.1799
  260MOL   O17747315   3.313   0.241   3.241 -0.0358 -0.3987  0.0540
  260MOL   H17847316   3.627   0.148   3.161 -1.5310 -2.2899  0.1897
  260MOL   H17947317   3.550   0.223   2.951  0.8881 -1.1316  0.8927
  260MOL   H18047318   3.458   0.362   3.019 -1.0263 -0.8951 -0.8183
  260MOL   H18147319   3.627   0.361   3.017 -0.9770  1.6786  1.0646
  260MOL   H18247320   3.338   0.331   3.258 -3.2429  0.4657  0.4434
  261MOL     C147321   6.994   6.242   3.394  0.0192 -0.1369 -0.5509
  261MOL     C247322   7.033   6.362   3.306 -0.1304  0.0103  0.2127
  261MOL     C347323   7.030   6.252   3.544  0.3173 -0.4410 -0.2890
  261MOL     O447324   6.941   6.261   3.637 -0.4736 -0.2199 -0.1343
  261MOL     O547325   7.166   6.255   3.571  0.5494 -0.0294  0.2018
  261MOL     H647326   6.890   6.214   3.378 -0.1266 -0.4885  0.9281
  261MOL     H747327   7.137   6.393   3.320  0.1014 -0.3998 -0.5571
  261MOL     H847328   7.018   6.335   3.202  0.0725 -2.7074  0.8454
  261MOL     H947329   6.974   6.444   3.345  0.5296  0.9947 -0.8457
  261MOL    H1047330   7.044   6.150   3.363 -1.8668 -0.7704 -1.8298
  261MOL    C1147331   7.210   6.290   3.699 -0.0863 -0.0572  0.3473
  261MOL    C1247332   7.340   6.375   3.684  0.6919  0.1007 -0.1907
  261MOL    C1347333   7.226   6.154   3.775 -0.4846 -0.9066  0.2380
  261MOL    O1447334   7.124   6.092   3.812 -0.5694  0.2915 -0.2664
  261MOL    O1547335   7.366   6.123   3.785 -0.0569  0.1252 -0.2862
  261MOL    H1647336   7.136   6.344   3.758 -0.9652  0.2475 -1.0159
  261MOL    H1747337   7.392   6.340   3.594  5.1879  0.7264  2.0254
  261MOL    H1847338   7.318   6.481   3.678 -0.4079 -0.1378 -0.5054
  261MOL    H1947339   7.418   6.349   3.755  2.3428 -1.4152 -2.4577
  261MOL    C2047340   7.394   6.018   3.878 -0.5376 -0.0169 -0.0925
  261MOL    C2147341   7.340   5.889   3.834 -0.4488  0.2900 -0.1566
  261MOL    C2247342   7.335   6.049   4.022  0.4387 -0.0765  0.1250
  261MOL    O2347343   7.281   5.963   4.091  0.2977 -0.1920 -0.2800
  261MOL    O2447344   7.353   6.179   4.066 -0.2321  0.4231  0.6452
  261MOL    H2547345   7.500   5.995   3.887 -0.4018  1.0856  1.4422
  261MOL    H2647346   7.234   5.867   3.847 -0.3303  0.5206  1.2104
  261MOL    H2747347   7.359   5.881   3.727  1.8662  1.7530  0.1164
  261MOL    H2847348   7.390   5.809   3.888  1.4437 -0.3351 -2.7525
  261MOL    C2947349   7.320   6.231   4.194  0.2172 -0.1370  0.0464
  261MOL    C3047350   7.343   6.381   4.182  0.4916  0.0631 -0.3333
  261MOL    C3147351   7.410   6.166   4.302  0.0425  0.0034  0.2623
  261MOL    O3247352   7.463   6.053   4.287 -1.0525 -0.3563 -0.4455
  261MOL    O3347353   7.418   6.248   4.417 -0.6951  0.5438  0.4318
  261MOL    H3447354   7.216   6.216   4.221  0.1212  0.8832  0.2280
  261MOL    H3547355   7.276   6.428   4.111  0.3225 -0.6973 -0.6827
  261MOL    H3647356   7.331   6.429   4.279  1.4222  0.8747 -0.6128
  261MOL    H3747357   7.447   6.394   4.150  0.7814  2.0943  1.3274
  261MOL    C3847358   7.524   6.215   4.509 -0.0627  0.0278  0.1189
  261MOL    C3947359   7.485   6.283   4.640 -0.3318  0.2123  0.0305
  261MOL    C4047360   7.649   6.271   4.452 -0.3193 -0.2710  0.2949
  261MOL    O4147361   7.646   6.352   4.358  0.4064 -0.1541  0.2310
  261MOL    O4247362   7.753   6.228   4.524  0.0838  0.3249 -0.1818
  261MOL    H4347363   7.527   6.107   4.526  0.4078  0.0833  0.3988
  261MOL    H4447364   7.499   6.391   4.637  0.2296  0.1709  1.0295
  261MOL    H4547365   7.384   6.255   4.669 -0.3539 -0.4493 -0.6815
  261MOL    H4647366   7.553   6.243   4.715 -0.3206  2.7550  1.4409
  261MOL    C4747367   7.882   6.275   4.502  0.1015  0.2022  0.5363
  261MOL    C4847368   7.993   6.169   4.499 -0.4293 -0.5469  0.1468
  261MOL    C4947369   7.908   6.372   4.618  0.3912 -0.5272 -0.1034
  261MOL    O5047370   7.813   6.406   4.691  0.1118  0.4758 -0.3910
  261MOL    O5147371   8.028   6.419   4.627  0.4078 -0.0245  0.3871
  261MOL    H5247372   7.886   6.330   4.408  0.7921  0.1126  0.5115
  261MOL    H5347373   8.086   6.211   4.461 -0.0848 -1.2016  0.2712
  261MOL    H5447374   8.010   6.109   4.588 -0.2834 -1.8213 -0.7285
  261MOL    H5547375   7.971   6.088   4.429  2.0273  0.1003 -1.4332
  261MOL    C5647376   8.063   6.528   4.709  0.3592 -0.1257  0.2422
  261MOL    C5747377   0.020   6.607   4.639 -0.1442 -0.3631 -0.2005
  261MOL    C5847378   8.095   6.482   4.856  0.2628  0.6156  0.3585
  261MOL    O5947379   8.022   6.522   4.953 -1.1618  0.3406 -0.7797
  261MOL    O6047380   0.037   6.379   4.859 -0.7865  0.2574 -0.5737
  261MOL    H6147381   7.976   6.591   4.722  0.6216 -0.1447  2.2834
  261MOL    H6247382   0.062   6.681   4.708  0.4130 -1.1538  0.3221
  261MOL    H6347383   0.098   6.542   4.599 -1.0134 -1.5874  0.0674
  261MOL    H6447384   8.119   6.654   4.554 -0.9720 -0.6191  0.1277
  261MOL    C6547385   0.084   6.327   4.984  0.1947 -0.2107  0.2870
  261MOL    C6647386   0.205   6.406   5.032  0.2111  0.3877 -0.8295
  261MOL    C6747387   0.103   6.172   4.973  0.5484 -0.1138  0.5078
  261MOL    O6847388   0.194   6.117   5.038 -1.0508 -0.3703 -0.3433
  261MOL    O6947389   0.019   6.113   4.887  0.1495  0.0097 -0.1485
  261MOL    H7047390   0.001   6.330   5.054 -1.7084  3.9587 -1.9923
  261MOL    H7147391   0.229   6.369   5.132  0.2994 -0.2227 -1.0786
  261MOL    H7247392   0.293   6.374   4.975  0.1158 -2.1034  0.3557
  261MOL    H7347393   0.181   6.512   5.043 -1.8565 -0.1202 -0.2289
  261MOL    C7447394   0.007   5.965   4.880 -0.4778 -0.3137  0.0572
  261MOL    C7547395   0.107   5.907   4.770  0.0737 -0.1467  0.1597
  261MOL    C7647396   8.009   5.928   4.855  0.1675  0.6348  0.3349
  261MOL    O7747397   7.972   5.842   4.777 -0.0916 -0.2858 -0.0908
  261MOL    O7847398   7.925   5.991   4.944  0.7971  0.4625  0.4722
  261MOL    H7947399   0.029   5.931   4.982 -0.1177  0.4580  0.2384
  261MOL    H8047400   0.124   5.800   4.783  2.5811  0.0441 -1.2712
  261MOL    H8147401   0.073   5.921   4.667  0.5619 -0.5257 -0.0548
  261MOL    H8247402   0.207   5.949   4.780  1.1382 -2.5298  0.1244
  261MOL    C8347403   7.788   5.964   4.939  0.3491  0.0999  0.3004
  261MOL    C8447404   7.752   6.085   4.855  0.1464  0.1848  0.0138
  261MOL    C8547405   7.726   5.954   5.076 -0.2721 -0.6118 -0.0370
  261MOL    O8647406   7.657   6.041   5.121  0.2701 -0.2399  0.3369
  261MOL    O8747407   7.747   5.834   5.144  0.5388  0.1450  0.0079
  261MOL    H8847408   7.765   5.873   4.883  1.6697 -0.4987  0.7284
  261MOL    H8947409   7.765   6.056   4.750 -0.0960 -1.1825  0.3475
  261MOL    H9047410   7.646   6.108   4.864  0.5975  3.1489 -1.5275
  261MOL    H9147411   7.800   6.180   4.876  1.2458 -0.2049 -0.6439
  261MOL    C9247412   7.704   5.829   5.284 -0.4984 -0.1144 -0.0914
  261MOL    C9347413   7.784   5.714   5.350  0.2942  0.3007 -0.2449
  261MOL    C9447414   7.552   5.818   5.286  0.5540  1.0173 -0.5066
  261MOL    O9547415   7.485   5.874   5.373  0.3967  0.0347  0.4997
  261MOL    O9647416   7.493   5.734   5.191 -0.4036 -0.7107  0.4302
  261MOL    H9747417   7.727   5.925   5.330 -2.8268  0.0440  0.7896
  261MOL    H9847418   7.748   5.677   5.446 -0.7750  1.8606 -0.0311
  261MOL    H9947419   7.799   5.621   5.295  0.7378 -0.0736  0.4940
  261MOL   H10047420   7.887   5.746   5.368 -0.0343  1.0176  0.3917
  261MOL   C10147421   7.351   5.716   5.179  0.0558 -0.3914  0.4895
  261MOL   C10247422   7.329   5.600   5.092 -0.5890 -0.0708  0.1545
  261MOL   C10347423   7.300   5.833   5.095  0.4935 -0.2793 -0.3732
  261MOL   O10447424   7.191   5.893   5.123 -0.4648  0.3873  0.7079
  261MOL   O10547425   7.379   5.870   4.995  0.0044  0.2542  0.2579
  261MOL   H10647426   7.304   5.721   5.277 -0.9129 -2.6276  0.1633
  261MOL   H10747427   7.307   5.508   5.147  0.8969  0.0520  0.9619
  261MOL   H10847428   7.244   5.593   5.024 -0.3497 -1.3883 -0.0370
  261MOL   H10947429   7.413   5.574   5.027  0.2035 -1.5331  1.7286
  261MOL   C11047430   7.349   5.974   4.905  0.4394 -0.1090  0.1994
  261MOL   C11147431   7.340   6.110   4.975 -0.0623 -0.0409 -0.0914
  261MOL   C11247432   7.226   5.935   4.816  0.1905  0.5533  0.5490
  261MOL   O11347433   7.184   5.821   4.793 -0.1683 -0.0990  0.4594
  261MOL   O11447434   7.178   6.053   4.755 -0.5040  0.9571  0.2426
  261MOL   H11547435   7.427   5.993   4.832 -0.3345 -0.6748 -0.7852
  261MOL   H11647436   7.251   6.116   5.038  0.5302  2.3266  0.5825
  261MOL   H11747437   7.428   6.121   5.038 -0.3607  1.0099  0.1544
  261MOL   H11847438   7.340   6.196   4.908 -0.4934  1.5748  1.9191
  261MOL   C11947439   7.082   6.040   4.647 -0.1299 -0.4545 -0.7404
  261MOL   C12047440   7.082   6.181   4.569  0.1140 -0.0778 -0.1920
  261MOL   C12147441   6.940   6.011   4.708  0.3952  0.2136  0.1620
  261MOL   O12247442   6.920   6.017   4.825 -0.7824  0.1690 -0.3101
  261MOL   O12347443   6.851   5.977   4.613 -0.1572 -0.2419 -0.1092
  261MOL   H12447444   7.113   5.961   4.579 -0.6916 -1.9683  0.7229
  261MOL   H12547445   6.988   6.180   4.515  0.2633 -1.4174 -0.4518
  261MOL   H12647446   7.065   6.269   4.631 -0.4466 -0.0652 -0.3644
  261MOL   H12747447   7.171   6.200   4.509 -0.7907  1.1897 -1.1409
  261MOL   C12847448   6.712   5.964   4.638 -0.3532 -0.2705  0.0037
  261MOL   C12947449   6.639   5.943   4.510  0.6193 -1.0687 -0.1796
  261MOL   C13047450   6.658   6.084   4.717  0.0284 -0.5767  0.1495
  261MOL   O13147451   6.594   6.068   4.818 -0.4014  0.0834 -0.4004
  261MOL   O13247452   6.685   6.201   4.666 -0.1226  0.3470 -0.3341
  261MOL   H13347453   6.714   5.875   4.702 -0.4605  0.3321  0.8583
  261MOL   H13447454   6.614   6.040   4.465 -0.5701 -0.8587  0.9083
  261MOL   H13547455   6.701   5.891   4.437  2.0687 -0.3953  0.5602
  261MOL   H13647456   6.549   5.885   4.528  0.3908 -0.5378  0.4086
  261MOL   C13747457   6.638   6.325   4.729 -0.1260  0.5022 -0.2639
  261MOL   C13847458   6.670   6.450   4.649  0.0185 -0.4861  0.6475
  261MOL   C13947459   6.709   6.340   4.864 -0.4284  0.1293 -0.6031
  261MOL   O14047460   6.643   6.352   4.966 -0.2891 -0.0263 -0.6644
  261MOL   O14147461   6.843   6.330   4.854 -0.2362  0.5262 -0.4049
  261MOL   H14247462   6.532   6.309   4.748  0.4766  0.2982  3.3160
  261MOL   H14347463   6.632   6.538   4.700 -1.0756 -0.2236 -0.5821
  261MOL   H14447464   6.777   6.456   4.630 -0.1055  0.0144  0.0807
  261MOL   H14547465   6.617   6.443   4.553 -1.6865  1.8683  1.3757
  261MOL   C14647466   6.934   6.347   4.960 -0.3316  0.9453 -0.1152
  261MOL   C14747467   6.928   6.243   5.069 -0.6918  0.0514 -0.1650
  261MOL   C14847468   6.925   6.490   5.012  1.0212 -0.2419  0.4003
  261MOL   O14947469   6.996   6.577   4.963 -0.2828 -0.0354 -0.7270
  261MOL   O15047470   6.826   6.501   5.118 -0.2132  0.3125  0.0955
  261MOL   H15147471   7.032   6.345   4.912 -0.4840  0.5468 -0.4023
  261MOL   H15247472   7.005   6.265   5.143 -0.8779  1.2785 -0.3326
  261MOL   H15347473   6.833   6.236   5.121 -1.6946  1.4295 -1.7574
  261MOL   H15447474   6.963   6.144   5.038 -1.5296 -0.2683 -0.0985
  261MOL   C15547475   6.823   6.617   5.212 -0.2903  0.2877 -0.4032
  261MOL   C15647476   6.786   6.750   5.144 -0.7651 -0.3083  0.3924
  261MOL   C15747477   6.959   6.634   5.282  0.5714 -0.0242  0.2493
  261MOL   O15847478   6.998   6.746   5.316  0.2381 -0.6905 -0.7362
  261MOL   O15947479   7.028   6.522   5.301  0.2200  0.1427  0.2167
  261MOL   H16047480   6.750   6.598   5.290  2.2709  1.3570  2.3628
  261MOL   H16147481   6.700   6.733   5.078 -2.6035 -0.9004  2.8493
  261MOL   H16247482   6.750   6.836   5.202 -1.5695  1.4765 -2.5882
  261MOL   H16347483   6.869   6.802   5.096 -0.1891  0.5812  2.3101
  261MOL   C16447484   7.161   6.521   5.349 -0.3625  0.3546  0.4880
  261MOL   C16547485   7.263   6.569   5.244  0.3126 -0.5649  0.4381
  261MOL   C16647486   7.194   6.378   5.402  0.5002 -1.3588 -0.2570
  261MOL   O16747487   7.121   6.278   5.390 -0.1774  0.0334  0.1100
  261MOL   O16847488   7.310   6.377   5.472 -0.0121 -0.5037  0.7031
  261MOL   H16947489   7.175   6.576   5.443 -2.1767 -0.1602  1.0811
  261MOL   H17047490   7.322   6.486   5.205 -0.3832 -0.6745 -0.3919
  261MOL   H17147491   7.219   6.622   5.160  1.9084 -2.1988 -1.5028
  261MOL   H17247492   7.330   6.640   5.291  0.8169 -1.8725  1.7507
  261MOL   C17347493   7.372   6.254   5.515  0.1324 -0.7240 -0.3953
  261MOL   C17447494   7.403   6.262   5.664 -0.0063 -0.1614 -0.1911
  261MOL   C17547495   7.501   6.232   5.427  0.3640  0.2789  0.7459
  261MOL   O17647496   7.613   6.209   5.470 -0.1278 -0.1380  0.0614
  261MOL   O17747497   7.480   6.227   5.301 -0.3611  0.1054 -0.1014
  261MOL   H17847498   7.309   6.168   5.491  0.8643 -0.6999 -2.4941
  261MOL   H17947499   7.307   6.249   5.713 -0.0067  0.8889  0.1008
  261MOL   H18047500   7.474   6.186   5.695 -0.2801 -1.8212 -3.4150
  261MOL   H18147501   7.441   6.363   5.675 -0.4079 -0.2377  1.9914
  261MOL   H18247502   7.559   6.195   5.262  0.8904  0.8053  1.7929
  262MOL     C147503   6.276   6.944   1.025 -0.1943 -0.5081 -0.1338
  262MOL     C247504   6.256   7.075   1.099  0.1285 -0.2243  0.5970
  262MOL     C347505   6.329   6.963   0.877 -0.0529  0.0339 -0.7950
  262MOL     O447506   6.297   6.885   0.787  0.1679 -0.6625 -0.0384
  262MOL     O547507   6.418   7.057   0.866  0.0818  0.2549 -0.0659
  262MOL     H647508   6.348   6.885   1.081  0.1183 -0.7413 -0.7784
  262MOL     H747509   6.226   7.045   1.199 -1.4547  0.1446  0.2413
  262MOL     H847510   6.347   7.135   1.090  0.2469 -0.7510 -2.5880
  262MOL     H947511   6.174   7.132   1.055 -0.0552 -1.6861 -1.0244
  262MOL    H1047512   6.190   6.877   1.022 -1.1993  0.6986  1.0622
  262MOL    C1147513   6.467   7.102   0.744 -0.0341  0.5750  0.3389
  262MOL    C1247514   6.354   7.168   0.659  0.4457 -0.4539 -0.2124
  262MOL    C1347515   6.539   6.988   0.663  0.5014  0.3765  0.2112
  262MOL    O1447516   6.523   6.974   0.545  0.3169  0.3152  0.4220
  262MOL    O1547517   6.611   6.911   0.741 -0.2552  0.6873  0.4775
  262MOL    H1647518   6.543   7.179   0.761 -0.6381  0.7540  2.3569
  262MOL    H1747519   6.289   7.222   0.728  0.0326  0.3378 -1.2113
  262MOL    H1847520   6.393   7.230   0.578  2.0270 -0.5803  0.4263
  262MOL    H1947521   6.294   7.085   0.622 -0.3366  0.7509 -1.6908
  262MOL    C2047522   6.655   6.777   0.699  0.0595  0.3402  0.1081
  262MOL    C2147523   6.636   6.675   0.813 -0.2109 -0.1887  0.0401
  262MOL    C2247524   6.806   6.786   0.650  0.3924  0.1926  0.8535
  262MOL    O2347525   6.845   6.713   0.557 -0.4777 -0.0330 -1.0561
  262MOL    O2447526   6.882   6.882   0.712  0.4551 -0.1628  0.2454
  262MOL    H2547527   6.595   6.745   0.614 -0.2811  2.5601 -0.5013
  262MOL    H2647528   6.530   6.653   0.804 -0.1069 -0.1841 -1.3573
  262MOL    H2747529   6.703   6.589   0.814  0.0129 -0.0474 -1.4222
  262MOL    H2847530   6.657   6.734   0.902  0.2382 -0.5531  0.1787
  262MOL    C2947531   7.012   6.902   0.671  0.4214 -0.3596  0.3212
  262MOL    C3047532   7.099   6.913   0.805  0.0584 -0.0556 -0.0112
  262MOL    C3147533   7.018   7.017   0.581  0.7813  0.1699 -0.7678
  262MOL    O3247534   7.109   7.097   0.596  0.2943 -0.1990 -0.1443
  262MOL    O3347535   6.918   7.016   0.473 -0.5029  0.2569 -0.1255
  262MOL    H3447536   7.059   6.822   0.615  3.9433  0.6080  1.6896
  262MOL    H3547537   7.105   6.821   0.863 -3.3253  0.2734  1.0135
  262MOL    H3647538   7.199   6.951   0.789 -0.1215 -0.4416 -2.1351
  262MOL    H3747539   7.054   6.986   0.873  1.1322 -0.6754  1.3974
  262MOL    C3847540   6.927   7.118   0.374  0.2434 -0.3621 -0.0179
  262MOL    C3947541   6.787   7.143   0.335  0.2881  0.4297 -0.1577
  262MOL    C4047542   7.006   7.062   0.255 -0.6718  0.2788  0.5581
  262MOL    O4147543   7.104   7.120   0.202 -0.4654 -0.0270  0.7000
  262MOL    O4247544   6.958   6.944   0.201  0.5508  0.1793 -0.3474
  262MOL    H4347545   6.969   7.214   0.403 -0.0778 -1.0864  2.9644
  262MOL    H4447546   6.734   7.060   0.289  1.1819 -0.2730  0.0535
  262MOL    H4547547   6.731   7.167   0.425 -2.2490 -1.1430 -1.2798
  262MOL    H4647548   6.781   7.232   0.271  0.2735 -0.9392 -2.0904
  262MOL    C4747549   7.020   6.875   0.093  0.7615  1.0901  0.2643
  262MOL    C4847550   6.911   6.790   0.031  0.4533  0.3993  0.5585
  262MOL    C4947551   7.144   6.791   0.147  0.0221 -0.5108 -0.2550
  262MOL    O5047552   7.234   6.763   0.074 -0.0956  0.1061  0.7542
  262MOL    O5147553   7.136   6.741   0.273  0.0827 -0.1277  0.1538
  262MOL    H5247554   7.053   6.946   0.017  1.1979  0.3285 -0.2637
  262MOL    H5347555   6.851   6.743   0.109 -2.7284 -0.0483 -2.0494
  262MOL    H5447556   6.841   6.835   8.108 -3.5925 -0.7126  3.6161
  262MOL    H5547557   6.946   6.710   8.115  0.5637  0.2512  0.8045
  262MOL    C5647558   7.227   6.641   0.322  0.7690  0.3575  0.5405
  262MOL    C5747559   7.153   6.577   0.440  0.2925  0.3785 -0.0857
  262MOL    C5847560   7.363   6.705   0.348  0.3082 -0.6053  0.1304
  262MOL    O5947561   7.382   6.763   0.460 -0.1814 -0.4933 -0.4113
  262MOL    O6047562   7.445   6.702   0.239  0.1152  0.1740  0.0707
  262MOL    H6147563   7.246   6.560   0.252  0.3642  0.5211  0.2417
  262MOL    H6247564   7.098   6.658   0.487  2.5987  1.8850  0.1197
  262MOL    H6347565   7.080   6.504   0.405  1.5542 -1.1838  0.4939
  262MOL    H6447566   7.211   6.537   0.523 -0.2320  0.3796  0.2855
  262MOL    C6547567   7.573   6.763   0.246 -0.5973 -0.5794 -0.5726
  262MOL    C6647568   7.588   6.852   0.118 -0.2366 -0.1161  0.2003
  262MOL    C6747569   7.678   6.650   0.238 -0.7871  0.2982  0.1692
  262MOL    O6847570   7.771   6.643   0.160  0.0947 -0.5224 -0.1885
  262MOL    O6947571   7.672   6.570   0.342  0.7250  0.2764  0.3480
  262MOL    H7047572   7.601   6.818   0.335  0.5439 -0.9788 -0.6779
  262MOL    H7147573   7.518   6.935   0.110 -2.7042 -2.1503 -0.2001
  262MOL    H7247574   7.688   6.896   0.116 -0.8217  1.3469  1.5243
  262MOL    H7347575   7.578   6.793   0.027 -1.7692  1.6722 -0.8305
  262MOL    C7447576   7.750   6.452   0.353 -0.3521  0.1333  0.8018
  262MOL    C7547577   7.662   6.341   0.401  0.0010 -0.2506 -0.8732
  262MOL    C7647578   7.881   6.481   0.436 -0.1994  0.5257  0.2586
  262MOL    O7747579   7.901   6.593   0.489 -0.3407  0.1521 -0.5220
  262MOL    O7847580   7.968   6.380   0.429 -0.3559 -0.4425  0.1111
  262MOL    H7947581   7.782   6.429   0.251 -1.3756 -1.7132  0.8820
  262MOL    H8047582   7.558   6.345   0.369 -0.1461 -0.9835 -0.4994
  262MOL    H8147583   7.711   6.247   0.378  3.3230  0.8235  1.4628
  262MOL    H8247584   7.656   6.342   0.510  1.9906  0.7172 -0.7418
  262MOL    C8347585   8.101   6.400   0.475  0.3694  1.4548  0.0328
  262MOL    C8447586   0.065   6.315   0.407 -0.4983  0.2972 -0.0077
  262MOL    C8547587   8.087   6.368   0.626  0.1672 -0.2447 -0.2645
  262MOL    O8647588   8.013   6.281   0.666 -0.4635  0.2546  0.0310
  262MOL    O8747589   0.027   6.438   0.709 -0.4264 -0.3947  0.1886
  262MOL    H8847590   8.138   6.501   0.462  3.2451  0.4804  0.3439
  262MOL    H8947591   0.160   6.323   0.460 -0.6360 -1.8120  0.6267
  262MOL    H9047592   0.034   6.211   0.394 -0.4736  0.2882  0.0051
  262MOL    H9147593   0.074   6.365   0.311  1.1169 -3.0374 -1.6738
  262MOL    C9247594   0.041   6.410   0.851 -0.4313  0.1801  0.3312
  262MOL    C9347595   0.121   6.530   0.917  0.3509  0.4749  0.3098
  262MOL    C9447596   0.115   6.272   0.874  0.3621 -0.0265  0.9927
  262MOL    O9547597   0.060   6.184   0.937 -0.7280  0.1714  0.6338
  262MOL    O9647598   0.247   6.264   0.825  0.6115 -0.4474 -0.6769
  262MOL    H9747599   8.088   6.405   0.892 -0.4413  0.9925  0.4023
  262MOL    H9847600   0.083   6.631   0.906  2.1748  1.1065 -0.4661
  262MOL    H9947601   0.131   6.508   1.023 -1.2475  0.5422  0.4910
  262MOL   H10047602   0.220   6.519   0.874  0.0067 -0.8332 -0.1617
  262MOL   C10147603   0.318   6.143   0.823 -0.4870  0.1810 -0.7207
  262MOL   C10247604   0.473   6.164   0.836  0.5125 -0.2289  0.5162
  262MOL   C10347605   0.279   6.058   0.703 -0.2579  0.0011 -0.2220
  262MOL   O10447606   0.160   6.069   0.661 -0.6168 -0.1105  0.2161
  262MOL   O10547607   0.380   5.979   0.657 -0.5208  0.8339  0.1407
  262MOL   H10647608   0.299   6.091   0.917  0.2331 -0.3873 -0.8791
  262MOL   H10747609   0.516   6.065   0.852 -0.6217 -0.5859  1.4300
  262MOL   H10847610   0.513   6.212   0.747 -2.4863  0.5567 -0.4408
  262MOL   H10947611   0.492   6.233   0.918 -1.0148  1.0501 -0.1742
  262MOL   C11047612   0.365   5.889   0.545  0.9831 -0.1266 -0.4404
  262MOL   C11147613   0.497   5.808   0.550 -0.5563 -0.1592  0.5442
  262MOL   C11247614   0.334   5.953   0.410 -0.8257 -0.1748 -0.5619
  262MOL   O11347615   0.305   6.071   0.392  0.2975 -0.1021 -0.5932
  262MOL   O11447616   0.339   5.862   0.312  0.5160 -0.5748 -0.1465
  262MOL   H11547617   0.285   5.818   0.569  0.6318  1.4502  3.5628
  262MOL   H11647618   0.507   5.737   0.468  2.1482 -1.1089  1.6340
  262MOL   H11747619   0.582   5.876   0.552 -0.7681  0.2710 -2.4097
  262MOL   H11847620   0.502   5.748   0.641  0.9853 -1.0014 -0.0842
  262MOL   C11947621   0.346   5.884   0.169 -0.7199 -0.3209 -0.0628
  262MOL   C12047622   0.207   5.851   0.119  0.0657 -0.5777 -0.3381
  262MOL   C12147623   0.450   5.796   0.099  0.6300  0.0226  0.6203
  262MOL   O12247624   0.473   5.686   0.149  0.4490 -0.1853 -0.0475
  262MOL   O12347625   0.501   5.861   8.136 -0.4159 -0.5636 -0.1317
  262MOL   H12447626   0.372   5.989   0.153  0.0928 -0.4733  0.2719
  262MOL   H12547627   0.134   5.865   0.199 -1.4239 -0.2362 -1.7331
  262MOL   H12647628   0.172   5.918   0.041 -0.6820 -0.3577  0.1859
  262MOL   H12747629   0.199   5.749   0.081  0.4734 -1.0423  0.7804
  262MOL   C12847630   0.568   5.785   8.035 -0.2920  0.0934 -0.8463
  262MOL   C12947631   0.638   5.889   7.945  0.1910  0.1307  0.0379
  262MOL   C13047632   0.488   5.676   7.969 -0.0264 -0.7418 -0.0215
  262MOL   O13147633   0.365   5.669   7.987 -0.0535  0.0556  0.6812
  262MOL   O13247634   0.552   5.603   7.879 -0.1995 -0.2203  0.0336
  262MOL   H13347635   0.647   5.735   8.092 -0.1415  1.1601 -0.0919
  262MOL   H13447636   0.697   5.838   7.868  0.4271  0.3538  0.0692
  262MOL   H13547637   0.560   5.951   7.901 -1.3435 -1.8815 -0.1586
  262MOL   H13647638   0.709   5.952   7.999 -1.3485  2.3309 -0.4487
  262MOL   C13747639   0.484   5.509   7.801  0.0768 -0.0953  0.2858
  262MOL   C13847640   0.593   5.425   7.740 -0.2964 -0.1804 -0.2917
  262MOL   C13947641   0.383   5.570   7.706 -0.3142 -0.0133  0.5606
  262MOL   O14047642   0.355   5.691   7.697 -0.2225 -0.0550  0.0764
  262MOL   O14147643   0.323   5.476   7.620 -0.8231  0.1155 -0.5019
  262MOL   H14247644   0.426   5.447   7.869 -0.3323 -0.1546 -0.1144
  262MOL   H14347645   0.652   5.492   7.677  0.8784  0.3184  1.3085
  262MOL   H14447646   0.669   5.386   7.807 -0.8224 -0.4489  0.1459
  262MOL   H14547647   0.549   5.349   7.675  1.2596 -2.0287  0.7969
  262MOL   C14647648   0.247   5.529   7.512 -0.6087 -0.0991  0.7318
  262MOL   C14747649   0.115   5.588   7.561 -0.2598  0.1799  0.0869
  262MOL   C14847650   0.237   5.424   7.405 -0.7838  0.3142 -0.4162
  262MOL   O14947651   0.132   5.407   7.346  0.3815  0.0070 -0.0688
  262MOL   O15047652   0.356   5.367   7.388 -0.7868 -0.2188  0.5999
  262MOL   H15147653   0.300   5.613   7.466  0.2941 -0.4820  1.0588
  262MOL   H15247654   0.119   5.685   7.610 -1.7585  0.1371  0.3186
  262MOL   H15347655   0.045   5.602   7.479 -0.9539 -3.7287 -0.0946
  262MOL   H15447656   0.053   5.524   7.624  0.3219  0.1735  0.6567
  262MOL   C15547657   0.377   5.282   7.270 -0.1573  0.3039 -0.2141
  262MOL   C15647658   0.519   5.225   7.279 -0.2770 -0.0583 -0.7650
  262MOL   C15747659   0.340   5.342   7.134 -0.3244 -0.7433 -0.3536
  262MOL   O15847660   0.241   5.307   7.069 -0.1567  0.4444 -0.5353
  262MOL   O15947661   0.429   5.438   7.099 -0.4263 -0.1575  0.0191
  262MOL   H16047662   0.306   5.202   7.291  0.8635 -1.2182 -2.3555
  262MOL   H16147663   0.541   5.189   7.379  2.9210  0.1805 -1.3355
  262MOL   H16247664   0.531   5.146   7.206  2.8715  0.5733 -0.9914
  262MOL   H16347665   0.583   5.305   7.242 -3.5779  1.4908 -3.4318
  262MOL   C16447666   0.425   5.503   6.965  0.0818  0.3473 -0.0032
  262MOL   C16547667   0.570   5.510   6.911 -0.8604 -0.3580 -0.0735
  262MOL   C16647668   0.355   5.638   6.958  0.0180 -0.4848 -0.0259
  262MOL   O16747669   0.419   5.743   6.944  0.2336  0.0834 -0.0169
  262MOL   O16847670   0.226   5.626   6.962  0.5310 -0.0476  0.4618
  262MOL   H16947671   0.371   5.442   6.893 -0.4981 -1.0404  1.5655
  262MOL   H17047672   0.606   5.412   6.880 -0.5538 -0.6864  1.3032
  262MOL   H17147673   0.567   5.567   6.818 -0.9196 -0.9949 -0.4652
  262MOL   H17247674   0.640   5.561   6.977 -0.4488 -0.8723 -0.1065
  262MOL   C17347675   0.134   5.733   6.978 -0.6567  0.3235 -0.3101
  262MOL   C17447676   0.059   5.689   7.102 -0.2305 -0.1319 -0.0586
  262MOL   C17547677   0.064   5.767   6.843 -0.0904  0.1446 -0.6668
  262MOL   O17647678   8.089   5.750   6.826  0.2332 -0.3896 -0.2184
  262MOL   O17747679   0.147   5.815   6.744  0.1925  0.3934 -0.3424
  262MOL   H17847680   0.189   5.825   7.001 -0.6250 -0.2382  2.0068
  262MOL   H17947681   8.118   5.747   7.129 -0.4284  0.2147 -1.4038
  262MOL   H18047682   0.022   5.588   7.082  0.3212 -0.4289  0.4073
  262MOL   H18147683   0.128   5.687   7.186  0.8111  0.4360 -0.8908
  262MOL   H18247684   0.092   5.831   6.668  1.3572 -1.0119 -1.4856
  263MOL     C147685   6.891   3.795   2.273 -0.2939 -0.3951  0.3737
  263MOL     C247686   6.846   3.666   2.329  0.2200 -1.0095  0.3352
  263MOL     C347687   6.787   3.906   2.257  0.0976 -0.9094 -0.5434
  263MOL     O447688   6.695   3.925   2.332  0.5255  0.0748 -0.1975
  263MOL     O547689   6.809   3.980   2.147 -0.4937  0.0651  0.0835
  263MOL     H647690   6.964   3.834   2.344  0.6601  0.3445 -0.9836
  263MOL     H747691   6.784   3.687   2.416 -0.8281 -2.9821  0.0879
  263MOL     H847692   6.780   3.607   2.265 -1.0636  0.5083  0.2138
  263MOL     H947693   6.929   3.607   2.368  0.2308 -0.7661  0.6771
  263MOL    H1047694   6.947   3.780   2.180 -1.1421  0.2070 -0.2409
  263MOL    C1147695   6.718   4.074   2.110  0.0291 -0.4238  0.0912
  263MOL    C1247696   6.730   4.108   1.964  0.0062  0.1593 -0.1604
  263MOL    C1347697   6.741   4.203   2.193 -0.2757  0.2743  0.3531
  263MOL    O1447698   6.850   4.250   2.181 -0.2740 -0.3866 -0.8272
  263MOL    O1547699   6.643   4.239   2.280  0.4645 -0.0169  0.0270
  263MOL    H1647700   6.618   4.045   2.144 -0.6245  1.3486 -0.2253
  263MOL    H1747701   6.820   4.157   1.927 -0.0624 -1.9008 -3.2046
  263MOL    H1847702   6.725   4.023   1.896 -1.9034  0.6283 -0.6577
  263MOL    H1947703   6.652   4.175   1.928 -0.5576 -0.5821 -0.3227
  263MOL    C2047704   6.661   4.340   2.382  0.4771 -0.2461 -0.8310
  263MOL    C2147705   6.551   4.322   2.477  0.9317  0.8866 -0.4592
  263MOL    C2247706   6.648   4.480   2.311  0.3773 -0.7419  0.9933
  263MOL    O2347707   6.734   4.565   2.323  0.0412 -0.2402  0.1768
  263MOL    O2447708   6.529   4.487   2.237 -0.0404  0.3345 -0.5286
  263MOL    H2547709   6.757   4.328   2.432  1.1857  0.0489 -2.1021
  263MOL    H2647710   6.559   4.386   2.565  0.7763 -0.0373  0.2459
  263MOL    H2747711   6.450   4.317   2.436  1.3242  1.5862 -1.5094
  263MOL    H2847712   6.556   4.216   2.502 -1.2565  0.7056 -0.7027
  263MOL    C2947713   6.516   4.586   2.129  0.3237 -0.0454 -0.5943
  263MOL    C3047714   6.366   4.577   2.088 -0.1789 -0.0443 -0.3011
  263MOL    C3147715   6.615   4.557   2.010 -0.0462  0.0291 -0.6362
  263MOL    O3247716   6.716   4.487   2.020  0.2660 -0.3728 -0.4709
  263MOL    O3347717   6.573   4.612   1.898  0.7314 -0.3503  0.0972
  263MOL    H3447718   6.541   4.688   2.159  0.1770 -0.0546 -0.4344
  263MOL    H3547719   6.346   4.502   2.011  0.1399 -0.9002  0.4456
  263MOL    H3647720   6.308   4.549   2.175 -0.0741 -1.9230 -0.7985
  263MOL    H3747721   6.323   4.669   2.049 -1.6336 -0.0365  1.2999
  263MOL    C3847722   6.626   4.572   1.773 -0.2635  0.7421 -0.6151
  263MOL    C3947723   6.612   4.697   1.685 -0.1778 -0.0806  0.4307
  263MOL    C4047724   6.547   4.452   1.712  0.4096  0.7734  0.2756
  263MOL    O4147725   6.472   4.385   1.777 -0.3347  0.1639  0.4344
  263MOL    O4247726   6.575   4.429   1.577 -0.3853  0.1512  0.2748
  263MOL    H4347727   6.733   4.553   1.783 -0.1866  1.5958  0.2149
  263MOL    H4447728   6.649   4.678   1.584  1.2566  1.6786  0.6025
  263MOL    H4547729   6.508   4.728   1.675 -0.0387  0.8217  1.7032
  263MOL    H4647730   6.675   4.778   1.721  0.9755 -1.2122  1.0055
  263MOL    C4747731   6.534   4.316   1.503 -0.1386  0.6271 -0.2710
  263MOL    C4847732   6.578   4.350   1.352 -0.0989  0.4694  0.0105
  263MOL    C4947733   6.385   4.292   1.509 -0.7797  0.2047 -0.2381
  263MOL    O5047734   6.307   4.384   1.533  0.1263  0.3594  0.4947
  263MOL    O5147735   6.358   4.169   1.479 -0.0462  0.0151 -0.0239
  263MOL    H5247736   6.593   4.231   1.537  0.5356  0.9028 -0.7268
  263MOL    H5347737   6.682   4.370   1.327 -0.5524  1.0260 -1.4558
  263MOL    H5447738   6.560   4.269   1.282  2.1162 -1.0123  1.0900
  263MOL    H5547739   6.522   4.436   1.315 -1.2324 -0.5967 -0.7728
  263MOL    C5647740   6.228   4.112   1.482  0.3923 -0.2266  0.3252
  263MOL    C5747741   6.259   3.966   1.498 -0.9711 -0.3345 -0.5406
  263MOL    C5847742   6.153   4.151   1.350 -0.0516  0.4663  0.2148
  263MOL    O5947743   6.045   4.208   1.361 -0.1759 -0.4151 -0.2591
  263MOL    O6047744   6.219   4.123   1.237 -0.0396  0.1863  0.5582
  263MOL    H6147745   6.170   4.154   1.564 -0.2026  0.4758 -0.4382
  263MOL    H6247746   6.333   3.934   1.424 -0.5361  0.0629 -0.2849
  263MOL    H6347747   6.307   3.944   1.593 -2.1822 -0.8639 -0.0371
  263MOL    H6447748   6.164   3.912   1.498 -1.5044  0.5538  1.3392
  263MOL    C6547749   6.188   4.172   1.108  0.1309  0.0366  0.2803
  263MOL    C6647750   6.279   4.092   1.005 -0.0150 -0.8757 -0.4186
  263MOL    C6747751   6.214   4.321   1.100  0.1369 -0.1627  0.2365
  263MOL    O6847752   6.263   4.395   1.184  0.5348  0.9880  0.1357
  263MOL    O6947753   6.186   4.377   0.977  0.1669 -0.3553  0.2511
  263MOL    H7047754   6.090   4.155   1.064 -1.1040 -0.9610  3.2713
  263MOL    H7147755   6.273   4.108   0.897 -0.9670  1.5041 -0.0460
  263MOL    H7247756   6.383   4.105   1.035  0.0496 -0.2315 -0.9107
  263MOL    H7347757   6.273   3.984   1.018  0.5112 -1.0511 -1.4975
  263MOL    C7447758   6.250   4.496   0.939 -0.1485 -0.4673 -0.2091
  263MOL    C7547759   6.167   4.545   0.819  0.0728 -0.4538  0.4343
  263MOL    C7647760   6.399   4.471   0.907 -0.1543 -1.0000 -0.3272
  263MOL    O7747761   6.447   4.359   0.906  0.2565 -0.6350 -0.3078
  263MOL    O7847762   6.461   4.578   0.881 -0.1420 -0.0414  0.2112
  263MOL    H7947763   6.251   4.564   1.024 -1.4767  0.5884 -1.0378
  263MOL    H8047764   6.153   4.469   0.742  1.8814 -0.8300  0.4520
  263MOL    H8147765   6.072   4.578   0.860 -0.8314 -2.8310  0.3170
  263MOL    H8247766   6.212   4.634   0.775  2.3739 -0.9103  1.7671
  263MOL    C8347767   6.590   4.582   0.818  0.0265  0.5734  0.0913
  263MOL    C8447768   6.639   4.730   0.822  0.0385  0.3354  0.0923
  263MOL    C8547769   6.596   4.527   0.675  0.0134  0.1912 -0.0885
  263MOL    O8647770   6.499   4.524   0.604 -0.3878 -0.2281 -1.0419
  263MOL    O8747771   6.720   4.509   0.637  0.5079  0.4324 -0.2869
  263MOL    H8847772   6.655   4.513   0.871  1.6244  1.6130 -0.4839
  263MOL    H8947773   6.582   4.789   0.751 -0.2645  1.0295  0.8979
  263MOL    H9047774   6.611   4.770   0.920 -0.2005 -0.3080  0.2927
  263MOL    H9147775   6.744   4.753   0.808 -0.0355  0.8949  0.4273
  263MOL    C9247776   6.761   4.491   0.503 -0.4552  0.6606 -0.3354
  263MOL    C9347777   6.745   4.345   0.452 -0.0302 -0.4015 -0.8987
  263MOL    C9447778   6.900   4.549   0.492  0.8758  0.0959 -0.0451
  263MOL    O9547779   6.993   4.476   0.463 -0.4206 -0.0346 -0.5944
  263MOL    O9647780   6.922   4.680   0.527 -0.0545  0.1335 -0.4640
  263MOL    H9747781   6.683   4.553   0.457 -0.2482  1.6958  0.6772
  263MOL    H9847782   6.638   4.339   0.431 -0.6680  4.3164  0.4381
  263MOL    H9947783   6.812   4.326   0.369  0.0675  0.8139 -1.1082
  263MOL   H10047784   6.775   4.283   0.537 -0.8415  1.2096  0.5888
  263MOL   C10147785   7.045   4.745   0.506  0.3293 -0.2479 -0.4884
  263MOL   C10247786   7.069   4.828   0.631  0.4972 -0.2102  0.0438
  263MOL   C10347787   7.048   4.829   0.375  1.9521  0.2813 -0.4676
  263MOL   O10447788   7.089   4.946   0.363  0.1298  0.6427  0.1987
  263MOL   O10547789   6.993   4.751   0.273 -0.3347 -0.1588 -0.0830
  263MOL   H10647790   7.127   4.673   0.496  0.0829 -0.6269  0.1323
  263MOL   H10747791   7.168   4.873   0.625  0.5365 -0.5631 -2.5129
  263MOL   H10847792   6.994   4.906   0.644  0.4699  0.0699 -1.6842
  263MOL   H10947793   7.060   4.775   0.726 -2.0612 -0.3260 -0.2329
  263MOL   C11047794   6.959   4.793   0.141 -0.8681 -0.2328  0.2868
  263MOL   C11147795   6.902   4.672   0.064  0.2908 -0.1883 -0.6721
  263MOL   C11247796   7.078   4.862   0.075  0.9896 -0.1128  0.0070
  263MOL   O11347797   7.185   4.803   0.062  0.0785  0.6998  0.2511
  263MOL   O11447798   7.054   4.980   0.026 -0.0715  0.2302 -0.3346
  263MOL   H11547799   6.878   4.865   0.152 -0.4330  0.0869  1.4532
  263MOL   H11647800   6.856   4.711   8.121  1.5011  1.3789 -0.6315
  263MOL   H11747801   6.984   4.609   0.031  2.0603  2.1701 -0.9703
  263MOL   H11847802   6.837   4.609   0.125  0.9505 -0.1579  0.0711
  263MOL   C11947803   7.150   5.051   8.091 -0.5520  0.3095  0.3144
  263MOL   C12047804   7.128   5.203   8.116 -0.1470 -0.1329 -0.0404
  263MOL   C12147805   7.138   5.016   7.940 -0.8222 -0.1341 -0.2787
  263MOL   O12247806   7.054   4.936   7.897  0.2799  0.0793  0.0925
  263MOL   O12347807   7.243   5.061   7.870 -0.0249 -0.2576  0.5855
  263MOL   H12447808   7.257   5.038   8.108 -0.7193  0.3955  1.4745
  263MOL   H12547809   7.204   5.268   8.071 -0.5030  1.5253  1.7086
  263MOL   H12647810   7.036   5.242   8.074 -0.2311 -1.5693 -1.2454
  263MOL   H12747811   7.116   5.220   0.075  1.3630  0.7434  0.0108
  263MOL   C12847812   7.257   5.027   7.726 -0.1823  0.3765  0.0211
  263MOL   C12947813   7.398   5.059   7.673 -0.4911  0.2091 -0.0258
  263MOL   C13047814   7.149   5.095   7.642 -0.5297  0.9255  0.3220
  263MOL   O13147815   7.066   5.176   7.681  0.0173  0.3194  0.3075
  263MOL   O13247816   7.161   5.053   7.515 -0.4669 -0.0238 -0.4476
  263MOL   H13347817   7.249   4.921   7.701 -0.7735  0.6542 -1.0173
  263MOL   H13447818   7.472   5.069   7.752  0.1335  0.1103 -0.5896
  263MOL   H13547819   7.428   4.989   7.595  0.1965 -0.0676  0.4827
  263MOL   H13647820   7.391   5.160   7.632  0.8240 -0.2513 -1.4631
  263MOL   C13747821   7.068   5.083   7.409  0.3338 -0.7379 -0.3017
  263MOL   C13847822   7.105   5.003   7.286  0.7330 -0.3679 -0.1559
  263MOL   C13947823   7.083   5.237   7.377 -0.8381 -0.0918  0.5346
  263MOL   O14047824   7.181   5.302   7.408  0.1673  0.5270  0.1941
  263MOL   O14147825   6.978   5.285   7.309 -0.3295  0.2508  0.7080
  263MOL   H14247826   6.970   5.048   7.441  1.7217 -1.2789  3.7696
  263MOL   H14347827   7.032   5.025   7.208  1.2907 -0.7607 -0.7906
  263MOL   H14447828   7.199   5.026   7.238  1.5803  0.2971  1.7611
  263MOL   H14547829   7.112   4.897   7.313 -3.3464 -1.0208 -1.2392
  263MOL   C14647830   6.998   5.419   7.253  0.1665  0.3131  0.5536
  263MOL   C14747831   6.988   5.528   7.350  0.0615 -0.3944 -0.5608
  263MOL   C14847832   6.900   5.439   7.140  0.4835  0.3551 -0.9039
  263MOL   O14947833   6.928   5.503   7.037 -0.5084 -0.6566  0.1687
  263MOL   O15047834   6.772   5.404   7.168  1.0605 -0.4635  0.4506
  263MOL   H15147835   7.097   5.429   7.208 -0.8738  3.3956 -1.2078
  263MOL   H15247836   7.077   5.526   7.412  0.3475  0.8813 -0.9099
  263MOL   H15347837   6.990   5.615   7.284  0.3445  0.8010  0.9878
  263MOL   H15447838   6.894   5.527   7.405  1.4213  1.6865  1.9361
  263MOL   C15547839   6.663   5.423   7.079  0.0235 -0.1826 -0.4168
  263MOL   C15647840   6.530   5.380   7.145  0.8926 -0.2086  1.0093
  263MOL   C15747841   6.690   5.363   6.943  0.6898 -0.0442  0.2202
  263MOL   O15847842   6.656   5.416   6.840  0.3543 -0.1913  0.0570
  263MOL   O15947843   6.741   5.240   6.957 -0.1951 -0.8700  0.5372
  263MOL   H16047844   6.646   5.528   7.058  0.8328  0.0781  0.1742
  263MOL   H16147845   6.521   5.272   7.145 -3.7810  0.0528  0.0957
  263MOL   H16247846   6.519   5.410   7.249 -0.4090  0.3341  0.7391
  263MOL   H16347847   6.447   5.414   7.082  1.5510  0.5450  0.5456
  263MOL   C16447848   6.822   5.179   6.850  0.4699  0.4278  0.3205
  263MOL   C16547849   6.736   5.064   6.798  0.6782  0.3229 -0.0932
  263MOL   C16647850   6.958   5.142   6.905 -0.2402 -0.6822  0.1406
  263MOL   O16747851   6.987   5.171   7.021 -0.4736 -0.2117  0.2875
  263MOL   O16847852   7.040   5.085   6.815  0.7878  0.1449  0.4410
  263MOL   H16947853   6.829   5.258   6.775  1.2969  1.0069  0.9988
  263MOL   H17047854   6.643   5.094   6.749  0.3389 -1.0249 -0.3016
  263MOL   H17147855   6.793   4.999   6.731 -2.4417 -1.8353 -0.7434
  263MOL   H17247856   6.697   5.003   6.879 -0.9221  2.7691  1.0472
  263MOL   C17347857   7.159   5.010   6.849  0.6563 -0.1453 -0.3830
  263MOL   C17447858   7.295   5.082   6.855  0.3951 -0.0169  0.4486
  263MOL   C17547859   7.155   4.893   6.751  0.2179 -0.2116 -0.2727
  263MOL   O17647860   7.249   4.859   6.671  0.0279  0.8777  0.3970
  263MOL   O17747861   7.033   4.836   6.758  0.2529  0.2816 -0.0487
  263MOL   H17847862   7.157   4.962   6.947 -0.0584 -3.9551 -2.1571
  263MOL   H17947863   7.312   5.119   6.754 -0.4921  0.6442  0.5404
  263MOL   H18047864   7.289   5.163   6.927  0.2113 -0.5117  0.9966
  263MOL   H18147865   7.380   5.017   6.874 -1.0358 -1.2310  2.9692
  263MOL   H18247866   7.032   4.770   6.689 -0.4611  0.9915 -0.7297
  264MOL     C147867   2.293   0.370   3.998  0.3378 -0.2400  0.6484
  264MOL     C247868   2.223   0.303   3.882 -0.2504 -0.3120  0.1779
  264MOL     C347869   2.437   0.325   4.022  0.1615 -0.1012  0.4630
  264MOL     O447870   2.466   0.261   4.123  0.2746  0.2240 -0.1672
  264MOL     O547871   2.516   0.363   3.916  0.4254  0.0069  0.0594
  264MOL     H647872   2.273   0.477   4.002 -3.4108 -0.7642 -1.3567
  264MOL     H747873   2.278   0.309   3.788 -0.8301  0.0139 -0.1430
  264MOL     H847874   2.210   0.198   3.908  1.5254 -0.3856  0.8081
  264MOL     H947875   2.120   0.336   3.870 -0.0568  0.2993  0.1528
  264MOL    H1047876   2.243   0.334   4.088 -0.0661 -1.1757  0.0629
  264MOL    C1147877   2.643   0.306   3.896 -0.1231  0.8267  0.1064
  264MOL    C1247878   2.699   0.370   3.765 -0.0934 -0.0190  0.6820
  264MOL    C1347879   2.642   0.155   3.871 -0.2637 -0.7124 -0.0068
  264MOL    O1447880   2.703   0.070   3.939 -0.0862 -0.0004  0.0512
  264MOL    O1547881   2.565   0.125   3.766  0.3879 -0.2779  0.2833
  264MOL    H1647882   2.700   0.332   3.985 -0.4366 -0.6581  0.7569
  264MOL    H1747883   2.617   0.369   3.693  2.7624 -0.1273 -2.7113
  264MOL    H1847884   2.716   0.477   3.777 -0.1158 -0.0113  0.6480
  264MOL    H1947885   2.781   0.323   3.711 -1.2913 -1.6726  0.2435
  264MOL    C2047886   2.539   8.136   3.728  0.2819 -0.5603 -0.1703
  264MOL    C2147887   2.436   8.145   3.614  0.7051 -0.0020  0.6397
  264MOL    C2247888   2.476   8.047   3.837  0.2773  0.2432 -0.2254
  264MOL    O2347889   2.452   8.081   3.952  0.1672  0.3950 -0.1501
  264MOL    O2447890   2.445   7.918   3.787 -0.0581 -0.5150 -0.1346
  264MOL    H2547891   2.627   8.083   3.692 -0.8125 -0.2990 -3.4151
  264MOL    H2647892   2.431   8.060   3.546 -0.9450  0.2875  0.3959
  264MOL    H2747893   2.341   0.005   3.667  0.5618 -1.1744  0.5515
  264MOL    H2847894   2.449   0.088   3.553  2.0388  0.4602  1.5865
  264MOL    C2947895   2.371   7.819   3.863 -0.4353  0.2910  0.1686
  264MOL    C3047896   2.436   7.678   3.833 -0.0226 -0.3823  0.0979
  264MOL    C3147897   2.224   7.819   3.824 -0.5225 -0.2306 -0.0719
  264MOL    O3247898   2.160   7.718   3.802 -0.5845 -0.6345 -0.9225
  264MOL    O3347899   2.172   7.944   3.819  0.4312 -0.0638 -0.3554
  264MOL    H3447900   2.379   7.835   3.971  1.3205  0.2781  0.0403
  264MOL    H3547901   2.543   7.683   3.851  0.4143 -1.5401 -2.0692
  264MOL    H3647902   2.390   7.597   3.891  4.0849 -3.0971 -0.1930
  264MOL    H3747903   2.424   7.650   3.729  0.7148  2.1918 -0.7117
  264MOL    C3847904   2.033   7.972   3.857 -0.1104  0.2236  0.4805
  264MOL    C3947905   1.989   8.098   3.781 -0.0915  0.2296 -0.2382
  264MOL    C4047906   2.030   7.985   4.009 -0.0930 -0.0488  0.3916
  264MOL    O4147907   1.947   7.929   4.077 -0.1763  0.2412 -0.2038
  264MOL    O4247908   2.137   8.060   4.058 -0.2786  0.0408 -0.4427
  264MOL    H4347909   1.972   7.885   3.834 -1.6420  0.9591  1.6807
  264MOL    H4447910   1.880   8.098   3.769 -0.0552  0.6641 -0.5871
  264MOL    H4547911   2.005   0.044   3.835 -3.3032  0.8880 -0.3396
  264MOL    H4647912   2.047   8.099   3.689  0.1717 -2.3878 -0.1365
  264MOL    C4747913   2.152   8.088   4.198  0.3699  0.2378  0.1847
  264MOL    C4847914   2.257   0.053   4.221  0.1918  0.1153  0.1692
  264MOL    C4947915   2.182   7.963   4.287 -0.4114  0.0170  0.0332
  264MOL    O5047916   2.143   7.951   4.400  0.4799  0.1656 -0.3623
  264MOL    O5147917   2.253   7.869   4.221 -0.2661 -0.0320 -0.4948
  264MOL    H5247918   2.057   8.125   4.236  0.0268 -1.6759  1.2185
  264MOL    H5347919   2.281   0.071   4.326  0.8316  0.4501 -0.0274
  264MOL    H5447920   2.352   0.036   4.170  0.7110  0.1534  1.1184
  264MOL    H5547921   2.208   0.147   4.197 -1.3123  0.1644  3.2655
  264MOL    C5647922   2.321   7.768   4.298  0.0141 -0.4105 -0.1711
  264MOL    C5747923   2.459   7.811   4.351  0.7343 -0.3131  0.4703
  264MOL    C5847924   2.319   7.646   4.211  1.0330  0.2234  0.0127
  264MOL    O5947925   2.420   7.612   4.151  0.3470 -0.7389  0.2934
  264MOL    O6047926   2.190   7.584   4.203  0.1093  0.1643  0.8283
  264MOL    H6147927   2.255   7.735   4.378 -1.6901  0.9756 -0.9753
  264MOL    H6247928   2.441   7.903   4.406 -2.3140 -0.2427 -0.5666
  264MOL    H6347929   2.504   7.741   4.421 -1.3535 -2.1974  0.0065
  264MOL    H6447930   2.524   7.840   4.268  0.2721  0.7596  0.4798
  264MOL    C6547931   2.182   7.460   4.124  0.4153  0.1965 -0.2139
  264MOL    C6647932   2.033   7.436   4.086  0.1470  0.3576  0.6558
  264MOL    C6747933   2.227   7.348   4.210  0.1907 -0.2942  0.8588
  264MOL    O6847934   2.298   7.260   4.171 -0.1439  0.1458  0.3933
  264MOL    O6947935   2.168   7.355   4.334 -0.2184 -0.2808 -0.4862
  264MOL    H7047936   2.239   7.461   4.031 -0.0866  1.5211 -0.5285
  264MOL    H7147937   1.968   7.464   4.170 -1.5218 -0.2832 -0.3932
  264MOL    H7247938   2.001   7.482   3.992 -1.9457  0.2856  1.3053
  264MOL    H7347939   2.013   7.336   4.049 -0.8410  0.7063  0.2342
  264MOL    C7447940   2.199   7.253   4.435 -0.4775  0.6403 -0.1296
  264MOL    C7547941   2.072   7.253   4.528  0.4822  1.1095  0.0392
  264MOL    C7647942   2.339   7.276   4.495  0.7122  0.0787  0.5219
  264MOL    O7747943   2.428   7.336   4.431 -0.3875  0.0063  0.0202
  264MOL    O7847944   2.354   7.227   4.620 -0.2652 -0.0475 -0.0059
  264MOL    H7947945   2.206   7.158   4.381 -1.4614  1.2407 -1.3152
  264MOL    H8047946   1.977   7.229   4.479 -1.0901  0.2991  3.3164
  264MOL    H8147947   2.080   7.182   4.609  0.4004  0.4785 -0.5038
  264MOL    H8247948   2.059   7.353   4.570  0.4590  0.2322  2.1711
  264MOL    C8347949   2.472   7.248   4.694  0.3065  0.3644  0.4965
  264MOL    C8447950   2.476   7.154   4.809 -0.3078 -0.1901 -0.1119
  264MOL    C8547951   2.500   7.399   4.733 -0.1137 -1.0380 -0.6427
  264MOL    O8647952   2.407   7.485   4.725  0.3243  0.2317 -0.1735
  264MOL    O8747953   2.628   7.417   4.786  0.1722 -0.4403  0.3455
  264MOL    H8847954   2.557   7.220   4.633  0.1530 -0.4206  0.6413
  264MOL    H8947955   2.568   7.172   4.865 -0.4537 -1.1457  0.4452
  264MOL    H9047956   2.385   7.149   4.868 -0.4430 -3.2553 -0.5222
  264MOL    H9147957   2.506   7.055   4.773  1.1061  0.5173 -0.9300
  264MOL    C9247958   2.690   7.544   4.789  0.2512  0.3645  0.1162
  264MOL    C9347959   2.835   7.520   4.828 -0.0999  0.0640  0.6025
  264MOL    C9447960   2.615   7.639   4.874  0.1540 -1.0282  0.2909
  264MOL    O9547961   2.542   7.729   4.826 -0.0261  0.6016 -1.0545
  264MOL    O9647962   2.636   7.611   5.004  0.4640  0.3822  0.7957
  264MOL    H9747963   2.678   7.592   4.692  1.0184 -0.2104 -0.2711
  264MOL    H9847964   2.890   7.614   4.834  0.2063  0.1012 -2.0221
  264MOL    H9947965   2.830   7.454   4.915  1.4944 -2.6185 -1.2814
  264MOL   H10047966   2.869   7.460   4.744 -1.2924 -0.5902  0.5778
  264MOL   C10147967   2.572   7.694   5.096  0.3095 -0.0013 -0.4645
  264MOL   C10247968   2.661   7.692   5.222 -0.3535  1.2057  0.2209
  264MOL   C10347969   2.424   7.653   5.130 -0.3166  0.1121 -0.1202
  264MOL   O10447970   2.377   7.544   5.096  0.3799 -0.7880  0.0654
  264MOL   O10547971   2.361   7.748   5.187  0.0265 -0.2949  0.0691
  264MOL   H10647972   2.567   7.799   5.069 -0.2562  0.1144  0.0694
  264MOL   H10747973   2.763   7.702   5.186  0.4244 -1.4764  1.5250
  264MOL   H10847974   2.638   7.767   5.298  4.0652  0.4982  2.4086
  264MOL   H10947975   2.651   7.596   5.274  1.1160  0.8962 -0.0400
  264MOL   C11047976   2.224   7.730   5.226  0.3832 -0.6345 -0.1729
  264MOL   C11147977   2.150   7.865   5.250 -0.5454 -1.0857  0.0732
  264MOL   C11247978   2.213   7.631   5.348 -0.3270 -0.1472 -0.0636
  264MOL   O11347979   2.320   7.593   5.406  0.3676  0.2887  0.0759
  264MOL   O11447980   2.091   7.606   5.380  0.3288  0.7179 -0.0130
  264MOL   H11547981   2.167   7.679   5.148  1.4950  0.5657 -1.8104
  264MOL   H11647982   2.044   7.840   5.251 -0.3686 -1.8471  1.2176
  264MOL   H11747983   2.171   7.903   5.350 -0.2928  0.2925 -0.5037
  264MOL   H11847984   2.171   7.939   5.174  0.8237 -1.7199 -0.1805
  264MOL   C11947985   2.067   7.538   5.505 -0.1765  0.1342 -0.2887
  264MOL   C12047986   1.929   7.472   5.496  0.1656  0.1144  0.1419
  264MOL   C12147987   2.086   7.632   5.622 -0.8191  0.2041 -0.5482
  264MOL   O12247988   2.167   7.611   5.710  0.2582 -0.0270 -0.1053
  264MOL   O12347989   2.011   7.745   5.612  0.3211  0.0379  0.3244
  264MOL   H12447990   2.131   7.451   5.522 -2.7763 -1.2840  2.8458
  264MOL   H12547991   1.858   7.545   5.457 -1.9265 -1.7152  0.3788
  264MOL   H12647992   1.924   7.393   5.421  0.6677  0.6425 -0.4557
  264MOL   H12747993   1.889   7.443   5.594  0.0947 -0.3806 -0.0283
  264MOL   C12847994   2.032   7.857   5.707  0.1714  0.5200  0.0956
  264MOL   C12947995   1.919   7.956   5.685 -0.5446  0.5893  0.3123
  264MOL   C13047996   2.180   7.915   5.701  0.1945 -0.0043  0.6538
  264MOL   O13147997   2.220   7.969   5.601  1.0424 -0.7061  0.1392
  264MOL   O13247998   2.253   7.891   5.807  0.6914  0.4569 -0.2993
  264MOL   H13347999   2.014   7.814   5.805 -0.0888 -1.1767 -0.6782
  264MOL   H13448000   1.904   7.998   5.785 -1.3507 -0.4094  0.6238
  264MOL   H13548001   1.940   8.035   5.613  0.0866 -0.4343 -0.6392
  264MOL   H13648002   1.830   7.900   5.655 -0.5618  0.2550  0.9612
  264MOL   C13748003   2.390   7.891   5.804 -0.1923  0.4186 -0.4443
  264MOL   C13848004   2.435   7.785   5.906  0.1001 -0.1351  0.1189
  264MOL   C13948005   2.450   8.037   5.824  0.3926 -0.2711  0.1660
  264MOL   O14048006   2.372   8.133   5.838 -0.1950  0.1176 -0.3811
  264MOL   O14148007   2.585   8.041   5.828  0.0022 -0.5227 -0.2746
  264MOL   H14248008   2.427   7.853   5.709  0.1033 -1.0190  0.2198
  264MOL   H14348009   2.438   7.686   5.861  2.2407  0.3026 -0.7668
  264MOL   H14448010   2.537   7.796   5.942  0.1828  0.5409 -0.3009
  264MOL   H14548011   2.372   7.783   5.995 -1.0665  3.5048 -0.5538
  264MOL   C14648012   2.668   0.007   5.803 -0.2864 -0.3121 -0.3398
  264MOL   C14748013   2.694   0.091   5.926 -0.0486  1.2039  0.1917
  264MOL   C14848014   2.625   0.087   5.677 -0.0305 -0.1590 -0.2081
  264MOL   O14948015   2.612   0.210   5.681 -0.5405  0.0529  0.2739
  264MOL   O15048016   2.598   0.012   5.568 -0.3674 -0.2801  0.0628
  264MOL   H15148017   2.760   8.113   5.764  0.4421 -0.3990  1.4317
  264MOL   H15248018   2.603   0.150   5.926 -1.3744 -0.8091 -0.7591
  264MOL   H15348019   2.687   0.023   6.011  0.4944  0.0945 -0.6285
  264MOL   H15448020   2.790   0.140   5.943  0.1193  0.5180  1.3069
  264MOL   C15548021   2.550   0.066   5.444 -0.1507 -0.1988 -0.4677
  264MOL   C15648022   2.516   8.093   5.359  0.2614 -0.5545  0.2120
  264MOL   C15748023   2.641   0.169   5.373  0.1823  0.1650  0.2258
  264MOL   O15848024   2.759   0.149   5.332 -0.7859  0.2010  0.3831
  264MOL   O15948025   2.574   0.274   5.348 -0.2883  0.5356  0.2740
  264MOL   H16048026   2.453   0.115   5.442 -0.9277 -1.7422 -1.3211
  264MOL   H16148027   2.456   8.010   5.397  0.5756 -1.1957 -0.6563
  264MOL   H16248028   2.465   8.139   5.274  0.8749 -0.5387 -0.1504
  264MOL   H16348029   2.605   8.054   5.310  1.8113  1.1459  1.6554
  264MOL   C16448030   2.622   0.375   5.260 -0.1260  0.0039  0.5172
  264MOL   C16548031   2.544   0.505   5.302 -0.0380 -0.1304  0.1745
  264MOL   C16648032   2.586   0.341   5.117  0.5092  0.8143 -0.2146
  264MOL   O16748033   2.493   0.260   5.091  0.0911  0.2043  0.8992
  264MOL   O16848034   2.661   0.411   5.032 -0.2087  0.2818 -0.4333
  264MOL   H16948035   2.731   0.382   5.264 -0.1400  1.1070 -0.6398
  264MOL   H17048036   2.593   0.592   5.259 -0.2287 -1.0977 -2.0831
  264MOL   H17148037   2.438   0.502   5.280 -0.0626 -0.4065  0.3290
  264MOL   H17248038   2.547   0.532   5.407 -1.6491  0.2864  0.1106
  264MOL   C17348039   2.646   0.399   4.889  0.7357  0.3224  0.4607
  264MOL   C17448040   2.777   0.403   4.811  0.5625  0.3853 -0.2676
  264MOL   C17548041   2.538   0.492   4.836  0.4300 -0.7550  0.2082
  264MOL   O17648042   2.432   0.463   4.784  0.0084 -0.5769  0.8191
  264MOL   O17748043   2.577   0.622   4.871 -0.1349  1.2797  0.1499
  264MOL   H17848044   2.606   0.298   4.876 -0.7670  0.7608  1.5874
  264MOL   H17948045   2.761   0.350   4.717 -1.7983  0.8388 -0.1671
  264MOL   H18048046   2.811   0.505   4.798 -2.2061  1.3646 -0.2163
  264MOL   H18148047   2.858   0.353   4.864  0.7848  0.7988 -0.2142
  264MOL   H18248048   2.665   0.624   4.905 -0.7174 -0.3440  1.8188
  265MOL     C148049   3.082   5.684   2.851 -0.0295 -0.3865  0.0396
  265MOL     C248050   3.234   5.686   2.839 -0.2561 -0.0573 -0.1444
  265MOL     C348051   3.021   5.792   2.763  0.8893  0.3539 -0.2255
  265MOL     O448052   3.070   5.829   2.660  0.3201 -0.1699 -0.3793
  265MOL     O548053   2.911   5.836   2.817  0.3815  0.3956  0.9447
  265MOL     H648054   3.037   5.585   2.839 -0.9361 -0.1163  1.1626
  265MOL     H748055   3.277   5.786   2.834  0.8814 -0.6078 -1.4434
  265MOL     H848056   3.266   5.642   2.933  1.7866 -0.8866 -1.2018
  265MOL     H948057   3.270   5.625   2.757  1.3296 -1.7707  1.7770
  265MOL    H1048058   3.065   5.716   2.954  1.3365 -0.3255  0.2536
  265MOL    C1148059   2.829   5.943   2.753 -0.2493  0.2242  0.0335
  265MOL    C1248060   2.777   6.024   2.868 -0.3917  0.4287 -0.4941
  265MOL    C1348061   2.729   5.865   2.662 -0.1697  0.2839 -0.9404
  265MOL    O1448062   2.735   5.863   2.541  0.2352  0.8392 -0.7623
  265MOL    O1548063   2.621   5.807   2.735 -0.4462 -0.8256 -0.2728
  265MOL    H1648064   2.885   6.013   2.692 -0.1131 -0.2237 -0.3600
  265MOL    H1748065   2.777   6.131   2.847 -1.0367  0.3320 -1.0119
  265MOL    H1848066   2.677   5.989   2.892  0.8137 -1.6578  1.7191
  265MOL    H1948067   2.845   6.024   2.953 -0.8296 -1.9012 -0.0906
  265MOL    C2048068   2.510   5.730   2.685 -0.4759 -0.3150  0.6838
  265MOL    C2148069   2.408   5.684   2.795 -0.4281  0.4251 -0.0460
  265MOL    C2248070   2.559   5.612   2.597 -0.0799  0.5104  0.1420
  265MOL    O2348071   2.546   5.604   2.473  0.1388 -0.6999 -0.4928
  265MOL    O2448072   2.609   5.516   2.674  0.5865  0.6834 -0.3557
  265MOL    H2548073   2.455   5.791   2.614 -1.1179 -0.6177  0.9224
  265MOL    H2648074   2.364   5.775   2.834  0.6982  0.9833 -0.0544
  265MOL    H2748075   2.344   5.602   2.761  1.5293 -1.5531  0.8824
  265MOL    H2848076   2.457   5.658   2.888  0.2388 -0.4005 -0.6228
  265MOL    C2948077   2.678   5.398   2.622  0.2300 -0.4202  0.4083
  265MOL    C3048078   2.660   5.271   2.718  0.2429 -0.4118 -0.1311
  265MOL    C3148079   2.825   5.431   2.598  0.7867  0.7780  0.6832
  265MOL    O3248080   2.920   5.395   2.671  0.0233  0.0175 -0.4860
  265MOL    O3348081   2.844   5.524   2.494  0.2088 -0.1332  0.2079
  265MOL    H3448082   2.638   5.362   2.527  4.1279  2.2545 -2.3772
  265MOL    H3548083   2.556   5.254   2.743  0.2824 -0.7896 -0.2256
  265MOL    H3648084   2.697   5.181   2.668  1.7782  1.6514 -2.9259
  265MOL    H3748085   2.691   5.292   2.820 -1.4012  1.7792 -0.0545
  265MOL    C3848086   2.975   5.564   2.443  0.3815 -0.1618 -0.3844
  265MOL    C3948087   2.953   5.678   2.340  0.9006  0.1759 -0.5314
  265MOL    C4048088   3.046   5.447   2.369 -0.0424  0.5385  0.8306
  265MOL    O4148089   2.991   5.342   2.327 -0.0536 -0.7106  0.5453
  265MOL    O4248090   3.182   5.469   2.362 -0.2354  0.8075 -0.4873
  265MOL    H4348091   3.043   5.594   2.522 -0.3647 -0.8829  0.5425
  265MOL    H4448092   2.926   5.770   2.391  0.4890 -1.0559  1.5268
  265MOL    H4548093   3.048   5.697   2.291 -0.2072  0.4721 -2.6190
  265MOL    H4648094   2.883   5.642   2.265  0.5633 -0.4591  0.0747
  265MOL    C4748095   3.253   5.386   2.270  0.6517 -0.0554 -0.1223
  265MOL    C4848096   3.402   5.390   2.295 -0.5675  0.2765 -0.0380
  265MOL    C4948097   3.232   5.444   2.126 -0.0815 -0.2606 -0.2845
  265MOL    O5048098   3.165   5.542   2.096  0.1045 -0.0591  0.7773
  265MOL    O5148099   3.270   5.351   2.035  0.0802  0.0713  0.2800
  265MOL    H5248100   3.223   5.281   2.273 -3.1426  0.8809 -1.9644
  265MOL    H5348101   3.418   5.331   2.385 -0.6372 -0.7911 -0.7172
  265MOL    H5448102   3.444   5.347   2.204 -0.7204  2.1877 -1.0308
  265MOL    H5548103   3.444   5.488   2.312 -0.7697  0.4909 -0.7532
  265MOL    C5648104   3.242   5.362   1.894  0.2126  0.9710 -0.1357
  265MOL    C5748105   3.310   5.249   1.816 -0.5336 -0.5830 -0.4505
  265MOL    C5848106   3.274   5.497   1.822 -0.2423 -0.0001  0.0020
  265MOL    O5948107   3.373   5.564   1.848 -0.1986 -0.2862 -0.2569
  265MOL    O6048108   3.184   5.534   1.725  0.2253 -0.6068  0.5284
  265MOL    H6148109   3.137   5.335   1.901  0.5131  0.4321  3.1443
  265MOL    H6248110   3.294   5.159   1.874 -0.6821  1.1411  2.2519
  265MOL    H6348111   3.270   5.242   1.714 -3.8588  0.3703  0.7181
  265MOL    H6448112   3.418   5.253   1.801 -0.5725 -1.0822 -0.8860
  265MOL    C6548113   3.187   5.658   1.651 -0.5144  0.4174 -0.7602
  265MOL    C6648114   3.056   5.739   1.680 -0.0612 -0.4734  0.0620
  265MOL    C6748115   3.210   5.621   1.505  0.0265 -0.4032 -0.3639
  265MOL    O6848116   3.237   5.504   1.472 -0.5521 -0.6154 -0.1362
  265MOL    O6948117   3.223   5.734   1.424  0.2295 -0.3369 -0.3913
  265MOL    H7048118   3.269   5.723   1.681 -1.4803  2.4082 -2.3002
  265MOL    H7148119   3.034   5.728   1.786 -0.9780 -0.3020 -0.1063
  265MOL    H7248120   3.057   5.844   1.653 -1.3304 -0.6543 -0.7146
  265MOL    H7348121   2.970   5.691   1.632 -1.3699  0.5035  1.3768
  265MOL    C7448122   3.281   5.711   1.288 -0.0882  0.0962  0.1013
  265MOL    C7548123   3.317   5.853   1.239  0.2648 -0.6315 -0.4362
  265MOL    C7648124   3.175   5.641   1.202 -0.0615  0.0176  0.3481
  265MOL    O7748125   3.196   5.525   1.161  0.3952  0.9328  0.1454
  265MOL    O7848126   3.070   5.716   1.183  0.1464  0.8271  0.4755
  265MOL    H7948127   3.368   5.645   1.291 -0.4829 -0.3331  3.0834
  265MOL    H8048128   3.340   5.916   1.325  1.0214 -0.3767 -0.8225
  265MOL    H8148129   3.412   5.855   1.186 -0.8183  2.2136 -2.3881
  265MOL    H8248130   3.247   5.893   1.166  0.2704  0.2583  0.0410
  265MOL    C8348131   2.942   5.669   1.147  0.5418  0.0322  0.0178
  265MOL    C8448132   2.894   5.750   1.027 -0.0625  0.6842  0.1779
  265MOL    C8548133   2.847   5.688   1.264 -0.3484 -0.3080 -0.0716
  265MOL    O8648134   2.881   5.737   1.370 -0.3304  0.4795 -0.0976
  265MOL    O8748135   2.719   5.628   1.240 -0.0163  0.2105 -0.3790
  265MOL    H8848136   2.953   5.567   1.112 -0.5307 -0.1093  0.0777
  265MOL    H8948137   2.825   5.827   1.063 -0.0943  2.3077 -3.2169
  265MOL    H9048138   2.969   5.802   0.968  1.1768 -0.8257  0.4063
  265MOL    H9148139   2.836   5.686   0.961 -0.2915 -0.5330  1.5369
  265MOL    C9248140   2.633   5.614   1.349  0.3760  0.1235  0.5699
  265MOL    C9348141   2.518   5.527   1.305 -0.5110 -0.2717 -0.0781
  265MOL    C9448142   2.579   5.746   1.389 -0.3934 -0.1011  0.5783
  265MOL    O9548143   2.543   5.774   1.501 -0.2150 -0.3415  0.4538
  265MOL    O9648144   2.575   5.837   1.292  0.4469 -0.7103  0.5656
  265MOL    H9748145   2.675   5.567   1.438  0.6160  1.1658  1.0099
  265MOL    H9848146   2.466   5.480   1.389 -1.3107 -2.4023 -1.7136
  265MOL    H9948147   2.439   5.582   1.254 -0.3594 -0.0535 -0.0753
  265MOL   H10048148   2.549   5.449   1.235 -2.6009 -0.4231 -0.8573
  265MOL   C10148149   2.511   5.963   1.302 -0.2605 -0.0127  0.2594
  265MOL   C10248150   2.386   5.969   1.214  0.0757  0.5285  0.0099
  265MOL   C10348151   2.616   6.071   1.269  0.3078  0.8942  0.3464
  265MOL   O10448152   2.639   6.169   1.345  0.2079 -0.2277  0.2715
  265MOL   O10548153   2.665   6.059   1.140 -0.3192  0.2019 -0.3330
  265MOL   H10648154   2.474   5.984   1.402  3.1880 -1.0938  1.8277
  265MOL   H10748155   2.400   5.933   1.112  2.2284 -2.4412  1.2908
  265MOL   H10848156   2.298   5.919   1.255  0.7539  0.3663  1.2845
  265MOL   H10948157   2.364   6.075   1.205 -1.1735  0.2708 -0.1000
  265MOL   C11048158   2.771   6.141   1.086  0.0943 -0.0431  0.1771
  265MOL   C11148159   2.764   6.126   0.936  0.5459 -0.4004  0.5433
  265MOL   C11248160   2.915   6.100   1.136  0.0122 -0.1005  0.3699
  265MOL   O11348161   3.004   6.065   1.061  0.1799  0.2289  0.6709
  265MOL   O11448162   2.926   6.114   1.274  0.6373  0.0294 -0.0467
  265MOL   H11548163   2.744   6.241   1.120 -1.0493  0.0869 -1.0626
  265MOL   H11648164   2.685   6.190   0.896  0.0152 -1.5091 -0.2213
  265MOL   H11748165   2.850   6.176   0.892  0.7580 -0.0137  1.3863
  265MOL   H11848166   2.751   6.023   0.903 -0.4707 -0.0467 -0.1871
  265MOL   C11948167   3.049   6.081   1.340 -0.3784 -0.1946 -0.0290
  265MOL   C12048168   2.992   6.057   1.485 -0.3537 -0.0256 -0.3815
  265MOL   C12148169   3.149   6.199   1.340  0.1572  0.2588 -0.3202
  265MOL   O12248170   3.119   6.309   1.294  0.0296 -0.0892  0.8918
  265MOL   O12348171   3.267   6.152   1.381 -0.4813 -0.0793 -0.6639
  265MOL   H12448172   3.098   5.988   1.312  0.4034  1.0910 -3.1133
  265MOL   H12548173   2.929   5.968   1.486 -0.3534 -0.0650 -1.9494
  265MOL   H12648174   3.077   6.024   1.543  0.6628  3.3089  0.1143
  265MOL   H12748175   2.947   6.145   1.533  0.3940  0.3050 -0.2836
  265MOL   C12848176   3.392   6.224   1.370  0.2928 -0.6255  0.2028
  265MOL   C12948177   3.406   6.337   1.474  0.9532  0.0325 -0.7339
  265MOL   C13048178   3.429   6.258   1.223 -0.7464 -0.0747  0.5362
  265MOL   O13148179   3.507   6.349   1.198  0.0503  0.0312  0.1725
  265MOL   O13248180   3.365   6.190   1.124  0.1566  0.4491  0.4797
  265MOL   H13348181   3.459   6.147   1.407  0.6978  0.7574  2.4315
  265MOL   H13448182   3.312   6.391   1.465  1.3266  0.8131 -0.1256
  265MOL   H13548183   3.446   6.302   1.570  4.2544 -1.1190 -2.4448
  265MOL   H13648184   3.473   6.418   1.445  2.2083 -0.2417  1.2346
  265MOL   C13748185   3.390   6.223   0.984  0.4744 -0.5442 -0.0778
  265MOL   C13848186   3.259   6.175   0.914 -0.3245 -0.5696 -0.7505
  265MOL   C13948187   3.506   6.158   0.921  0.1063  0.2003  0.2336
  265MOL   O14048188   3.566   6.060   0.974 -0.2692 -0.3573 -0.0643
  265MOL   O14148189   3.543   6.208   0.804 -0.0552 -0.3467  0.0702
  265MOL   H14248190   3.404   6.330   0.969 -1.9732 -0.2930 -0.7417
  265MOL   H14348191   3.250   6.068   0.934  1.1121 -0.5980 -0.1627
  265MOL   H14448192   3.172   6.226   0.954  0.8798  1.1498 -0.2802
  265MOL   H14548193   3.276   6.186   0.807  2.8193  3.1225  0.0354
  265MOL   C14648194   3.652   6.144   0.729 -0.4650 -0.0285  0.5779
  265MOL   C14748195   3.726   6.267   0.666 -0.4405 -0.2504  0.3330
  265MOL   C14848196   3.608   6.041   0.626 -0.2064  0.2616  0.2055
  265MOL   O14948197   3.489   6.007   0.625  0.6393 -0.2258  0.0060
  265MOL   O15048198   3.699   6.001   0.540  0.4562 -0.2221 -0.0572
  265MOL   H15148199   3.727   6.089   0.787 -0.2160  1.5340  1.7702
  265MOL   H15248200   3.664   6.345   0.622 -1.9023 -1.8485 -0.4771
  265MOL   H15348201   3.794   6.318   0.735  0.0460  0.1755 -0.4587
  265MOL   H15448202   3.794   6.241   0.586  1.5634  2.7197  0.9951
  265MOL   C15548203   3.666   5.908   0.432 -0.7367  0.0363 -0.3534
  265MOL   C15648204   3.778   5.821   0.388  0.2635 -0.3335 -0.3635
  265MOL   C15748205   3.624   5.995   0.309 -0.2498  0.1353  0.7897
  265MOL   O15848206   3.512   5.980   0.255  0.0017 -0.1789 -0.0809
  265MOL   O15948207   3.725   6.085   0.275 -0.3284  0.1551 -0.6363
  265MOL   H16048208   3.592   5.840   0.474  0.6688 -0.0493  2.0610
  265MOL   H16148209   3.747   5.731   0.334 -0.1663 -0.8309  0.6970
  265MOL   H16248210   3.846   5.871   0.320  0.5338 -1.1962 -0.7390
  265MOL   H16348211   3.831   5.794   0.480  2.5056  2.8702 -0.6168
  265MOL   C16448212   3.702   6.183   0.175  0.6807 -0.9473  0.8477
  265MOL   C16548213   3.838   6.243   0.138 -0.2425 -0.5979  0.3773
  265MOL   C16648214   3.607   6.288   0.229 -0.1378 -0.4875 -0.3986
  265MOL   O16748215   3.566   6.291   0.346 -0.0140  0.7869 -0.3050
  265MOL   O16848216   3.587   6.381   0.129 -0.0710 -0.4662  0.0509
  265MOL   H16948217   3.650   6.143   0.088  1.3338 -2.1716  1.0089
  265MOL   H17048218   3.875   6.316   0.211 -2.2396  1.4097 -0.5673
  265MOL   H17148219   3.917   6.169   0.128  0.3173 -0.1301  1.2463
  265MOL   H17248220   3.819   6.291   0.042 -1.2060  2.3923  2.0203
  265MOL   C17348221   3.491   6.487   0.153 -0.2741  0.8021  0.1699
  265MOL   C17448222   3.403   6.535   0.028  0.4637  0.0257 -0.7704
  265MOL   C17548223   3.561   6.598   0.227 -0.5308  0.7270 -0.4534
  265MOL   O17648224   3.523   6.651   0.330 -0.2391  0.0464 -0.0831
  265MOL   O17748225   3.677   6.637   0.160  0.3807 -0.3789 -0.0424
  265MOL   H17848226   3.418   6.440   0.219 -0.7018  1.1507 -0.0508
  265MOL   H17948227   3.336   6.454   8.147  0.9456 -0.2322 -1.1862
  265MOL   H18048228   3.339   6.622   0.035 -1.3687 -1.3165 -0.3752
  265MOL   H18148229   3.478   6.552   8.099  0.8846 -1.4814 -0.7145
  265MOL   H18248230   3.712   6.717   0.197 -0.9343  0.5364 -0.7264
  266MOL     C148231   1.983   6.896   4.264 -0.2933  0.6165  0.6077
  266MOL     C248232   1.872   6.930   4.368  0.7317 -0.2392  0.0634
  266MOL     C348233   1.925   6.833   4.133 -0.1467 -0.4161 -0.5400
  266MOL     O448234   1.988   6.771   4.053  0.5745 -0.5496 -0.0378
  266MOL     O548235   1.796   6.861   4.110  0.5400 -0.8086  0.2053
  266MOL     H648236   2.023   6.991   4.229  0.6961 -0.1325 -0.3081
  266MOL     H748237   1.922   6.912   4.464 -0.8580  0.0226  0.9592
  266MOL     H848238   1.853   7.037   4.364  1.7229 -0.0053  1.3140
  266MOL     H948239   1.779   6.874   4.358  0.0954  1.0306 -1.2779
  266MOL    H1048240   2.062   6.832   4.304 -1.1973 -1.2586 -0.5047
  266MOL    C1148241   1.726   6.804   4.005  0.3263  0.5281  0.3668
  266MOL    C1248242   1.589   6.882   3.989  0.4473 -0.1618 -1.1618
  266MOL    C1348243   1.702   6.653   4.029 -0.1942 -0.3194  0.5046
  266MOL    O1448244   1.725   6.569   3.939 -0.0641 -0.0216 -0.3977
  266MOL    O1548245   1.634   6.634   4.142 -0.6386 -0.2000 -0.4706
  266MOL    H1648246   1.785   6.825   3.916  3.0165 -2.2018  1.4246
  266MOL    H1748247   1.523   6.855   4.071 -0.2745 -1.6576 -2.2008
  266MOL    H1848248   1.614   6.987   4.003 -0.4862  0.2537 -2.4669
  266MOL    H1948249   1.528   6.864   3.900 -4.0928 -0.3723  1.8417
  266MOL    C2048250   1.608   6.503   4.194 -0.1465  0.2861  0.1234
  266MOL    C2148251   1.501   6.508   4.305  0.3463  0.5948  0.0273
  266MOL    C2248252   1.734   6.424   4.230 -0.0979 -0.2720 -0.2927
  266MOL    O2348253   1.836   6.476   4.271 -0.3371 -0.0528  0.3758
  266MOL    O2448254   1.706   6.287   4.224 -0.2045 -0.0889 -0.0838
  266MOL    H2548255   1.557   6.447   4.116  2.3706 -1.8348 -0.0655
  266MOL    H2648256   1.528   6.586   4.377 -0.5067  0.5005  0.4439
  266MOL    H2748257   1.399   6.518   4.268 -0.1393 -1.1161  0.8844
  266MOL    H2848258   1.488   6.415   4.359 -1.8190  0.6254 -0.3961
  266MOL    C2948259   1.805   6.194   4.258  0.9620 -0.2327 -0.3880
  266MOL    C3048260   1.783   6.059   4.186 -0.4828  0.3527  0.6401
  266MOL    C3148261   1.808   6.178   4.418 -0.1497  0.2023  0.4436
  266MOL    O3248262   1.908   6.193   4.489  0.2098 -0.1859 -0.1294
  266MOL    O3348263   1.684   6.145   4.466 -0.2510 -0.1494 -0.0837
  266MOL    H3448264   1.901   6.238   4.229  0.1307 -0.3623 -3.6012
  266MOL    H3548265   1.810   6.062   4.080  0.6616  1.0782  0.9382
  266MOL    H3648266   1.831   5.971   4.228 -0.0449  0.0634 -0.4483
  266MOL    H3748267   1.676   6.042   4.179 -0.5015 -0.5033  2.6678
  266MOL    C3848268   1.651   6.122   4.605  0.2063 -0.5351  0.8287
  266MOL    C3948269   1.507   6.065   4.625 -0.0166  0.3401 -0.5566
  266MOL    C4048270   1.664   6.247   4.686 -0.2310  0.9412  0.0160
  266MOL    O4148271   1.682   6.238   4.812 -0.4898 -0.7827 -0.4294
  266MOL    O4248272   1.636   6.361   4.621  0.5862 -0.3802  0.5176
  266MOL    H4348273   1.715   6.045   4.647  1.8547  0.9925  1.1734
  266MOL    H4448274   1.498   6.037   4.730  0.7860  0.4900 -0.4420
  266MOL    H4548275   1.433   6.135   4.586  0.1352  0.6077 -0.3708
  266MOL    H4648276   1.499   5.976   4.564  1.6914 -1.7919  2.2248
  266MOL    C4748277   1.651   6.487   4.689 -0.4825 -0.8032 -0.1024
  266MOL    C4848278   1.516   6.553   4.708  0.0951 -0.3334  0.0963
  266MOL    C4948279   1.755   6.572   4.611  0.1806 -0.1426 -0.2298
  266MOL    O5048280   1.723   6.682   4.566  0.0298  0.1267  0.1143
  266MOL    O5148281   1.876   6.515   4.608  0.3661  0.4611  0.1598
  266MOL    H5248282   1.684   6.476   4.792 -3.4581 -0.7068  0.9088
  266MOL    H5348283   1.515   6.642   4.772 -0.4630  0.1713 -0.6026
  266MOL    H5448284   1.483   6.588   4.610  2.6908 -0.2621 -0.7934
  266MOL    H5548285   1.439   6.490   4.752 -0.9729  1.7976  1.3966
  266MOL    C5648286   1.992   6.587   4.563 -0.0753 -0.7689  0.3764
  266MOL    C5748287   2.094   6.485   4.517 -0.3858  0.1288 -0.0852
  266MOL    C5848288   2.045   6.688   4.670 -0.3429  0.9662  0.0949
  266MOL    O5948289   2.104   6.788   4.631 -0.0652 -0.3028 -0.0280
  266MOL    O6048290   2.014   6.663   4.796  0.1288  0.2505  0.0377
  266MOL    H6148291   1.959   6.647   4.479 -2.1541 -0.3064  1.4982
  266MOL    H6248292   2.122   6.408   4.589 -1.1071 -0.6163 -0.5915
  266MOL    H6348293   2.043   6.436   4.434 -2.9931 -0.9939  2.1317
  266MOL    H6448294   2.188   6.529   4.483  1.4453 -1.6036  2.5599
  266MOL    C6548295   2.029   6.760   4.900  0.6478 -0.1579 -0.1608
  266MOL    C6648296   1.967   6.683   5.024 -0.0274  0.0704 -0.4294
  266MOL    C6748297   1.944   6.888   4.864  0.6574 -0.0132  0.0333
  266MOL    O6848298   1.989   7.001   4.861  0.1005  0.1667  0.6539
  266MOL    O6948299   1.811   6.854   4.834 -0.2549 -0.5688  0.1129
  266MOL    H7048300   2.134   6.783   4.917  0.8650 -0.7479 -0.6515
  266MOL    H7148301   1.970   6.745   5.113  1.3224  0.4828 -0.7527
  266MOL    H7248302   1.861   6.673   5.001 -0.3876  1.6176  0.4588
  266MOL    H7348303   2.025   6.593   5.038  0.5967  0.6967  1.0551
  266MOL    C7448304   1.708   6.953   4.815  0.0167 -0.2693  0.2157
  266MOL    C7548305   1.738   7.039   4.687  0.0813  0.2953 -0.4971
  266MOL    C7648306   1.690   7.034   4.943  0.0446  0.3926  0.2912
  266MOL    O7748307   1.730   6.992   5.051 -0.2564  0.0628 -0.2675
  266MOL    O7848308   1.635   7.155   4.917 -0.3892  0.5490  0.3007
  266MOL    H7948309   1.622   6.888   4.801 -1.1426  0.7220  2.5005
  266MOL    H8048310   1.767   6.969   4.608  0.7890 -2.5608  2.1886
  266MOL    H8148311   1.653   7.100   4.658 -1.6482 -1.6728  0.2315
  266MOL    H8248312   1.823   7.102   4.713 -0.7593  1.3498 -0.2645
  266MOL    C8348313   1.615   7.249   5.021 -0.0049  0.2044 -0.8806
  266MOL    C8448314   1.517   7.345   4.943  0.0376  0.4975  0.4484
  266MOL    C8548315   1.740   7.328   5.054 -0.7803  0.5077  0.0635
  266MOL    O8648316   1.775   7.341   5.170  0.1608  0.9553 -0.1862
  266MOL    O8748317   1.809   7.371   4.942 -0.1613 -0.2025 -0.1736
  266MOL    H8848318   1.563   7.226   5.114  0.7069 -1.2438 -0.8356
  266MOL    H8948319   1.412   7.313   4.943 -0.5691  2.4588 -0.5375
  266MOL    H9048320   1.505   7.437   4.999  2.0416 -0.3036  2.2660
  266MOL    H9148321   1.551   7.385   4.848  1.8936 -0.4809  0.6740
  266MOL    C9248322   1.946   7.420   4.937  0.2424 -0.2329 -0.3527
  266MOL    C9348323   1.940   7.499   4.809  0.2787  0.1775  0.9469
  266MOL    C9448324   2.047   7.305   4.935 -0.5422  0.1979 -0.8392
  266MOL    O9548325   2.152   7.307   4.868  0.6977 -0.1138 -0.4574
  266MOL    O9648326   2.020   7.216   5.038 -0.0352  0.1161  0.6473
  266MOL    H9748327   1.962   7.502   5.006 -2.8692 -0.5616  0.8363
  266MOL    H9848328   1.905   7.431   4.732 -1.0019 -0.7912  2.3424
  266MOL    H9948329   1.859   7.571   4.820  0.3827  0.1815  1.7851
  266MOL   H10048330   2.041   7.532   4.788  0.0248  0.4435  0.1352
  266MOL   C10148331   2.131   7.139   5.084 -0.1436  0.1283 -0.0674
  266MOL   C10248332   2.063   7.039   5.170  0.1390 -0.5157  0.2623
  266MOL   C10348333   2.225   7.217   5.175 -0.3742  0.0283  0.1297
  266MOL   O10448334   2.181   7.275   5.274 -0.6328 -1.2298  0.3278
  266MOL   O10548335   2.363   7.204   5.151 -0.1432  0.0606 -0.1260
  266MOL   H10648336   2.183   7.082   5.007 -0.2628  0.5758 -0.4816
  266MOL   H10748337   2.133   6.966   5.213  0.9215  0.0282 -0.0854
  266MOL   H10848338   2.018   7.077   5.261 -0.5754 -3.5979  1.2821
  266MOL   H10948339   1.981   6.993   5.114 -0.6060  0.4398  0.5693
  266MOL   C11048340   2.461   7.267   5.225 -0.1172  0.0467 -0.0367
  266MOL   C11148341   2.579   7.304   5.134  0.5075  0.3939  0.5050
  266MOL   C11248342   2.497   7.170   5.338 -0.0433  0.3411 -0.1525
  266MOL   O11348343   2.489   7.201   5.459  0.0263 -0.0538  0.2845
  266MOL   O11448344   2.536   7.046   5.298  0.6548 -0.3235 -0.7888
  266MOL   H11548345   2.419   7.352   5.279  1.5114 -0.2999  1.8235
  266MOL   H11648346   2.639   7.383   5.179  0.8141  0.5427 -0.1540
  266MOL   H11748347   2.632   7.214   5.101  0.9258  1.2115 -1.0811
  266MOL   H11848348   2.559   7.345   5.035  1.4704 -1.3453 -0.4366
  266MOL   C11948349   2.590   6.943   5.376  0.0645 -0.0310  0.1058
  266MOL   C12048350   2.529   6.904   5.515  0.1223  0.1565  0.2968
  266MOL   C12148351   2.744   6.965   5.386  0.4443  0.6107 -0.4173
  266MOL   O12248352   2.803   6.913   5.484  0.0182 -0.5091  0.2501
  266MOL   O12348353   2.804   7.028   5.279  0.2574  0.3303 -0.1790
  266MOL   H12448354   2.556   6.854   5.324 -1.2754  1.5672 -1.8294
  266MOL   H12548355   2.421   6.888   5.517 -0.2403  2.6561  1.7724
  266MOL   H12648356   2.580   6.814   5.549  1.9799  0.1543 -2.2861
  266MOL   H12748357   2.551   6.981   5.588 -1.2533  0.1049  0.7760
  266MOL   C12848358   2.947   7.057   5.283  0.1369 -0.3371  0.6479
  266MOL   C12948359   2.948   7.175   5.188 -0.5155  0.2349 -0.1129
  266MOL   C13048360   3.044   6.938   5.250 -0.0910  0.0212 -0.7584
  266MOL   O13148361   3.011   6.817   5.282  0.2560  0.0455  0.2956
  266MOL   O13248362   3.148   6.966   5.163  0.1581  0.6288  0.0170
  266MOL   H13348363   2.984   7.109   5.371  1.9947  1.4124 -1.0913
  266MOL   H13448364   2.897   7.167   5.091 -0.4974 -1.7380  0.0181
  266MOL   H13548365   2.886   7.253   5.231 -0.7316  0.2619 -0.4657
  266MOL   H13648366   3.050   7.210   5.169 -0.3955 -0.4849 -0.8249
  266MOL   C13748367   3.228   6.864   5.094 -0.6670 -0.2999  0.7148
  266MOL   C13848368   3.339   6.936   5.017  0.2436 -0.5868 -0.1831
  266MOL   C13948369   3.138   6.773   5.002 -0.2367  0.0743 -0.9214
  266MOL   O14048370   3.034   6.817   4.958 -0.3453 -0.2360  0.3448
  266MOL   O14148371   3.192   6.650   4.970  0.1978 -0.9150  0.0091
  266MOL   H14248372   3.271   6.803   5.173  1.0458  0.9518  0.7819
  266MOL   H14348373   3.407   6.995   5.078 -0.9203 -0.5614  1.1179
  266MOL   H14448374   3.394   6.857   4.966 -0.1884 -1.8799  1.3092
  266MOL   H14548375   3.303   7.003   4.939 -2.1011 -2.4126 -0.7205
  266MOL   C14648376   3.121   6.542   4.907 -0.3572 -0.2144 -0.4554
  266MOL   C14748377   3.097   6.585   4.757 -0.6664 -0.0935 -0.1528
  266MOL   C14848378   3.000   6.497   4.981  0.6415 -0.0173 -0.5032
  266MOL   O14948379   2.888   6.485   4.920 -0.5229 -0.5116  0.1165
  266MOL   O15048380   3.021   6.480   5.112  0.1168  0.3022 -0.6476
  266MOL   H15148381   3.188   6.458   4.897 -1.0745 -0.9571  0.7966
  266MOL   H15248382   3.060   6.686   4.737  0.8894  0.1959 -1.6576
  266MOL   H15348383   3.197   6.589   4.715 -0.4408  0.7520  0.4322
  266MOL   H15448384   3.039   6.517   4.695 -0.3218 -0.2374 -0.3171
  266MOL   C15548385   2.915   6.449   5.200 -0.1357 -0.5428 -1.1698
  266MOL   C15648386   2.962   6.494   5.342 -0.2073  0.6741  0.6861
  266MOL   C15748387   2.879   6.296   5.190  0.4394 -0.0948 -0.5492
  266MOL   O15848388   2.765   6.247   5.188  0.0044 -0.5770  0.2630
  266MOL   O15948389   2.998   6.222   5.192  0.1501  0.3668 -0.4304
  266MOL   H16048390   2.830   6.516   5.189 -1.0469 -1.5371 -0.2124
  266MOL   H16148391   2.880   6.456   5.403 -1.2484  1.3622 -0.2591
  266MOL   H16248392   3.057   6.455   5.377 -0.5284 -0.5209  0.2378
  266MOL   H16348393   2.958   6.603   5.351  0.3781  0.8011 -0.5175
  266MOL   C16448394   2.990   6.081   5.178 -0.4573  0.0147  0.2734
  266MOL   C16548395   3.115   6.009   5.234 -0.4250  0.9167  0.5505
  266MOL   C16648396   2.944   6.027   5.044  0.4956  1.0251  0.0698
  266MOL   O16748397   2.844   5.954   5.036 -0.3741 -0.8453  0.0527
  266MOL   O16848398   3.026   6.069   4.941  0.1726 -0.0780 -0.2804
  266MOL   H16948399   2.908   6.059   5.247 -1.1118  0.1329 -0.4556
  266MOL   H17048400   3.131   6.041   5.338  0.9038  2.8228 -0.1983
  266MOL   H17148401   3.108   5.900   5.235 -1.0946  0.9461  2.9247
  266MOL   H17248402   3.205   6.041   5.181  0.0468  0.1109  0.8475
  266MOL   C17348403   2.999   6.022   4.813 -0.1524 -0.1738 -0.1398
  266MOL   C17448404   3.133   5.963   4.756  0.2167  0.1548 -0.0382
  266MOL   C17548405   2.951   6.148   4.735 -0.5724 -0.7908  0.0762
  266MOL   O17648406   3.010   6.207   4.647  0.0166 -0.4377 -0.0097
  266MOL   O17748407   2.831   6.197   4.775  0.1454  0.6678  0.1495
  266MOL   H17848408   2.913   5.956   4.803 -0.1825  0.1961 -3.0121
  266MOL   H17948409   3.157   5.861   4.785 -1.2457 -0.3949 -0.6952
  266MOL   H18048410   3.135   5.975   4.648  1.1918  5.2527  0.3864
  266MOL   H18148411   3.216   6.029   4.783  0.0878  0.8522 -1.2928
  266MOL   H18248412   2.806   6.278   4.732  1.8283  0.2989 -1.5867
  267MOL     C148413   1.173   5.757   4.778 -0.2061  0.1543 -0.0528
  267MOL     C248414   1.255   5.779   4.909  0.2442  0.5876  0.1822
  267MOL     C348415   1.168   5.870   4.678 -0.1778  0.3610 -0.0753
  267MOL     O448416   1.222   5.979   4.707  0.0939 -0.8028  0.7059
  267MOL     O548417   1.087   5.842   4.571 -0.0443  0.3081  0.4869
  267MOL     H648418   1.217   5.669   4.732  0.6263 -0.4057  1.7456
  267MOL     H748419   1.360   5.763   4.883  1.0765  0.3802  3.4509
  267MOL     H848420   1.228   5.870   4.963 -1.6827 -0.5289  1.1686
  267MOL     H948421   1.228   5.695   4.973 -0.7586  1.3748  0.8084
  267MOL    H1048422   1.076   5.715   4.806 -0.6916  0.7802 -0.7532
  267MOL    C1148423   1.069   5.928   4.452 -0.2637  0.4477  0.4432
  267MOL    C1248424   0.981   5.848   4.348  0.1690  0.2317  0.2426
  267MOL    C1348425   1.206   5.964   4.394 -0.4809  0.6920  0.1033
  267MOL    O1448426   1.256   6.076   4.389 -0.2100 -0.2672 -0.1654
  267MOL    O1548427   1.270   5.852   4.356 -0.2826  0.1619  0.1395
  267MOL    H1648428   1.021   6.022   4.480 -1.3298  0.4241 -1.2340
  267MOL    H1748429   0.893   5.801   4.392  2.0394 -1.5733  2.1766
  267MOL    H1848430   0.964   5.932   4.281 -0.0894 -0.8266 -1.0581
  267MOL    H1948431   1.033   5.772   4.289 -0.1715  0.9506 -0.9911
  267MOL    C2048432   1.384   5.860   4.268 -0.2987  0.0845  0.4446
  267MOL    C2148433   1.352   5.801   4.130 -1.0877  0.1459 -0.1324
  267MOL    C2248434   1.494   5.778   4.331 -0.3036 -0.5418 -0.4020
  267MOL    O2348435   1.613   5.806   4.311 -0.2218 -0.2942  0.1821
  267MOL    O2448436   1.442   5.673   4.405 -0.0340 -0.5444  0.2553
  267MOL    H2548437   1.418   5.961   4.243  0.2480 -0.5130 -1.2428
  267MOL    H2648438   1.300   5.705   4.143  0.1423 -0.3159  1.5475
  267MOL    H2748439   1.282   5.870   4.084  1.8916  3.0616 -0.4400
  267MOL    H2848440   1.441   5.791   4.069 -1.1934 -0.3470 -0.2108
  267MOL    C2948441   1.525   5.575   4.478 -1.1912  0.0247  0.1953
  267MOL    C3048442   1.444   5.448   4.499 -0.1884 -0.1123 -0.7826
  267MOL    C3148443   1.586   5.638   4.602 -0.3257  0.5004  0.0345
  267MOL    O3248444   1.518   5.657   4.699  0.1501 -0.1800 -0.2516
  267MOL    O3348445   1.713   5.675   4.579 -0.1051  0.0800  0.4952
  267MOL    H3448446   1.598   5.556   4.400 -0.6841  0.8316  0.4588
  267MOL    H3548447   1.345   5.468   4.540 -1.9293 -0.2892 -4.7124
  267MOL    H3648448   1.417   5.409   4.402 -1.4337  0.5331 -0.7004
  267MOL    H3748449   1.498   5.379   4.565  2.0475  1.3468 -1.0254
  267MOL    C3848450   1.798   5.732   4.680 -0.0665 -0.6768 -0.3023
  267MOL    C3948451   1.931   5.770   4.604  0.4326 -0.1299  0.5012
  267MOL    C4048452   1.825   5.638   4.797  0.2371 -0.4491  0.2381
  267MOL    O4148453   1.787   5.665   4.908  0.2344  0.1040  0.1102
  267MOL    O4248454   1.898   5.533   4.766 -0.1269 -0.7688 -0.0426
  267MOL    H4348455   1.740   5.817   4.717  2.0449  0.5313  0.2875
  267MOL    H4448456   1.995   5.817   4.678  1.9459 -0.8069 -0.3506
  267MOL    H4548457   1.986   5.684   4.567  0.4415 -0.7212  1.8853
  267MOL    H4648458   1.928   5.848   4.528  0.4527  1.2932  1.9422
  267MOL    C4748459   1.899   5.415   4.842  0.0782  0.2593  0.4418
  267MOL    C4848460   2.021   5.329   4.815 -0.5148 -0.2501  0.9964
  267MOL    C4948461   1.775   5.332   4.803 -0.2861  0.6992  0.8305
  267MOL    O5048462   1.733   5.335   4.685 -0.6166 -0.0926  0.2155
  267MOL    O5148463   1.715   5.263   4.900  0.0918 -0.4025 -0.9140
  267MOL    H5248464   1.907   5.436   4.948 -1.2186 -0.9436  0.7997
  267MOL    H5348465   2.041   5.253   4.891 -0.4664 -1.3246 -0.0807
  267MOL    H5448466   2.025   5.277   4.719  1.9668 -2.6241  2.3067
  267MOL    H5548467   2.110   5.389   4.833 -0.9195  1.0822 -1.2772
  267MOL    C5648468   1.605   5.183   4.869  0.6576  0.1615  0.3429
  267MOL    C5748469   1.519   5.155   5.002  0.2460 -0.0214 -0.0611
  267MOL    C5848470   1.654   5.054   4.804  0.0031  0.0604  0.1668
  267MOL    O5948471   1.771   5.029   4.805  0.0174 -0.3386 -0.1423
  267MOL    O6048472   1.555   4.979   4.750  0.4120  0.4560 -0.0534
  267MOL    H6148473   1.529   5.239   4.815  0.3509  0.3608  0.9770
  267MOL    H6248474   1.414   5.134   4.986  0.0298 -0.0329  1.3047
  267MOL    H6348475   1.532   5.062   5.056  1.7602  0.3408  0.2248
  267MOL    H6448476   1.529   5.244   5.064 -1.3096  0.3416 -0.3056
  267MOL    C6548477   1.565   4.872   4.662  0.4098  0.4343  0.5759
  267MOL    C6648478   1.434   4.797   4.649  0.1076 -0.1250 -0.0545
  267MOL    C6748479   1.681   4.776   4.686  0.1707 -0.1181  0.2004
  267MOL    O6848480   1.759   4.745   4.596 -0.4641  0.0794 -0.1131
  267MOL    O6948481   1.683   4.730   4.809 -0.4136 -0.7823 -0.0392
  267MOL    H7048482   1.592   4.914   4.565  1.9605 -0.1555  0.7419
  267MOL    H7148483   1.356   4.858   4.603 -0.7093 -0.4121  0.9166
  267MOL    H7248484   1.469   4.721   4.580  0.5185  0.6064 -0.6506
  267MOL    H7348485   1.400   4.756   4.745 -1.2541  2.8347  0.7777
  267MOL    C7448486   1.785   4.654   4.873  0.2363 -0.4425  0.6170
  267MOL    C7548487   1.906   4.742   4.919  0.0791  0.2069  0.1450
  267MOL    C7648488   1.825   4.526   4.793 -0.2265 -0.0357 -0.7435
  267MOL    O7748489   1.938   4.518   4.736  0.4041  0.3967 -0.3305
  267MOL    O7848490   1.728   4.432   4.790  0.1127 -0.3492  0.4378
  267MOL    H7948491   1.736   4.614   4.962  3.5809 -1.4985  2.0457
  267MOL    H8048492   1.980   4.746   4.840 -1.2951 -1.0822 -1.2146
  267MOL    H8148493   1.884   4.845   4.949  0.4974  0.1002  0.8383
  267MOL    H8248494   1.961   4.700   5.004 -1.1432 -1.0122  0.3414
  267MOL    C8348495   1.733   4.310   4.706 -0.3326  0.1610 -0.5925
  267MOL    C8448496   1.828   4.200   4.766 -0.2661 -0.5291 -0.5561
  267MOL    C8548497   1.761   4.342   4.560  0.4909 -0.0663 -0.8014
  267MOL    O8648498   1.836   4.277   4.489 -0.5353  0.2166 -0.2181
  267MOL    O8748499   1.679   4.438   4.510  0.1218 -0.7032 -0.5582
  267MOL    H8848500   1.630   4.273   4.704  0.1126 -1.0034 -1.9601
  267MOL    H8948501   1.880   4.244   4.851 -1.2905 -1.1980  0.4352
  267MOL    H9048502   1.755   4.126   4.799 -2.3355  1.0912 -1.3474
  267MOL    H9148503   1.898   4.150   4.700 -1.3006 -2.6556 -0.0853
  267MOL    C9248504   1.656   4.446   4.372 -0.6102 -0.9526  0.1851
  267MOL    C9348505   1.643   4.589   4.320  0.0532 -0.1268  1.1601
  267MOL    C9448506   1.535   4.359   4.340 -0.5509  0.4440  0.4283
  267MOL    O9548507   1.465   4.307   4.426 -0.0983  0.4835 -0.3849
  267MOL    O9648508   1.507   4.349   4.201 -0.1583  0.2589 -0.0922
  267MOL    H9748509   1.743   4.410   4.317 -1.0815 -2.3011  0.3104
  267MOL    H9848510   1.542   4.629   4.327  0.3262  0.6341  0.8422
  267MOL    H9948511   1.723   4.656   4.353 -0.0220  0.1859  0.6989
  267MOL   H10048512   1.655   4.590   4.212 -1.4760 -0.2197  0.9800
  267MOL   C10148513   1.377   4.302   4.156 -0.0112  0.6687  0.2298
  267MOL   C10248514   1.401   4.248   4.005 -0.0676  0.5592 -0.2721
  267MOL   C10348515   1.268   4.409   4.169 -0.1788 -0.4320  0.6961
  267MOL   O10448516   1.198   4.437   4.074  0.2736 -0.3832 -0.0805
  267MOL   O10548517   1.249   4.461   4.296 -0.7306 -0.1467  0.1383
  267MOL   H10648518   1.353   4.213   4.213 -2.4268  1.2714  0.1907
  267MOL   H10748519   1.445   4.312   3.929 -1.3136  1.4917 -0.2277
  267MOL   H10848520   1.464   4.160   4.007  1.1956  1.3828 -2.7368
  267MOL   H10948521   1.311   4.204   3.961  0.6639 -0.8936 -0.3324
  267MOL   C11048522   1.133   4.537   4.322 -0.1977  0.0740  0.4409
  267MOL   C11148523   1.150   4.626   4.447  0.0209 -0.4096 -0.2930
  267MOL   C11248524   1.012   4.447   4.331 -0.1358  0.8672 -0.2405
  267MOL   O11348525   0.925   4.447   4.246  0.0291  0.0670 -0.4980
  267MOL   O11448526   1.015   4.352   4.434 -0.0290  0.1510  0.6284
  267MOL   H11548527   1.116   4.606   4.240 -1.0461 -0.9609 -0.2643
  267MOL   H11648528   1.128   4.575   4.541 -1.5088  0.4721 -0.1672
  267MOL   H11748529   1.252   4.664   4.449 -1.0968  2.6382  1.6737
  267MOL   H11848530   1.090   4.716   4.437 -2.9807 -2.4876 -1.7765
  267MOL   C11948531   0.920   4.244   4.426  0.1002 -0.5249  0.8598
  267MOL   C12048532   0.904   4.183   4.562  0.0841 -0.2304 -0.6995
  267MOL   C12148533   0.990   4.143   4.336 -0.1475 -0.7026  0.6399
  267MOL   O12248534   1.106   4.108   4.362 -0.3864  0.1512 -0.4262
  267MOL   O12348535   0.912   4.104   4.229 -0.7347 -0.3694  0.5919
  267MOL   H12448536   0.826   4.277   4.383 -0.6440 -1.1689  1.9769
  267MOL   H12548537   0.994   4.132   4.597 -0.7661 -2.2383 -1.3363
  267MOL   H12648538   0.872   4.267   4.623 -0.2219  0.0632 -1.2615
  267MOL   H12748539   0.817   4.118   4.570  0.4050 -0.4239  1.7043
  267MOL   C12848540   0.961   3.997   4.143 -0.2669 -0.1558 -0.4562
  267MOL   C12948541   1.000   4.069   4.010 -0.5143  0.4293 -0.1960
  267MOL   C13048542   0.846   3.901   4.120 -0.0582  0.8883  0.4822
  267MOL   O13148543   0.755   3.887   4.201 -0.0495 -0.0274 -0.1524
  267MOL   O13248544   0.845   3.840   4.004 -0.3694  0.1900  0.1771
  267MOL   H13348545   1.041   3.940   4.190  1.2349  2.5155  0.3664
  267MOL   H13448546   1.020   4.007   3.922 -1.2482  1.0964 -0.8425
  267MOL   H13548547   0.919   4.132   3.973  0.0382  1.5657  0.4965
  267MOL   H13648548   1.084   4.135   4.028  0.1203 -0.7737  1.4336
  267MOL   C13748549   0.750   3.746   3.956  0.3039 -0.5028  0.3552
  267MOL   C13848550   0.825   3.667   3.847 -0.1853 -0.4492  0.7269
  267MOL   C13948551   0.618   3.815   3.914 -0.2714 -0.1588 -0.4901
  267MOL   O14048552   0.500   3.765   3.929 -0.2772 -0.0017  0.2762
  267MOL   O14148553   0.641   3.933   3.855  0.2329 -0.0392  0.2595
  267MOL   H14248554   0.706   3.681   4.032 -1.6198  0.5851  0.2156
  267MOL   H14348555   0.910   3.602   3.867  0.9694  0.7931 -0.0769
  267MOL   H14448556   0.743   3.607   3.806  1.0069 -2.5724  1.3543
  267MOL   H14548557   0.863   3.731   3.768 -0.6564 -1.0213  0.0228
  267MOL   C14648558   0.530   4.006   3.790 -0.0693 -0.7055  0.7971
  267MOL   C14748559   0.586   4.055   3.649 -0.2281  0.0341  0.4618
  267MOL   C14848560   0.504   4.135   3.861  0.0616  0.0282 -0.8147
  267MOL   O14948561   0.391   4.178   3.861 -0.5438  0.5051  0.3646
  267MOL   O15048562   0.612   4.189   3.910 -0.0422  0.3941  0.0023
  267MOL   H15148563   0.440   3.949   3.768  0.2601 -0.3278 -1.7177
  267MOL   H15248564   0.500   4.103   3.603  1.7461  1.5208 -1.8339
  267MOL   H15348565   0.665   4.130   3.650 -1.3362  1.2329  0.1966
  267MOL   H15448566   0.610   3.967   3.590 -1.9446 -0.5661  0.6444
  267MOL   C15548567   0.605   4.302   3.998  0.5069  0.4073  0.4477
  267MOL   C15648568   0.740   4.371   3.962 -0.5948 -0.6129 -0.1533
  267MOL   C15748569   0.593   4.258   4.146 -0.2829 -0.1957  0.6109
  267MOL   O15848570   0.639   4.324   4.237 -0.1305  0.4524 -0.1649
  267MOL   O15948571   0.502   4.162   4.165  0.1939 -0.2601  0.7754
  267MOL   H16048572   0.520   4.364   3.971 -1.0220 -1.8957 -0.1835
  267MOL   H16148573   0.731   4.470   4.008  2.6727 -0.1128 -0.4651
  267MOL   H16248574   0.823   4.314   4.003 -0.9459 -0.8496  0.2288
  267MOL   H16348575   0.762   4.382   3.856 -2.2641 -0.3035 -0.4921
  267MOL   C16448576   0.447   4.145   4.295 -0.0908  0.2645  0.2687
  267MOL   C16548577   0.545   4.046   4.364 -0.0320 -0.2196 -0.3271
  267MOL   C16648578   0.304   4.093   4.276 -0.3885 -0.1046  0.0865
  267MOL   O16748579   0.206   4.160   4.316 -0.0428  0.2380  0.0817
  267MOL   O16848580   0.300   3.965   4.231  0.2403  0.2795 -0.2976
  267MOL   H16948581   0.443   4.239   4.350 -0.3980  1.6494 -2.0426
  267MOL   H17048582   0.641   4.086   4.395 -0.9164  0.1189  2.0055
  267MOL   H17148583   0.490   4.009   4.450 -1.1964  1.5791 -0.2810
  267MOL   H17248584   0.548   3.955   4.304 -0.6345 -1.0139  0.8541
  267MOL   C17348585   0.172   3.909   4.202  0.6758  0.2880 -0.5766
  267MOL   C17448586   0.117   3.847   4.333 -0.3937  0.1856  0.2421
  267MOL   C17548587   0.178   3.817   4.087 -0.4453  0.8124  0.7597
  267MOL   O17648588   0.160   3.694   4.085 -1.0658 -0.3077  0.4189
  267MOL   O17748589   0.219   3.878   3.976  0.2140 -0.3516  0.0449
  267MOL   H17848590   0.100   3.977   4.157  3.3686  2.7471 -1.2830
  267MOL   H17948591   0.121   3.910   4.421 -0.6597  0.3542  0.1355
  267MOL   H18048592   0.010   3.830   4.321 -1.0173  0.9632  4.0288
  267MOL   H18148593   0.163   3.753   4.362 -0.8092 -0.4160 -1.0178
  267MOL   H18248594   0.225   3.808   3.912  3.0771 -0.2628  0.1429
  268MOL     C148595   0.670   0.304   1.989 -0.6568 -0.4281 -0.3835
  268MOL     C248596   0.819   0.353   1.980 -0.2432 -0.0988 -0.4423
  268MOL     C348597   0.607   0.265   1.859 -0.5393 -0.1066  0.6449
  268MOL     O448598   0.555   0.156   1.837 -0.0772  0.7371  0.3623
  268MOL     O548599   0.617   0.372   1.773  0.2094  0.2345 -0.1268
  268MOL     H648600   0.668   0.228   2.067  0.5791 -0.4726 -0.3939
  268MOL     H748601   0.880   0.263   1.983  0.4932  0.4314  1.0948
  268MOL     H848602   0.847   0.404   1.888  1.3898 -1.7814 -0.9236
  268MOL     H948603   0.853   0.410   2.067 -0.6895 -0.5153  0.0057
  268MOL    H1048604   0.618   0.387   2.037  0.4584 -0.1160  0.3007
  268MOL    C1148605   0.575   0.367   1.638  0.3644 -1.5976  0.0797
  268MOL    C1248606   0.435   0.343   1.610 -0.8120  0.3271 -0.2838
  268MOL    C1348607   0.653   0.278   1.543  0.5328 -0.3555 -0.0331
  268MOL    O1448608   0.712   0.332   1.446 -0.2225  0.1076  0.1894
  268MOL    O1548609   0.652   0.151   1.581 -0.4732 -0.2989 -0.0695
  268MOL    H1648610   0.604   0.468   1.608 -0.2772 -1.4912 -0.1955
  268MOL    H1748611   0.392   0.255   1.657  0.5486 -1.1943 -1.8338
  268MOL    H1848612   0.370   0.417   1.657 -2.2758 -1.1096 -0.0004
  268MOL    H1948613   0.406   0.334   1.505 -0.8136  0.3043 -0.2813
  268MOL    C2048614   0.731   0.050   1.511 -0.0661  0.1517 -0.5052
  268MOL    C2148615   0.698   8.061   1.578 -0.3435 -0.2256  0.4930
  268MOL    C2248616   0.885   0.078   1.503  0.0613  0.4377 -0.3376
  268MOL    O2348617   0.955   0.054   1.401  0.2149  0.0463  0.0022
  268MOL    O2448618   0.936   0.130   1.615 -0.0511 -0.0127  0.6620
  268MOL    H2548619   0.699   0.036   1.408 -1.3801 -1.5343  0.1116
  268MOL    H2648620   0.757   7.982   1.531 -0.7294 -0.2371  0.0180
  268MOL    H2748621   0.695   8.064   1.687  1.7872  2.3051  0.5462
  268MOL    H2848622   0.594   8.036   1.559  0.0401 -0.2222 -1.8027
  268MOL    C2948623   1.074   0.160   1.617 -0.2164  0.2258  0.1699
  268MOL    C3048624   1.119   0.170   1.767  0.3504  0.3441  0.5390
  268MOL    C3148625   1.093   0.304   1.555 -0.4211  0.2594 -0.6653
  268MOL    O3248626   1.010   0.395   1.573 -0.4593  0.1516  0.3327
  268MOL    O3348627   1.214   0.319   1.493 -0.4068 -0.5696  0.0863
  268MOL    H3448628   1.132   0.083   1.568 -1.7937 -1.0731  0.2963
  268MOL    H3548629   1.216   0.220   1.768 -1.1406  3.3189  2.1384
  268MOL    H3648630   1.042   0.219   1.826 -1.5961 -2.2504  0.2470
  268MOL    H3748631   1.128   0.067   1.800  0.9994  0.6035  1.1747
  268MOL    C3848632   1.245   0.444   1.421 -0.5805 -0.6925  0.3365
  268MOL    C3948633   1.264   0.554   1.527 -0.9108 -0.6657 -0.0994
  268MOL    C4048634   1.147   0.468   1.309 -0.0517  0.0287 -0.4095
  268MOL    O4148635   1.081   0.573   1.296 -0.3586  1.1760 -0.5225
  268MOL    O4248636   1.137   0.361   1.225  0.0663  0.2182 -0.2793
  268MOL    H4348637   1.337   0.430   1.365  0.1513 -1.3139  1.6620
  268MOL    H4448638   1.173   0.610   1.548 -0.1475 -0.1180  1.7985
  268MOL    H4548639   1.317   0.511   1.612  3.3536  1.0377 -1.7536
  268MOL    H4648640   1.329   0.638   1.502 -0.5118 -0.9626 -0.0690
  268MOL    C4748641   1.055   0.365   1.110  0.0528  0.6678  0.1305
  268MOL    C4848642   0.918   0.310   1.149 -0.3480 -0.6849 -0.3223
  268MOL    C4948643   1.119   0.300   0.992 -0.0070 -0.1012  0.4571
  268MOL    O5048644   1.230   0.252   0.986 -0.8572 -0.5841 -0.2948
  268MOL    O5148645   1.033   0.300   0.886 -0.1187  0.2702  0.0988
  268MOL    H5248646   1.046   0.467   1.072  0.7164 -0.0432 -2.0149
  268MOL    H5348647   0.860   0.374   1.216  0.0483 -1.7190  1.0336
  268MOL    H5448648   0.857   0.310   1.059 -0.3004  1.1594 -0.3682
  268MOL    H5548649   0.921   0.210   1.192 -0.2338 -0.1040  1.0454
  268MOL    C5648650   1.077   0.273   0.751 -0.1697  0.6687  0.4164
  268MOL    C5748651   1.011   0.356   0.643 -0.3550  0.5332 -0.1190
  268MOL    C5848652   1.048   0.122   0.722  0.4077  0.6224 -0.0032
  268MOL    O5948653   0.972   0.054   0.790  1.0989  0.1822  0.6418
  268MOL    O6048654   1.111   0.069   0.614 -0.6639 -0.1237 -0.1853
  268MOL    H6148655   1.184   0.288   0.745  0.0044 -0.2863  0.9533
  268MOL    H6248656   0.902   0.363   0.649 -0.3188  1.0521 -0.0611
  268MOL    H6348657   1.061   0.452   0.657  0.9585 -0.2515  0.7541
  268MOL    H6448658   1.028   0.318   0.543 -1.9656  0.0697 -0.2335
  268MOL    C6548659   1.079   8.081   0.575  0.4234 -0.7185 -0.2233
  268MOL    C6648660   1.182   8.018   0.474  0.1900  0.0094  0.0630
  268MOL    C6748661   0.936   8.067   0.524  0.8819  0.2914  0.2971
  268MOL    O6848662   0.875   0.023   0.500 -0.0577  0.1491 -0.4993
  268MOL    O6948663   0.895   7.947   0.508  0.1659  0.0051  0.2327
  268MOL    H7048664   1.079   8.021   0.666  2.3033  1.7292  1.4713
  268MOL    H7148665   1.282   8.036   0.515  0.2525  3.7275 -1.4408
  268MOL    H7248666   1.163   7.912   0.461 -0.7104  0.0845  0.7242
  268MOL    H7348667   1.180   8.061   0.374  0.6094 -0.7385 -0.2710
  268MOL    C7448668   0.759   7.923   0.460  0.1014 -0.1020 -0.6022
  268MOL    C7548669   0.729   7.779   0.463 -0.3198 -0.2205  0.3100
  268MOL    C7648670   0.742   7.975   0.314  0.1132  0.3501  0.6925
  268MOL    O7748671   0.638   8.032   0.278  0.1879 -0.2062 -0.3873
  268MOL    O7848672   0.853   7.939   0.236  0.3267  0.6150  0.2613
  268MOL    H7948673   0.691   7.976   0.526 -0.4098  0.3765 -1.5170
  268MOL    H8048674   0.748   7.737   0.562  2.0032  2.3018  0.9770
  268MOL    H8148675   0.625   7.764   0.432 -0.1262  1.9686 -1.4774
  268MOL    H8248676   0.801   7.732   0.396  0.6027  2.3929 -0.5862
  268MOL    C8348677   0.864   7.992   0.101 -0.7248  0.1859  0.1101
  268MOL    C8448678   0.989   7.926   0.026 -0.1851  0.5357 -0.2904
  268MOL    C8548679   0.882   8.144   0.095 -0.4551 -0.2061  0.8776
  268MOL    O8648680   0.819   0.056   0.013 -0.3201 -0.2632  0.2843
  268MOL    O8748681   0.975   0.042   0.180 -0.1975 -0.1941 -0.0385
  268MOL    H8848682   0.771   7.968   0.049 -0.0216  0.2381 -1.1760
  268MOL    H8948683   0.962   7.824   8.145  3.2500 -0.9097  1.3904
  268MOL    H9048684   1.023   7.974   8.082  0.2690  0.9147  0.0780
  268MOL    H9148685   1.074   7.906   0.091  1.9330 -0.7513 -3.3933
  268MOL    C9248686   1.012   0.185   0.177 -0.7811 -0.2252  0.5407
  268MOL    C9348687   0.909   0.282   0.237  0.0312 -0.5486 -0.4240
  268MOL    C9448688   1.075   0.221   0.038 -0.7860  0.7951 -0.6857
  268MOL    O9548689   1.123   0.136   8.113  0.1235  0.0008  0.0249
  268MOL    O9648690   1.066   0.350   0.008  0.4870  0.0612 -0.0805
  268MOL    H9748691   1.095   0.186   0.248 -1.0556 -2.2957  0.9324
  268MOL    H9848692   0.818   0.289   0.177  0.0264 -1.0552 -0.4727
  268MOL    H9948693   0.875   0.255   0.337  0.2030 -1.3886 -0.5892
  268MOL   H10048694   0.949   0.383   0.250  1.1575 -1.1213  0.6619
  268MOL   C10148695   1.098   0.394   8.019 -0.3653 -0.5282 -0.4198
  268MOL   C10248696   1.179   0.524   8.025 -0.1685 -0.4425 -0.4808
  268MOL   C10348697   0.968   0.414   7.942  0.7956 -0.1967  0.0198
  268MOL   O10448698   0.956   0.494   7.846  0.1328 -0.3435 -0.2748
  268MOL   O10548699   0.861   0.362   8.008 -0.6808 -0.2626 -0.6183
  268MOL   H10648700   1.170   0.331   7.966  1.8417  2.8801 -1.6600
  268MOL   H10748701   1.162   0.577   8.119 -0.0991 -1.0670 -0.1151
  268MOL   H10848702   1.287   0.506   8.028  0.2363  1.8917  2.7125
  268MOL   H10948703   1.145   0.589   7.945 -3.6666 -1.3163  0.2417
  268MOL   C11048704   0.733   0.362   7.944 -0.4877  0.0050 -0.6204
  268MOL   C11148705   0.630   0.332   8.051  0.3747  0.3985  0.5433
  268MOL   C11248706   0.719   0.250   7.832 -0.4922 -0.6051 -0.6099
  268MOL   O11348707   0.666   0.276   7.724 -0.0987 -0.5057 -0.5028
  268MOL   O11448708   0.771   0.133   7.864 -0.4092 -0.1323  0.3473
  268MOL   H11548709   0.714   0.461   7.902 -2.0834 -0.8446 -1.9059
  268MOL   H11648710   0.621   0.225   8.072  0.2425 -0.0378 -1.6315
  268MOL   H11748711   0.641   0.383   8.146 -0.9497  2.4732 -0.3800
  268MOL   H11848712   0.529   0.357   8.018 -1.4652 -2.3997  3.6793
  268MOL   C11948713   0.772   0.027   7.777 -0.2483  0.3674  0.4007
  268MOL   C12048714   0.830   8.049   7.848 -0.1370  0.0744  0.4608
  268MOL   C12148715   0.849   0.049   7.649 -0.1555 -0.5563  0.3741
  268MOL   O12248716   0.940   0.128   7.646 -0.6004 -0.3751  0.2461
  268MOL   O12348717   0.801   8.121   7.546  1.0704 -0.4592  0.1824
  268MOL   H12448718   0.669   0.018   7.744 -0.9099  2.4224  1.7818
  268MOL   H12548719   0.778   8.035   7.943 -0.5674  0.2335  0.2452
  268MOL   H12648720   0.820   7.953   7.797 -1.0291 -0.3640  1.4354
  268MOL   H12748721   0.936   8.054   7.874 -0.2159  0.5309  0.7059
  268MOL   C12848722   0.859   8.126   7.413 -0.0458 -0.4809 -0.3411
  268MOL   C12948723   0.753   8.073   7.321 -0.4490  0.4643  0.0449
  268MOL   C13048724   0.984   8.039   7.404 -0.8070  1.2344 -0.4984
  268MOL   O13148725   1.088   8.081   7.351  0.0473  0.2507 -0.1540
  268MOL   O13248726   0.965   7.909   7.436 -0.0670  0.4112 -0.2313
  268MOL   H13348727   0.886   0.081   7.385  1.8883 -0.8226  0.1963
  268MOL   H13448728   0.659   8.127   7.315 -1.4011 -1.2542 -0.9319
  268MOL   H13548729   0.782   8.077   7.216 -0.3362 -0.5649  0.0326
  268MOL   H13648730   0.734   7.967   7.339 -1.0979  0.8148  1.4414
  268MOL   C13748731   1.060   7.807   7.396  0.1328  0.0442  0.3114
  268MOL   C13848732   1.197   7.819   7.466 -0.1817 -0.2551  0.5407
  268MOL   C13948733   1.057   7.792   7.244 -0.3145 -0.0265  0.8893
  268MOL   O14048734   0.953   7.772   7.182  0.2394  1.1035 -1.0265
  268MOL   O14148735   1.174   7.798   7.190 -1.0218 -0.4157 -0.2676
  268MOL   H14248736   1.014   7.712   7.420  1.0651 -0.4299  0.2459
  268MOL   H14348737   1.246   7.722   7.457  1.1662  0.5485 -1.0602
  268MOL   H14448738   1.264   7.885   7.411 -0.4543 -1.7359 -1.6574
  268MOL   H14548739   1.194   7.846   7.571 -0.2266  0.9974  0.2186
  268MOL   C14648740   1.209   7.798   7.051 -0.5644  0.5827  0.4161
  268MOL   C14748741   1.365   7.796   7.039 -0.6645  0.0326 -0.3832
  268MOL   C14848742   1.146   7.899   6.960 -0.1666  0.0212  0.4949
  268MOL   O14948743   1.060   7.874   6.878 -0.4570  0.7561  0.0601
  268MOL   O15048744   1.203   8.012   6.990  0.1497 -0.3073 -0.0959
  268MOL   H15148745   1.174   7.703   7.012 -0.8155 -0.1228  2.3107
  268MOL   H15248746   1.403   7.836   6.945 -1.1937  2.5070  0.4079
  268MOL   H15348747   1.400   7.864   7.117  0.0644  1.5857 -2.0320
  268MOL   H15448748   1.410   7.697   7.040  0.5121  0.5383 -2.0446
  268MOL   C15548749   1.176   8.128   6.901  0.5697  0.6761  0.1622
  268MOL   C15648750   1.297   0.069   6.913 -0.2628 -0.1555 -0.3084
  268MOL   C15748751   1.044   0.049   6.952 -0.3176  0.8111 -0.3132
  268MOL   O15848752   1.003   0.042   7.068 -0.0623  0.5320  0.1400
  268MOL   O15948753   0.985   0.123   6.853 -0.1446 -1.0357  0.6608
  268MOL   H16048754   1.164   8.102   6.796 -1.2101 -1.8914  0.9406
  268MOL   H16148755   1.292   0.163   6.859  1.3711 -1.0965 -2.1149
  268MOL   H16248756   1.306   0.108   7.015  0.0165  0.5655 -0.6092
  268MOL   H16348757   1.385   0.009   6.891 -0.8481 -0.1929 -2.6065
  268MOL   C16448758   0.865   0.201   6.873 -0.4621 -0.4120 -0.4763
  268MOL   C16548759   0.889   0.320   6.966  0.4553  0.0147 -0.1698
  268MOL   C16648760   0.756   0.103   6.913 -0.2539  1.1197  0.2809
  268MOL   O16748761   0.683   0.110   7.005  0.0805  0.0425  0.1615
  268MOL   O16848762   0.749   0.005   6.828  0.0334 -0.0828 -0.0174
  268MOL   H16948763   0.838   0.241   6.775  0.9833  0.4151 -0.5532
  268MOL   H17048764   0.918   0.412   6.914 -1.8815  0.7640 -0.2323
  268MOL   H17148765   0.794   0.334   7.019 -0.5929 -0.4671 -1.8678
  268MOL   H17248766   0.948   0.280   7.048 -0.3565 -2.7909 -0.8919
  268MOL   C17348767   0.654   8.052   6.832 -0.0720 -0.7931  0.1048
  268MOL   C17448768   0.724   7.937   6.910  0.1401  0.3481  0.3230
  268MOL   C17548769   0.606   8.029   6.687 -0.0570  0.0019  0.0045
  268MOL   O17648770   0.603   7.919   6.632 -0.0999  0.1950  0.2997
  268MOL   O17748771   0.565   8.140   6.624  0.3144 -0.1476  0.4464
  268MOL   H17848772   0.566   8.084   6.888 -0.5499 -0.6007 -0.7503
  268MOL   H17948773   0.751   7.964   7.012 -0.3384 -0.4273  0.6565
  268MOL   H18048774   0.653   7.855   6.915  0.9325 -0.3475  0.3623
  268MOL   H18148775   0.809   7.906   6.848  2.7662  3.2377  2.2919
  268MOL   H18248776   0.581   0.065   6.682  1.4297  1.1299 -1.3997
  269MOL     C148777   0.205   3.438   0.676  0.7449  0.6244  0.4919
  269MOL     C248778   0.290   3.543   0.607 -0.3949  0.1243  0.4656
  269MOL     C348779   0.063   3.435   0.615 -0.2012 -0.5913 -0.2247
  269MOL     O448780   0.055   3.381   0.507  0.2982 -0.1698  0.7406
  269MOL     O548781   8.117   3.486   0.684  0.0456 -0.5336  0.2534
  269MOL     H648782   0.251   3.339   0.685  0.1589  0.4771  2.0239
  269MOL     H748783   0.392   3.552   0.642 -0.8448 -0.3792  1.9261
  269MOL     H848784   0.320   3.522   0.504 -1.3005 -1.6018  0.5455
  269MOL     H948785   0.240   3.641   0.610 -1.9540 -0.6315 -0.0036
  269MOL    H1048786   0.198   3.459   0.783  1.4120  0.2201  0.6165
  269MOL    C1148787   7.982   3.483   0.635 -0.0077  0.5522  0.5378
  269MOL    C1248788   7.900   3.590   0.706  0.3340 -0.1951  0.2899
  269MOL    C1348789   7.929   3.338   0.658 -0.1002 -0.3127 -0.3449
  269MOL    O1448790   7.990   3.247   0.710 -0.3696 -0.5436  0.2101
  269MOL    O1548791   7.807   3.337   0.608  0.2049 -0.0320  0.5469
  269MOL    H1648792   7.965   3.507   0.530  1.9705 -0.5989 -0.0750
  269MOL    H1748793   7.958   3.682   0.697 -2.0420  1.4877  1.6013
  269MOL    H1848794   7.802   3.605   0.663  1.1660  0.0433 -1.5571
  269MOL    H1948795   7.885   3.566   0.812 -4.7309 -0.8282 -0.4766
  269MOL    C2048796   7.722   3.223   0.627  0.0409  0.5014 -0.1508
  269MOL    C2148797   7.611   3.240   0.516  0.6484 -0.1746  0.4450
  269MOL    C2248798   7.671   3.214   0.773  0.4270  0.3044 -0.5763
  269MOL    O2348799   7.675   3.106   0.833  0.1208  0.2129  0.1549
  269MOL    O2448800   7.631   3.327   0.819 -0.8027 -0.1362  0.4542
  269MOL    H2548801   7.779   3.132   0.605 -1.8236 -1.2472  1.9998
  269MOL    H2648802   7.661   3.239   0.419 -0.3454  1.0118 -0.0856
  269MOL    H2748803   7.540   3.159   0.524  1.4605 -1.1157 -1.4591
  269MOL    H2848804   7.552   3.331   0.521  0.8862 -0.0622  1.3149
  269MOL    C2948805   7.577   3.344   0.955  0.1525  0.4335  0.6297
  269MOL    C3048806   7.482   3.466   0.939 -0.0128 -0.1665  0.2814
  269MOL    C3148807   7.680   3.351   1.073 -0.2025  0.0188  0.1231
  269MOL    O3248808   7.646   3.308   1.185  0.5264  0.0504 -0.3156
  269MOL    O3348809   7.801   3.396   1.042  0.2848 -0.0446  0.2145
  269MOL    H3448810   7.502   3.269   0.981 -1.0704  1.9994  1.7350
  269MOL    H3548811   7.459   3.512   1.035  0.5156  1.4185 -0.3386
  269MOL    H3648812   7.518   3.551   0.882 -0.9032  0.6128  0.8749
  269MOL    H3748813   7.387   3.443   0.889  0.8098  1.3943 -2.0839
  269MOL    C3848814   7.914   3.359   1.120 -0.1353 -0.2357 -0.3296
  269MOL    C3948815   8.042   3.394   1.042  0.1943 -0.0813 -0.7662
  269MOL    C4048816   7.928   3.202   1.140 -0.4653 -0.4247  0.4713
  269MOL    O4148817   7.903   3.119   1.053  0.0409 -0.0868  0.0652
  269MOL    O4248818   7.965   3.175   1.266  0.1937 -0.6477 -0.1627
  269MOL    H4348819   7.921   3.407   1.217  0.1629 -2.2858  0.7065
  269MOL    H4448820   8.041   3.503   1.033 -0.8483 -0.0938 -0.8350
  269MOL    H4548821   8.132   3.363   1.096 -1.4079 -2.4413  0.6729
  269MOL    H4648822   8.039   3.343   0.946  1.1312 -1.1292 -0.2427
  269MOL    C4748823   7.972   3.034   1.300 -0.1509 -0.5987  0.2302
  269MOL    C4848824   7.946   3.026   1.441  0.7645  0.4929 -0.7548
  269MOL    C4948825   8.103   2.979   1.252 -0.2947  0.1096  0.8982
  269MOL    O5048826   0.044   3.051   1.202  0.2129  0.4559  0.2882
  269MOL    O5148827   8.102   2.847   1.252 -0.2025 -0.5346  0.4995
  269MOL    H5248828   7.892   2.982   1.248  0.2703 -0.0993 -0.9498
  269MOL    H5348829   8.017   3.090   1.493  0.6748 -0.0658  0.0718
  269MOL    H5448830   7.851   3.071   1.471  0.4318 -1.5018  1.3484
  269MOL    H5548831   7.946   2.922   1.472  1.0842 -0.0853 -2.6558
  269MOL    C5648832   0.051   2.767   1.185 -0.7734  0.3981 -0.4405
  269MOL    C5748833   8.124   2.632   1.139 -0.0765 -0.6017  0.0176
  269MOL    C5848834   0.154   2.731   1.298  0.0191  0.2666 -0.4389
  269MOL    O5948835   0.123   2.735   1.419  0.1386 -0.1014 -0.0039
  269MOL    O6048836   0.273   2.704   1.249 -0.3775  0.5472 -0.2574
  269MOL    H6148837   0.103   2.824   1.108 -0.8313  1.2837  0.1727
  269MOL    H6248838   8.060   2.668   1.058  0.4457  1.3920  0.4906
  269MOL    H6348839   0.052   2.556   1.121  2.0489  1.2820  0.8643
  269MOL    H6448840   8.054   2.587   1.209  0.3343  1.4131  1.7538
  269MOL    C6548841   0.373   2.633   1.321  0.3986 -0.6624  0.2229
  269MOL    C6648842   0.505   2.661   1.248  0.2565  0.0851  0.8840
  269MOL    C6748843   0.344   2.488   1.313  0.3208  0.0602  0.5326
  269MOL    O6848844   0.332   2.413   1.413  0.4599  0.3668  0.1432
  269MOL    O6948845   0.311   2.449   1.183 -0.4411 -0.4059 -0.2957
  269MOL    H7048846   0.370   2.650   1.428 -1.2207 -1.2411  0.2915
  269MOL    H7148847   0.578   2.607   1.309  1.3577  0.2149 -0.2939
  269MOL    H7248848   0.511   2.623   1.146  1.3996 -2.2785  1.7784
  269MOL    H7348849   0.536   2.765   1.243 -1.2722  0.4859 -1.1960
  269MOL    C7448850   0.276   2.313   1.147 -0.8440  1.3814  0.2508
  269MOL    C7548851   0.145   2.263   1.202 -0.3500 -0.0076  0.5085
  269MOL    C7648852   0.385   2.209   1.183  0.6482 -0.3271 -0.2949
  269MOL    O7748853   0.503   2.242   1.218  0.2297 -0.3243  0.0325
  269MOL    O7848854   0.339   2.082   1.178 -0.1726 -0.6795 -0.3236
  269MOL    H7948855   0.275   2.321   1.039  2.8710 -2.5741 -0.2567
  269MOL    H8048856   0.083   2.345   1.164  1.4261  0.6576 -1.0714
  269MOL    H8148857   0.106   2.168   1.166  1.4276 -1.6435  2.7794
  269MOL    H8248858   0.126   2.267   1.309  0.0781 -0.8769  0.6135
  269MOL    C8348859   0.425   1.971   1.202 -0.1721 -0.2028  0.2108
  269MOL    C8448860   0.390   1.877   1.083 -0.1654 -0.6457  0.0889
  269MOL    C8548861   0.399   1.912   1.345 -0.2810  0.1097  0.0858
  269MOL    O8648862   0.371   1.799   1.358 -0.4268  0.3696 -0.0812
  269MOL    O8748863   0.407   2.009   1.443 -0.7107  0.3183 -0.1991
  269MOL    H8848864   0.530   1.999   1.189 -0.9664  1.8192 -2.2661
  269MOL    H8948865   0.400   1.930   0.989  1.7556 -0.2880  0.4775
  269MOL    H9048866   0.459   1.793   1.089 -0.4314 -0.7297  2.6928
  269MOL    H9148867   0.292   1.829   1.094 -0.2849 -0.0372  1.9035
  269MOL    C9248868   0.377   1.979   1.578 -0.4345  0.0928 -0.0539
  269MOL    C9348869   0.365   2.119   1.653 -0.2987  0.3059 -0.1421
  269MOL    C9448870   0.476   1.880   1.640 -0.2332  0.2147  0.1133
  269MOL    O9548871   0.455   1.759   1.652 -0.9330 -0.5667 -0.1094
  269MOL    O9648872   0.597   1.936   1.674  0.1494  0.9897  0.2386
  269MOL    H9748873   0.278   1.933   1.590 -0.9213  1.3885  0.9451
  269MOL    H9848874   0.439   2.188   1.613 -0.2105 -0.4183 -1.2243
  269MOL    H9948875   0.263   2.157   1.647  0.0291  0.7783 -2.9905
  269MOL   H10048876   0.379   2.108   1.761 -1.6668  0.6057  0.0750
  269MOL   C10148877   0.690   1.863   1.763 -0.3403 -0.4832 -0.2643
  269MOL   C10248878   0.756   1.969   1.847  0.2365 -0.4873 -0.4331
  269MOL   C10348879   0.790   1.782   1.677  0.0715 -0.9348 -0.2793
  269MOL   O10448880   0.803   1.798   1.560  0.3288 -0.3150  0.1034
  269MOL   O10548881   0.863   1.701   1.751  0.3365 -0.0189 -0.0794
  269MOL   H10648882   0.638   1.805   1.839  1.3348  2.3881  3.2197
  269MOL   H10748883   0.779   1.928   1.945 -1.3921 -1.1051 -0.2916
  269MOL   H10848884   0.841   2.009   1.792 -1.0540 -0.1856 -2.2472
  269MOL   H10948885   0.705   2.063   1.865  0.7788 -0.0261 -1.2610
  269MOL   C11048886   0.997   1.655   1.723  0.0242  0.5198  0.0047
  269MOL   C11148887   1.008   1.508   1.735  0.2344 -0.5688  0.2005
  269MOL   C11248888   1.106   1.734   1.802 -0.0219 -0.5432  0.0495
  269MOL   O11348889   1.074   1.810   1.892 -0.1521  0.3041 -0.6637
  269MOL   O11448890   1.232   1.709   1.763  0.0099 -0.0009 -0.2803
  269MOL   H11548891   1.012   1.668   1.616 -1.1630  2.0272  0.0184
  269MOL   H11648892   0.933   1.476   1.807 -1.4020  1.3966 -0.5679
  269MOL   H11748893   1.002   1.455   1.640 -0.0734 -0.8475  0.3759
  269MOL   H11848894   1.108   1.474   1.760  0.8152  0.2372 -0.9702
  269MOL   C11948895   1.343   1.762   1.839 -0.1115  0.2650  0.5198
  269MOL   C12048896   1.474   1.727   1.765 -0.0441  0.3867  0.3183
  269MOL   C12148897   1.348   1.713   1.984 -0.0662  0.1666 -0.2220
  269MOL   O12248898   1.407   1.771   2.077  0.7430 -0.2384  0.6853
  269MOL   O12348899   1.293   1.593   1.999 -0.1130  0.0462  0.0246
  269MOL   H12448900   1.339   1.870   1.851  1.0058  0.6035 -1.8097
  269MOL   H12548901   1.500   1.623   1.787 -1.0073  0.2965  1.1021
  269MOL   H12648902   1.462   1.737   1.657  0.7062  0.0959  0.2041
  269MOL   H12748903   1.550   1.800   1.792  1.2950 -0.1981 -1.7449
  269MOL   C12848904   1.295   1.523   2.120  0.2296  0.0185  0.1230
  269MOL   C12948905   1.249   1.373   2.099  0.9742 -0.8734 -0.2622
  269MOL   C13048906   1.192   1.578   2.214  0.1661  0.5080 -0.0245
  269MOL   O13148907   1.199   1.577   2.337 -0.6294  0.2171 -0.1462
  269MOL   O13248908   1.083   1.620   2.142  0.0913 -0.6037  0.3098
  269MOL   H13348909   1.389   1.526   2.175  0.5781 -0.0146 -0.4692
  269MOL   H13448910   1.140   1.370   2.087  0.8752 -0.3514  0.4839
  269MOL   H13548911   1.318   1.322   2.032  0.7800  0.2185 -1.3009
  269MOL   H13648912   1.246   1.320   2.195 -1.2254 -0.4193 -0.0572
  269MOL   C13748913   0.959   1.667   2.210 -1.1208  0.0463 -0.5139
  269MOL   C13848914   0.848   1.673   2.109 -0.1476  0.1280  0.1211
  269MOL   C13948915   0.988   1.805   2.265  0.2538 -0.1777  0.1933
  269MOL   O14048916   0.929   1.841   2.367 -0.1210  0.1873  0.3312
  269MOL   O14148917   1.069   1.883   2.188 -0.1211 -0.3106  0.0960
  269MOL   H14248918   0.940   1.597   2.291 -1.0614  0.2618 -0.3155
  269MOL   H14348919   0.872   1.742   2.028 -0.6948 -0.7998 -0.8445
  269MOL   H14448920   0.811   1.577   2.073 -0.8887 -0.2512  1.8385
  269MOL   H14548921   0.758   1.713   2.157 -0.6077 -0.6159 -0.1077
  269MOL   C14648922   1.082   2.024   2.212 -0.3852  0.2370 -0.2913
  269MOL   C14748923   1.152   2.072   2.083 -0.6592 -0.3678  0.8542
  269MOL   C14848924   1.176   2.039   2.333  0.0284 -0.2906 -0.5013
  269MOL   O14948925   1.301   2.059   2.321 -0.6016 -0.2341  0.3683
  269MOL   O15048926   1.107   2.038   2.449  0.6763  0.0580  0.1334
  269MOL   H15148927   0.990   2.076   2.235 -0.0653  0.1212  1.3579
  269MOL   H15248928   1.223   1.993   2.057  0.5035  0.4283  1.5936
  269MOL   H15348929   1.081   2.075   2.000  2.4210 -2.2684 -2.0125
  269MOL   H15448930   1.205   2.167   2.092 -1.2825  0.1774 -0.9722
  269MOL   C15548931   1.178   2.021   2.575  0.5509  0.4359  0.2824
  269MOL   C15648932   1.138   1.884   2.631 -0.2724  0.3032 -0.8185
  269MOL   C15748933   1.142   2.136   2.661 -0.0315  0.3072 -0.3812
  269MOL   O15848934   1.099   2.246   2.616 -0.9109 -0.1041  0.5618
  269MOL   O15948935   1.143   2.110   2.793  0.8028  0.3760  0.2720
  269MOL   H16048936   1.285   2.035   2.561  0.3372  1.6169 -0.2069
  269MOL   H16148937   1.208   1.866   2.713 -0.5755  1.6146 -0.2513
  269MOL   H16248938   1.040   1.877   2.677  1.4885 -0.2985  3.0510
  269MOL   H16348939   1.145   1.803   2.559 -0.0470  0.0812 -0.5479
  269MOL   C16448940   1.098   2.200   2.895 -0.4580  0.5144  0.2084
  269MOL   C16548941   1.161   2.152   3.024 -0.0967 -0.8691  0.4513
  269MOL   C16648942   0.945   2.197   2.908 -0.7055  0.1364  0.1264
  269MOL   O16748943   0.877   2.286   2.962  0.2026  0.2624  0.2271
  269MOL   O16848944   0.895   2.082   2.868  0.5647  0.0040 -0.0738
  269MOL   H16948945   1.142   2.297   2.874  3.6004 -1.3688 -0.3447
  269MOL   H17048946   1.269   2.142   3.015  0.0624  0.9878  0.1365
  269MOL   H17148947   1.136   2.213   3.111 -0.7958 -2.8940  1.7112
  269MOL   H17248948   1.116   2.055   3.047 -3.0622  0.3866  0.2149
  269MOL   C17348949   0.768   2.037   2.906  0.2736 -0.7520  0.2949
  269MOL   C17448950   0.774   1.975   3.048  0.1532  0.2538  0.1298
  269MOL   C17548951   0.729   1.929   2.795  0.0166 -0.6187 -0.2574
  269MOL   O17648952   0.681   1.819   2.821 -0.0272 -0.2497  0.1241
  269MOL   O17748953   0.750   1.976   2.665  0.3414 -0.1759 -0.6229
  269MOL   H17848954   0.691   2.115   2.901  1.2582  0.1236 -1.8946
  269MOL   H17948955   0.796   2.059   3.113  0.0661  1.8553 -1.8666
  269MOL   H18048956   0.670   1.950   3.067  0.2799 -0.3855  0.0005
  269MOL   H18148957   0.834   1.884   3.052  0.4582  0.5031  1.4237
  269MOL   H18248958   0.802   2.055   2.667 -1.9849  1.3881  2.0281
  270MOL     C148959   6.073   0.922   3.247  0.0729 -0.5013  0.5515
  270MOL     C248960   6.053   0.781   3.175  0.2080  0.3646  0.0255
  270MOL     C348961   6.106   1.021   3.139  0.2810  0.0826 -0.0276
  270MOL     O448962   6.191   1.109   3.170  0.1027 -0.1165  0.0884
  270MOL     O548963   6.037   1.018   3.020 -0.9638 -0.7631 -0.1641
  270MOL     H648964   5.978   0.945   3.295  0.1171  0.4877  0.1746
  270MOL     H748965   6.069   0.703   3.251  1.9727  1.1118  0.4502
  270MOL     H848966   5.949   0.757   3.153  0.3618 -1.5257  1.1450
  270MOL     H948967   6.104   0.769   3.080 -0.3443 -0.2249 -0.2015
  270MOL    H1048968   6.161   0.909   3.311 -1.0725 -0.6465  2.1379
  270MOL    C1148969   6.059   1.117   2.915 -0.6747  0.0035 -0.1831
  270MOL    C1248970   5.960   1.112   2.794 -0.5555  0.1652 -0.1581
  270MOL    C1348971   6.197   1.121   2.868 -0.0660  0.5467  0.3852
  270MOL    O1448972   6.261   1.223   2.872  0.0892 -0.4339  0.2534
  270MOL    O1548973   6.245   0.991   2.838 -0.2008 -0.1726  0.1045
  270MOL    H1648974   6.049   1.222   2.942 -0.0453  0.2779 -0.9754
  270MOL    H1748975   5.859   1.126   2.833 -0.1305  2.0402  0.3396
  270MOL    H1848976   5.979   1.183   2.713  2.1825 -2.2223 -1.7050
  270MOL    H1948977   5.965   1.012   2.749  1.2640 -0.5388  1.5539
  270MOL    C2048978   6.383   0.974   2.807  0.6623  0.6681  0.3149
  270MOL    C2148979   6.414   1.027   2.660 -0.1001  0.0931 -0.6284
  270MOL    C2248980   6.418   0.826   2.814  0.4086 -0.1140  0.1399
  270MOL    O2348981   6.353   0.739   2.757 -0.0796  0.1537 -0.2225
  270MOL    O2448982   6.538   0.806   2.879  0.2020 -0.5495  0.6811
  270MOL    H2548983   6.453   1.022   2.875 -1.3328  1.1301  2.0842
  270MOL    H2648984   6.361   0.963   2.589 -0.8902  2.2866 -2.0793
  270MOL    H2748985   6.374   1.126   2.637  2.7850  1.0931 -1.6096
  270MOL    H2848986   6.519   1.025   2.630  0.4897 -0.3529  1.4377
  270MOL    C2948987   6.587   0.677   2.900  0.6041  0.1297  0.0039
  270MOL    C3048988   6.534   0.615   3.042  0.0658  0.5508 -0.7087
  270MOL    C3148989   6.737   0.687   2.900 -0.0273 -0.0770  0.8136
  270MOL    O3248990   6.799   0.640   2.801  0.4054 -0.1352  0.3954
  270MOL    O3348991   6.793   0.753   3.008  0.0592 -0.2457  0.1770
  270MOL    H3448992   6.555   0.604   2.825 -0.9037 -1.1851  1.8740
  270MOL    H3548993   6.547   0.507   3.039  1.6183  0.7312 -0.9487
  270MOL    H3648994   6.585   0.646   3.133 -0.1757  1.1924 -0.7898
  270MOL    H3748995   6.427   0.622   3.059 -0.3758 -2.3487 -2.0345
  270MOL    C3848996   6.930   0.764   3.028  0.4475  0.3522 -0.1795
  270MOL    C3948997   6.964   0.726   3.174  0.2068  0.3757  0.6017
  270MOL    C4048998   6.973   0.909   2.989  0.4731 -0.0152  1.1668
  270MOL    O4148999   7.044   0.977   3.063 -0.7844  0.2593 -0.5875
  270MOL    O4249000   6.921   0.946   2.873 -0.3485 -0.1343  0.3813
  270MOL    H4349001   6.980   0.699   2.957  0.0866 -0.4205  0.2664
  270MOL    H4449002   7.066   0.758   3.196  0.7404 -0.6183 -0.3948
  270MOL    H4549003   6.890   0.767   3.243  2.3472  0.7574  2.7399
  270MOL    H4649004   6.972   0.621   3.199  1.6475  0.5918  1.1404
  270MOL    C4749005   6.932   1.073   2.817  0.1264  0.4407  0.3268
  270MOL    C4849006   6.808   1.077   2.722  0.1106  0.1373  0.0902
  270MOL    C4949007   7.063   1.100   2.742 -0.8026  0.3848  0.6313
  270MOL    O5049008   7.068   1.061   2.624 -0.4478 -0.4875 -0.0582
  270MOL    O5149009   7.169   1.144   2.812 -0.3504 -0.3908  0.8498
  270MOL    H5249010   6.911   1.148   2.894  1.3427  0.4969  0.6277
  270MOL    H5349011   6.721   1.109   2.779  1.2477  1.7929  0.9362
  270MOL    H5449012   6.811   1.153   2.645  0.8518  0.8854  0.8526
  270MOL    H5549013   6.779   0.989   2.664 -0.1908 -0.9461  1.8420
  270MOL    C5649014   7.301   1.114   2.761 -0.1620  0.4951  0.3559
  270MOL    C5749015   7.392   1.146   2.875  1.0083 -1.1328 -0.0324
  270MOL    C5849016   7.341   1.202   2.636  0.1018 -0.4039  0.2727
  270MOL    O5949017   7.406   1.156   2.539  0.2085 -0.1907  0.5742
  270MOL    O6049018   7.316   1.332   2.661 -0.0827  0.0914 -0.1321
  270MOL    H6149019   7.309   1.010   2.730 -0.7683  0.0586  1.6138
  270MOL    H6249020   7.394   1.077   2.959 -0.7683 -0.3306  0.6839
  270MOL    H6349021   7.491   1.174   2.839 -0.9338  1.0653 -4.1230
  270MOL    H6449022   7.360   1.235   2.928 -0.0332 -1.8891  0.6283
  270MOL    C6549023   7.357   1.437   2.569 -0.6642 -0.5947 -0.0915
  270MOL    C6649024   7.280   1.439   2.437 -0.2385  0.5727 -0.1589
  270MOL    C6749025   7.511   1.453   2.559  0.0704 -0.4352 -0.6873
  270MOL    O6849026   7.570   1.507   2.465  0.2076 -0.1596  0.0513
  270MOL    O6949027   7.572   1.407   2.665 -0.4071 -0.0762  0.0824
  270MOL    H7049028   7.333   1.528   2.624  1.1596  0.0493 -0.3292
  270MOL    H7149029   7.279   1.339   2.393 -2.2301  0.1180  0.8527
  270MOL    H7249030   7.174   1.454   2.461 -0.4707 -0.6806 -0.3506
  270MOL    H7349031   7.294   1.517   2.363  2.5352 -0.3326 -0.6186
  270MOL    C7449032   7.717   1.399   2.685 -0.2611 -0.4986  0.5202
  270MOL    C7549033   7.745   1.322   2.813 -0.1037 -0.1533  0.3618
  270MOL    C7649034   7.772   1.541   2.700  0.5905 -0.2829  0.1487
  270MOL    O7749035   7.695   1.632   2.738 -0.0593 -0.2357 -0.0774
  270MOL    O7849036   7.909   1.547   2.687  0.4846 -0.1472 -0.3881
  270MOL    H7949037   7.769   1.356   2.599  0.2387 -0.8072  0.9758
  270MOL    H8049038   7.851   1.330   2.836 -0.0023  0.2612 -0.2313
  270MOL    H8149039   7.693   1.365   2.898  1.2280 -0.6382  1.4277
  270MOL    H8249040   7.708   1.219   2.812  0.6907 -0.4469 -0.8192
  270MOL    C8349041   7.984   1.673   2.719 -0.8632 -0.4470  0.1465
  270MOL    C8449042   8.133   1.640   2.704 -0.4423  0.8050  0.3749
  270MOL    C8549043   7.962   1.713   2.860  0.2520 -0.1639 -0.7611
  270MOL    O8649044   7.978   1.635   2.953 -0.0534 -0.0424 -0.3747
  270MOL    O8749045   7.902   1.839   2.867  0.0257  0.7083 -0.1012
  270MOL    H8849046   7.958   1.745   2.641 -2.7501 -0.9956  0.2430
  270MOL    H8949047   8.147   1.641   2.596 -1.9032  0.4264  0.1650
  270MOL    H9049048   0.061   1.710   2.740 -1.0186  1.9773 -0.6802
  270MOL    H9149049   8.145   1.534   2.728 -1.9485  0.6565  0.5300
  270MOL    C9249050   7.868   1.904   2.992  0.1562 -0.3326 -0.0691
  270MOL    C9349051   7.752   2.000   2.972  0.4664  0.5799  0.0751
  270MOL    C9449052   7.992   1.968   3.053  0.0465  0.3708 -0.8806
  270MOL    O9549053   8.085   1.998   2.983  0.1486  0.3707 -0.2105
  270MOL    O9649054   7.986   1.991   3.189 -0.0859 -0.3996  0.9971
  270MOL    H9749055   7.839   1.831   3.068  1.2089 -1.8771 -1.1030
  270MOL    H9849056   7.734   2.080   3.043 -0.5795  0.6521 -0.2539
  270MOL    H9949057   7.725   2.028   2.870  0.2789  0.4821  0.0968
  270MOL   H10049058   7.669   1.932   2.993  1.2764 -0.3105  0.4225
  270MOL   C10149059   8.090   2.060   3.256 -0.2826  0.6968 -0.5880
  270MOL   C10249060   8.061   2.054   3.416  0.3650 -0.0606 -0.1367
  270MOL   C10349061   8.101   2.205   3.217 -0.4044  0.2479 -0.2104
  270MOL   O10449062   8.011   2.263   3.161  0.0510  0.3514  0.9044
  270MOL   O10549063   0.075   2.261   3.255  0.3074  0.1544 -0.1064
  270MOL   H10649064   0.035   2.006   3.237  0.5630  1.1535  2.0198
  270MOL   H10749065   7.971   2.112   3.437 -0.3282 -1.3158  0.4509
  270MOL   H10849066   8.046   1.951   3.448  1.9847 -0.6311 -1.1724
  270MOL   H10949067   0.003   2.084   3.470 -0.2556 -1.3480  1.6819
  270MOL   C11049068   0.087   2.401   3.252 -0.5990  0.5287 -0.2992
  270MOL   C11149069   0.241   2.433   3.239  0.6505  0.2020 -0.4831
  270MOL   C11249070   0.035   2.463   3.386 -0.5661 -0.2820 -0.4449
  270MOL   O11349071   8.085   2.420   3.441 -0.3543 -0.0149  0.1729
  270MOL   O11449072   0.116   2.557   3.435 -0.6702  0.8336 -0.0357
  270MOL   H11549073   0.032   2.440   3.167 -3.2799 -0.9559  0.6750
  270MOL   H11649074   0.284   2.377   3.156  1.1630 -0.9843  0.5750
  270MOL   H11749075   0.266   2.540   3.240 -1.0447  0.6152  0.7773
  270MOL   H11849076   0.290   2.394   3.328 -0.8078  0.5344  0.4841
  270MOL   C11949077   0.081   2.635   3.548  0.2466  0.1726 -0.0754
  270MOL   C12049078   8.122   2.748   3.524 -0.3358 -0.4444  0.8201
  270MOL   C12149079   0.212   2.687   3.607  0.0369  0.0319  0.1291
  270MOL   O12249080   0.256   2.637   3.705  0.2632 -0.1714 -1.2077
  270MOL   O12349081   0.265   2.794   3.545  0.2324  0.0298 -0.0630
  270MOL   H12449082   0.036   2.570   3.622  0.7943 -2.9563 -2.4106
  270MOL   H12549083   8.052   2.768   3.605 -0.1592 -0.2343  0.9188
  270MOL   H12649084   0.015   2.844   3.495 -1.5946  0.2026  1.1720
  270MOL   H12749085   8.060   2.715   3.440  2.9160  0.9243 -2.2140
  270MOL   C12849086   0.389   2.861   3.577 -1.0154 -0.0477  0.5788
  270MOL   C12949087   0.382   2.997   3.504 -0.0383  0.1789 -0.4602
  270MOL   C13049088   0.514   2.784   3.536 -0.1262 -1.0453 -0.4337
  270MOL   O13149089   0.524   2.687   3.461 -0.4397 -0.1501 -0.6958
  270MOL   O13249090   0.621   2.830   3.600  0.4673  0.0220  0.1436
  270MOL   H13349091   0.399   2.878   3.684  0.0347  0.9785  0.3276
  270MOL   H13449092   0.383   2.973   3.397  0.3441 -1.9072 -0.0253
  270MOL   H13549093   0.294   3.055   3.527  0.0920 -0.1915  1.0022
  270MOL   H13649094   0.473   3.055   3.520  1.5402 -2.1576 -0.6569
  270MOL   C13749095   0.748   2.779   3.599  0.6578 -0.6376 -0.9696
  270MOL   C13849096   0.814   2.823   3.727 -0.0934 -0.2880 -0.6548
  270MOL   C13949097   0.831   2.814   3.476  0.2290  0.0973  0.4736
  270MOL   O14049098   0.882   2.722   3.412  0.4894 -0.7853  0.0924
  270MOL   O14149099   0.842   2.948   3.458 -0.1993  0.0112  0.4295
  270MOL   H14249100   0.752   2.670   3.587  3.4649 -0.3579 -2.7903
  270MOL   H14349101   0.921   2.802   3.734 -0.1938 -0.5005  0.2875
  270MOL   H14449102   0.798   2.931   3.729 -1.0527 -0.4434  0.1604
  270MOL   H14549103   0.778   2.766   3.813 -0.9103 -0.4894 -1.1209
  270MOL   C14649104   0.884   3.007   3.332  0.8842 -0.2109  0.7963
  270MOL   C14749105   1.041   3.005   3.319  0.4466 -0.5816  0.5266
  270MOL   C14849106   0.820   3.142   3.320 -0.2935 -0.2562 -0.4566
  270MOL   O14949107   0.765   3.175   3.217 -0.9333 -0.1739 -0.1500
  270MOL   O15049108   0.826   3.220   3.425 -0.2152  0.3588 -0.3635
  270MOL   H15149109   0.835   2.949   3.254 -1.2639  1.5515  0.7978
  270MOL   H15249110   1.069   3.072   3.238 -1.5797 -0.3546 -0.0158
  270MOL   H15349111   1.097   3.059   3.395 -1.4604 -0.4616  1.8958
  270MOL   H15449112   1.086   2.907   3.306  0.4026 -0.5293 -0.0205
  270MOL   C15549113   0.810   3.364   3.413 -0.1550 -0.2146  0.7151
  270MOL   C15649114   0.876   3.421   3.541  0.2460  0.0731 -0.7947
  270MOL   C15749115   0.659   3.400   3.419 -0.5693  0.5688 -0.1438
  270MOL   O15849116   0.573   3.323   3.454  0.3160  0.0475 -0.1656
  270MOL   O15949117   0.634   3.526   3.390  0.1390 -0.1534 -0.7557
  270MOL   H16049118   0.865   3.387   3.322  1.6837 -0.0356  1.8537
  270MOL   H16149119   0.847   3.523   3.566  1.6243  0.1293  0.6161
  270MOL   H16249120   0.853   3.365   3.632 -1.1115 -1.0537 -1.8104
  270MOL   H16349121   0.984   3.432   3.530  0.4499 -1.4517 -0.3573
  270MOL   C16449122   0.501   3.577   3.413 -0.2196 -0.5781  0.6486
  270MOL   C16549123   0.466   3.694   3.325 -0.1908  0.0067  0.7765
  270MOL   C16649124   0.474   3.615   3.560  0.3116  0.4203 -0.8721
  270MOL   O16749125   0.516   3.716   3.614 -0.0542  0.1898  0.4228
  270MOL   O16849126   0.399   3.522   3.621 -0.2175  0.5747 -0.2475
  270MOL   H16949127   0.422   3.508   3.382 -0.3986 -1.5872  3.2733
  270MOL   H17049128   0.541   3.772   3.338  1.5873 -1.0152 -2.9100
  270MOL   H17149129   0.463   3.667   3.220 -0.8493  2.1566  0.2231
  270MOL   H17249130   0.369   3.736   3.353 -1.3482 -1.4451 -0.9567
  270MOL   C17349131   0.340   3.533   3.747 -0.5266  1.0393  0.6056
  270MOL   C17449132   0.351   3.405   3.827 -0.1650 -0.1727 -0.8257
  270MOL   C17549133   0.203   3.595   3.736 -0.7109  0.6793  0.1392
  270MOL   O17649134   0.172   3.701   3.787 -0.8818  0.5836  0.3402
  270MOL   O17749135   0.127   3.520   3.653 -0.5899 -0.4419  0.3837
  270MOL   H17849136   0.406   3.598   3.804  0.9708  1.3395 -1.3904
  270MOL   H17949137   0.325   3.317   3.768 -1.1947 -0.5992  0.2642
  270MOL   H18049138   0.449   3.380   3.869 -0.2632  1.1249  0.2406
  270MOL   H18149139   0.296   3.404   3.921  0.0284  0.7716 -0.6897
  270MOL   H18249140   0.162   3.434   3.638 -0.1240  0.2708 -3.0625
  271MOL     C149141   1.172   0.488   6.770 -0.1061 -0.3272 -0.7262
  271MOL     C249142   1.221   0.430   6.901 -0.2147 -0.5270  0.2686
  271MOL     C349143   1.264   0.595   6.714 -0.0276 -0.4203  0.2261
  271MOL     O449144   1.226   0.705   6.674 -0.0404  0.7767 -0.1592
  271MOL     O549145   1.395   0.560   6.707 -0.2534 -0.0138  0.1098
  271MOL     H649146   1.162   0.411   6.694  0.9647 -1.2658  0.0549
  271MOL     H749147   1.223   0.506   6.979  0.7116  0.4363 -0.6585
  271MOL     H849148   1.146   0.357   6.931 -1.2220 -0.3654 -1.7530
  271MOL     H949149   1.322   0.388   6.899 -0.5155 -1.2752  0.7247
  271MOL    H1049150   1.072   0.525   6.791  0.0293  1.2049 -2.7466
  271MOL    C1149151   1.489   0.654   6.651  0.1502 -0.9279 -0.7279
  271MOL    C1249152   1.606   0.581   6.582 -0.7276  0.4122 -0.1350
  271MOL    C1349153   1.535   0.753   6.767 -0.1939  0.0559  0.3113
  271MOL    O1449154   1.647   0.748   6.815 -0.4115 -0.0862  0.5376
  271MOL    O1549155   1.441   0.834   6.806  0.9067  1.1902 -0.8318
  271MOL    H1649156   1.437   0.697   6.565 -0.2892 -0.1212 -0.0613
  271MOL    H1749157   1.674   0.534   6.654  1.0362  2.1381 -0.6222
  271MOL    H1849158   1.576   0.503   6.512  0.8823 -2.2304  1.9662
  271MOL    H1949159   1.658   0.657   6.524 -1.9692 -0.2352 -2.1457
  271MOL    C2049160   1.470   0.937   6.907  0.4228  0.4753  0.2015
  271MOL    C2149161   1.340   0.983   6.961 -0.2865  0.0230  0.1062
  271MOL    C2249162   1.545   1.061   6.851  0.2895  0.1139  0.6133
  271MOL    O2349163   1.651   1.106   6.895  0.0120 -0.3976 -0.0488
  271MOL    O2449164   1.471   1.122   6.747  0.3959 -0.2650 -0.4142
  271MOL    H2549165   1.534   0.897   6.985 -0.0141  1.1347  0.9075
  271MOL    H2649166   1.269   0.901   6.960 -1.5898  1.0752  2.2714
  271MOL    H2749167   1.351   1.001   7.068  2.1663 -1.8504  0.2195
  271MOL    H2849168   1.286   1.067   6.917  1.1695  0.9213 -0.0106
  271MOL    C2949169   1.512   1.236   6.683  0.0801  0.1680  0.2105
  271MOL    C3049170   1.392   1.322   6.652  0.1783  0.1262  0.3221
  271MOL    C3149171   1.583   1.188   6.554  0.1147  0.6874 -0.2318
  271MOL    O3249172   1.704   1.177   6.543  0.0726  0.0274 -0.1152
  271MOL    O3349173   1.493   1.140   6.456  0.1123  0.0967  0.3447
  271MOL    H3449174   1.579   1.290   6.749  0.5891  0.3869 -0.4860
  271MOL    H3549175   1.417   1.398   6.578 -0.4319  1.9089  1.9221
  271MOL    H3649176   1.314   1.253   6.619 -1.3789  1.7945  0.4671
  271MOL    H3749177   1.356   1.375   6.740  1.8726 -0.3270  1.3116
  271MOL    C3849178   1.544   1.091   6.334  0.2989 -0.3129 -0.5854
  271MOL    C3949179   1.436   1.069   6.229  0.1006 -0.2106 -0.6302
  271MOL    C4049180   1.617   0.958   6.362 -0.0878 -0.0513  1.0571
  271MOL    O4149181   1.558   0.849   6.371  0.1508 -0.9400 -0.1248
  271MOL    O4249182   1.750   0.974   6.366 -0.0761  0.3851  0.0060
  271MOL    H4349183   1.622   1.158   6.298 -0.4055  0.2433 -1.0915
  271MOL    H4449184   1.371   0.983   6.244 -2.8963  1.8726 -1.3959
  271MOL    H4549185   1.383   1.162   6.209  2.1714  1.0335 -0.4812
  271MOL    H4649186   1.494   1.061   6.137  2.5708 -0.7290  0.9071
  271MOL    C4749187   1.841   0.866   6.379 -0.5702  0.1580 -0.6338
  271MOL    C4849188   1.886   0.852   6.531  0.1357 -0.2469  0.8035
  271MOL    C4949189   1.940   0.884   6.264 -0.7494 -0.2714 -0.3236
  271MOL    O5049190   2.014   0.985   6.257 -0.0833  0.2657  0.2321
  271MOL    O5149191   1.941   0.780   6.181 -0.1545  0.0667  0.5802
  271MOL    H5249192   1.788   0.772   6.364  0.9683 -1.3434  2.8071
  271MOL    H5349193   1.795   0.845   6.591  1.3320 -1.2619  2.5810
  271MOL    H5449194   1.944   0.760   6.540 -2.8927 -2.3079  0.0366
  271MOL    H5549195   1.952   0.935   6.557 -1.1270  1.1444 -0.3700
  271MOL    C5649196   2.012   0.770   6.058 -0.6293  0.5214 -0.4617
  271MOL    C5749197   2.170   0.744   6.093  0.0502  0.4604 -0.5351
  271MOL    C5849198   1.993   0.892   5.963 -0.9587 -0.0557  0.2333
  271MOL    O5949199   2.090   0.963   5.932  0.5644  0.2164  0.2395
  271MOL    O6049200   1.863   0.913   5.940 -0.2879  0.0845  0.0753
  271MOL    H6149201   1.973   0.681   6.008  3.0315 -1.0778 -0.6608
  271MOL    H6249202   2.224   0.828   6.139  0.1730  1.3221 -2.2110
  271MOL    H6349203   2.182   0.664   6.166  1.2600 -0.4254 -1.6766
  271MOL    H6449204   2.228   0.719   6.004  1.2685  1.5989 -0.0960
  271MOL    C6549205   1.832   1.042   5.890  0.1665  0.3150  0.7744
  271MOL    C6649206   1.696   1.088   5.957  0.0448 -0.5586 -0.2466
  271MOL    C6749207   1.814   1.039   5.738  0.1527 -0.1169 -0.1366
  271MOL    O6849208   1.858   1.134   5.668 -0.4563  0.1215 -0.1020
  271MOL    O6949209   1.741   0.934   5.687 -0.0888 -0.3060  0.3594
  271MOL    H7049210   1.905   1.122   5.902  0.4348  0.2775 -0.5440
  271MOL    H7149211   1.727   1.133   6.052  0.5601  2.5804 -1.8446
  271MOL    H7249212   1.633   1.164   5.911  0.8982  2.6283  3.5090
  271MOL    H7349213   1.641   0.997   5.983  0.0136 -0.1084  1.3153
  271MOL    C7449214   1.752   0.905   5.550 -0.0263  0.0378 -0.5726
  271MOL    C7549215   1.619   0.856   5.490 -0.0944  0.3757  0.1640
  271MOL    C7649216   1.862   0.805   5.529  0.0221  0.1653 -0.3093
  271MOL    O7749217   1.962   0.834   5.463  0.1137 -0.2261  0.0035
  271MOL    O7849218   1.834   0.682   5.583  0.3112  0.0230  0.2364
  271MOL    H7949219   1.778   0.996   5.495  2.7676  1.8085  3.4073
  271MOL    H8049220   1.549   0.940   5.495 -0.0772  0.3233  1.5114
  271MOL    H8149221   1.623   0.815   5.389 -0.1177  1.6069 -0.3464
  271MOL    H8249222   1.576   0.777   5.552  2.1018 -0.3449  0.8019
  271MOL    C8349223   1.918   0.565   5.559 -0.1025  0.0793  0.0517
  271MOL    C8449224   1.845   0.433   5.568  0.4032  0.1892 -0.1308
  271MOL    C8549225   2.027   0.569   5.665  0.0579  0.4925  0.0600
  271MOL    O8649226   2.029   0.640   5.764 -0.0378  0.4937 -0.1567
  271MOL    O8749227   2.117   0.477   5.640  0.3953  0.5265  0.0357
  271MOL    H8849228   1.954   0.587   5.459  1.7362  0.6008  0.7994
  271MOL    H8949229   1.761   0.427   5.500  0.2255 -0.1654  0.1155
  271MOL    H9049230   1.905   0.345   5.542 -1.1124 -1.6280  2.3254
  271MOL    H9149231   1.794   0.417   5.663  3.8813 -1.1578  1.6294
  271MOL    C9249232   2.224   0.449   5.731 -0.3192 -0.0499 -0.3909
  271MOL    C9349233   2.327   0.368   5.659 -0.6727  0.3610  0.2851
  271MOL    C9449234   2.178   0.378   5.861 -0.9872 -0.2132  0.8128
  271MOL    O9549235   2.198   0.420   5.974  0.4042  0.2476  0.0297
  271MOL    O9649236   2.103   0.271   5.833  0.4174 -0.1075 -0.2955
  271MOL    H9749237   2.266   0.548   5.746 -0.2633 -0.0100 -0.7821
  271MOL    H9849238   2.293   0.269   5.628  0.4497  0.3207 -0.8856
  271MOL    H9949239   2.384   0.426   5.586  1.1968 -0.6809  0.8861
  271MOL   H10049240   2.416   0.356   5.722  0.3676 -2.7088 -1.6180
  271MOL   C10149241   2.037   0.202   5.936  0.2016  0.3982 -0.0322
  271MOL   C10249242   2.005   0.065   5.878 -0.0870  0.4478 -0.9924
  271MOL   C10349243   1.913   0.276   5.974 -0.1210 -0.2101  0.0960
  271MOL   O10449244   1.876   0.382   5.920  0.0755  0.2850  0.4241
  271MOL   O10549245   1.845   0.210   6.065 -0.3281 -0.0449 -0.7713
  271MOL   H10649246   2.102   0.187   6.021 -0.6158 -2.7174  0.1030
  271MOL   H10749247   1.950   8.144   5.942 -0.6156  3.2733  1.6534
  271MOL   H10849248   1.941   0.078   5.791 -2.0154  1.6306  0.5902
  271MOL   H10949249   2.094   0.013   5.841  0.0755 -0.0400  0.0537
  271MOL   C11049250   1.734   0.262   6.137 -0.4547 -0.1784 -0.3351
  271MOL   C11149251   1.778   0.356   6.251 -0.4050 -0.1974 -0.5106
  271MOL   C11249252   1.664   0.138   6.194 -0.0907  0.4435 -0.2437
  271MOL   O11349253   1.687   0.101   6.309 -0.7808 -0.2416 -1.0505
  271MOL   O11449254   1.587   0.078   6.101 -0.4929  0.6006 -0.1273
  271MOL   H11549255   1.669   0.317   6.068 -1.7701 -0.9195  0.3076
  271MOL   H11649256   1.701   0.372   6.326 -0.3109 -0.3633 -0.3773
  271MOL   H11749257   1.870   0.322   6.300 -1.3200 -1.2400  0.5004
  271MOL   H11849258   1.806   0.453   6.210  1.4924  0.3592  1.9543
  271MOL   C11949259   1.527   8.093   6.120 -0.5647  0.3903  0.9967
  271MOL   C12049260   1.620   7.984   6.067  0.6828 -0.4439  0.1414
  271MOL   C12149261   1.384   8.080   6.067  0.2850 -0.9947  0.0015
  271MOL   O12249262   1.350   7.990   5.998  0.4813 -0.1006  0.1522
  271MOL   O12349263   1.297   0.023   6.119  0.5582 -0.0812  0.2141
  271MOL   H12449264   1.516   8.089   6.229 -0.8325  1.2339  1.0105
  271MOL   H12549265   1.724   8.013   6.087  0.6597  0.5777 -1.1091
  271MOL   H12649266   1.600   7.887   6.110 -1.5533  0.8460  2.0893
  271MOL   H12749267   1.614   7.972   5.958 -0.5654 -2.7085  0.4331
  271MOL   C12849268   1.152   0.013   6.093 -0.1029  0.2686 -1.1797
  271MOL   C12949269   1.090   0.154   6.133 -0.2205  1.0843  0.6121
  271MOL   C13049270   1.080   8.042   6.158 -1.0110  0.2969 -0.0474
  271MOL   O13149271   0.969   8.010   6.124 -0.1792 -0.1604  0.2422
  271MOL   O13249272   1.148   7.975   6.259  0.0376  0.0362  0.0132
  271MOL   H13349273   1.130   0.002   5.986 -0.6094 -1.4496 -0.9127
  271MOL   H13449274   0.982   0.150   6.116  0.0992 -0.8880 -1.0747
  271MOL   H13549275   1.120   0.168   6.237  1.3420  0.4125  0.2612
  271MOL   H13649276   1.117   0.240   6.072 -0.3181  1.8024  1.5578
  271MOL   C13749277   1.091   7.858   6.321  0.2615 -0.6289  0.4603
  271MOL   C13849278   1.156   7.849   6.459  0.0710 -0.2477 -0.0786
  271MOL   C13949279   1.090   7.734   6.226 -0.2709 -0.1219 -1.0052
  271MOL   O14049280   1.029   7.628   6.256  0.1346 -0.0494 -0.4345
  271MOL   O14149281   1.154   7.757   6.111 -0.3489  0.1281  0.0352
  271MOL   H14249282   0.987   7.881   6.342 -0.1686  0.7208 -2.8175
  271MOL   H14349283   1.123   7.758   6.509  0.1070 -0.5862 -0.6557
  271MOL   H14449284   1.264   7.860   6.456  0.3284 -1.8930  1.8200
  271MOL   H14549285   1.125   7.923   6.532  2.2937  2.3873 -1.6982
  271MOL   C14649286   1.159   7.659   6.005  0.0800  0.4694 -0.4032
  271MOL   C14749287   1.238   7.724   5.888 -0.5085  0.1048  0.5905
  271MOL   C14849288   1.017   7.631   5.951  0.0823 -0.8689  0.7242
  271MOL   O14949289   0.964   7.517   5.954 -0.1182  0.3109  0.0011
  271MOL   O15049290   0.959   7.750   5.919  0.0261  0.1907  0.7145
  271MOL   H15149291   1.207   7.572   6.050 -1.0784 -0.3329 -0.7005
  271MOL   H15249292   1.184   7.808   5.844 -1.4031 -0.1518  1.1673
  271MOL   H15349293   1.334   7.761   5.924  0.9847  0.0538 -3.0898
  271MOL   H15449294   1.263   7.647   5.815  0.0192  0.6014  0.2491
  271MOL   C15549295   0.829   7.751   5.864  0.3342  0.5869 -1.3540
  271MOL   C15649296   0.791   7.898   5.832  0.2605  0.2116  1.2515
  271MOL   C15749297   0.729   7.698   5.959  0.1095 -0.4104 -0.2190
  271MOL   O15849298   0.634   7.625   5.915  0.0007  0.2335 -0.3566
  271MOL   O15949299   0.755   7.734   6.092  0.4138  0.6393  0.0295
  271MOL   H16049300   0.807   7.681   5.783 -1.2409 -0.5036 -0.0174
  271MOL   H16149301   0.856   7.947   5.759 -1.1088 -0.7086 -0.6274
  271MOL   H16249302   0.692   7.894   5.786  0.5617 -1.2044  0.7273
  271MOL   H16349303   0.798   7.962   5.920  2.8626 -1.7246  2.5229
  271MOL   C16449304   0.681   7.682   6.203  0.2578  0.3550 -0.5423
  271MOL   C16549305   0.729   7.746   6.336  0.0987  0.0967  0.2131
  271MOL   C16649306   0.658   7.530   6.215 -0.2046 -0.0117 -0.7173
  271MOL   O16749307   0.548   7.483   6.249 -0.2988  0.3321 -0.2242
  271MOL   O16849308   0.766   7.454   6.178 -0.3366 -0.0063 -0.1710
  271MOL   H16949309   0.586   7.732   6.182  0.7563  1.3619 -0.4249
  271MOL   H17049310   0.654   7.719   6.411 -1.8453  0.8874 -1.4105
  271MOL   H17149311   0.822   7.694   6.360  0.8981  0.9832 -0.8774
  271MOL   H17249312   0.750   7.853   6.334 -0.8728  0.2736 -0.8094
  271MOL   C17349313   0.761   7.311   6.183 -0.6358 -0.4504  0.1893
  271MOL   C17449314   0.894   7.257   6.225 -0.3123 -0.5894  0.1144
  271MOL   C17549315   0.713   7.262   6.049 -0.0642  0.6980 -0.1279
  271MOL   O17649316   0.621   7.189   6.029 -0.3771  0.5808  0.0745
  271MOL   O17749317   0.789   7.315   5.950  0.3297  0.3391  0.0778
  271MOL   H17849318   0.689   7.283   6.260 -0.6065 -1.7691 -0.2415
  271MOL   H17949319   0.918   7.271   6.330  3.0246  2.5966 -0.9389
  271MOL   H18049320   0.903   7.151   6.202 -1.1415 -0.9629  1.4714
  271MOL   H18149321   0.982   7.302   6.178 -0.7705  2.7496  2.2981
  271MOL   H18249322   0.855   7.375   5.981 -0.0172  0.7024  0.1175
  272MOL     C149323   0.910   1.607   5.308  0.4572  0.1584 -0.1844
  272MOL     C249324   0.874   1.494   5.212 -0.0897  0.0412  0.3179
  272MOL     C349325   0.915   1.569   5.457  0.5898 -0.7609  0.7565
  272MOL     O449326   0.976   1.475   5.503  0.6496 -0.3645 -0.0753
  272MOL     O549327   0.846   1.666   5.534 -0.4315  0.0398  0.2320
  272MOL     H649328   1.011   1.643   5.289  0.1374  1.3749  0.3481
  272MOL     H749329   0.941   1.409   5.222  3.2739  2.4526 -0.8000
  272MOL     H849330   0.768   1.469   5.217  0.7996 -3.3488  4.5706
  272MOL     H949331   0.896   1.524   5.110  0.8136  0.4715  0.6380
  272MOL    H1049332   0.839   1.688   5.287  0.9138  0.6897  0.2970
  272MOL    C1149333   0.869   1.680   5.675 -0.1790 -0.8868 -0.1998
  272MOL    C1249334   0.759   1.755   5.752 -0.4668  0.3770  0.0142
  272MOL    C1349335   1.002   1.761   5.696 -0.0676  0.3766  0.1367
  272MOL    O1449336   1.048   1.832   5.602  0.0707  0.2778  0.5899
  272MOL    O1549337   1.062   1.734   5.815 -0.2601  0.2185  0.3001
  272MOL    H1649338   0.879   1.581   5.719  0.3038 -0.7265  0.0517
  272MOL    H1749339   0.773   1.744   5.860  0.2293  2.4766  0.1471
  272MOL    H1849340   0.766   1.863   5.740 -3.2340  0.5382 -0.4954
  272MOL    H1949341   0.658   1.719   5.730 -0.0236 -0.6391 -0.3883
  272MOL    C2049342   1.173   1.817   5.850  0.3083 -0.3142 -0.0482
  272MOL    C2149343   1.243   1.743   5.969 -0.2291  0.0280  0.2626
  272MOL    C2249344   1.129   1.963   5.893 -0.4276  0.1758 -0.1146
  272MOL    O2349345   1.018   1.984   5.940  0.0461  0.2678  0.0643
  272MOL    O2449346   1.214   2.048   5.864  0.2683  0.2174  0.1819
  272MOL    H2549347   1.249   1.828   5.773  1.3582  2.2125  1.3151
  272MOL    H2649348   1.289   1.650   5.937 -1.0104 -0.3588  0.2405
  272MOL    H2749349   1.317   1.806   6.017  0.5945 -1.1003  0.4991
  272MOL    H2849350   1.178   1.731   6.056  0.2191  0.6791  0.6854
  272MOL    C2949351   1.198   2.184   5.905  0.3886 -0.1849  0.4057
  272MOL    C3049352   1.278   2.270   5.809 -0.1022  0.0993 -0.2841
  272MOL    C3149353   1.233   2.211   6.053 -0.0781  0.1173 -0.4191
  272MOL    O3249354   1.337   2.171   6.099  0.3895 -0.4836  0.1633
  272MOL    O3349355   1.142   2.290   6.119  0.0800 -0.4169  0.2578
  272MOL    H3449356   1.094   2.212   5.891  0.1840  0.5635  3.1603
  272MOL    H3549357   1.256   2.376   5.826 -0.1387  0.0321  0.1015
  272MOL    H3649358   1.385   2.254   5.821  0.1600  1.4384 -0.7825
  272MOL    H3749359   1.247   2.251   5.707  0.8782 -1.4560 -0.2963
  272MOL    C3849360   1.152   2.329   6.255  0.1702  0.0138 -1.0565
  272MOL    C3949361   1.019   2.356   6.318 -0.9343 -0.2686  0.0547
  272MOL    C4049362   1.252   2.447   6.273  0.2275 -0.6338 -0.1229
  272MOL    O4149363   1.324   2.491   6.182  0.1153 -0.0543  0.3707
  272MOL    O4249364   1.242   2.501   6.398  0.0062  0.7570 -0.2608
  272MOL    H4349365   1.209   2.253   6.309 -0.5479  0.8449  0.9271
  272MOL    H4449366   0.962   2.263   6.322  2.0452 -2.0565  2.7156
  272MOL    H4549367   1.029   2.391   6.420  2.0636 -1.4038  0.2199
  272MOL    H4649368   0.960   2.434   6.270 -1.2092 -0.8026 -0.4798
  272MOL    C4749369   1.305   2.627   6.432  0.2740  0.7055  0.4270
  272MOL    C4849370   1.297   2.625   6.587 -0.8758  0.2117  0.0555
  272MOL    C4949371   1.242   2.752   6.368  1.1369 -0.0755 -0.0732
  272MOL    O5049372   1.151   2.740   6.282  0.0893  0.0568  0.1241
  272MOL    O5149373   1.315   2.867   6.400 -0.6064  0.2979 -0.4477
  272MOL    H5249374   1.406   2.631   6.392  0.1882  0.4560  0.1858
  272MOL    H5349375   1.323   2.714   6.644  0.1674 -0.0456 -0.0159
  272MOL    H5449376   1.188   2.621   6.599 -0.8643  1.3689  0.6277
  272MOL    H5549377   1.342   2.535   6.629 -0.0552  0.8382  0.5355
  272MOL    C5649378   1.269   2.993   6.365 -0.5636  0.2559 -0.3321
  272MOL    C5749379   1.383   3.093   6.343 -0.2226  0.9399 -0.2336
  272MOL    C5849380   1.175   3.043   6.473 -0.3952  0.7988 -0.2797
  272MOL    O5949381   1.105   3.144   6.451 -0.3636  0.2300  0.1773
  272MOL    O6049382   1.176   2.973   6.598  0.3649 -0.4266 -0.5943
  272MOL    H6149383   1.221   2.987   6.267  0.1963 -2.0686 -0.5911
  272MOL    H6249384   1.461   3.096   6.419  1.1688 -0.3546 -1.5881
  272MOL    H6349385   1.440   3.054   6.259  2.4470  0.9113  1.5304
  272MOL    H6449386   1.364   3.197   6.316  2.9546  1.5089 -0.4794
  272MOL    C6549387   1.090   3.000   6.710  0.9688 -0.1401 -0.2795
  272MOL    C6649388   1.137   2.922   6.827 -0.4263 -0.0154 -0.6054
  272MOL    C6749389   0.946   2.977   6.660 -1.0511 -0.3764 -0.9563
  272MOL    O6849390   0.857   3.060   6.675 -0.3773 -0.5860 -0.0566
  272MOL    O6949391   0.917   2.846   6.624  0.2922  0.4642 -0.1037
  272MOL    H7049392   1.095   3.107   6.730  0.9028 -0.4615  1.4506
  272MOL    H7149393   1.245   2.925   6.815 -0.6258  2.6093 -2.1732
  272MOL    H7249394   1.120   2.977   6.920 -0.2771 -0.5455 -0.2646
  272MOL    H7349395   1.094   2.822   6.836  0.7604 -0.4701  0.0912
  272MOL    C7449396   0.794   2.813   6.566 -0.4514 -0.4736 -0.0208
  272MOL    C7549397   0.797   2.663   6.560  0.4830 -0.6887 -0.0900
  272MOL    C7649398   0.776   2.881   6.425  0.2407 -0.0344 -0.0545
  272MOL    O7749399   0.869   2.934   6.365 -0.2980 -0.2779 -0.2286
  272MOL    O7849400   0.647   2.877   6.392 -0.0575 -0.1858  0.0977
  272MOL    H7949401   0.714   2.855   6.627 -1.0057 -1.0980 -0.3086
  272MOL    H8049402   0.892   2.639   6.512  1.2761 -1.3457  1.7332
  272MOL    H8149403   0.798   2.630   6.664 -0.7179  1.5067  0.6649
  272MOL    H8249404   0.719   2.614   6.502  0.0614 -0.6938  0.4775
  272MOL    C8349405   0.607   2.938   6.263 -0.1572  0.1841  0.4900
  272MOL    C8449406   0.454   2.983   6.267  0.4468  0.6633  0.5067
  272MOL    C8549407   0.635   2.842   6.144 -0.1555  1.2517  1.1747
  272MOL    O8649408   0.660   2.720   6.165  0.4185  0.1865 -0.1385
  272MOL    O8749409   0.610   2.903   6.024  0.0527  0.6507  0.0233
  272MOL    H8849410   0.664   3.030   6.245 -2.8877  1.3907 -2.3988
  272MOL    H8949411   0.409   3.007   6.171  1.7372  0.7909 -0.0838
  272MOL    H9049412   0.404   2.894   6.306 -1.2676  0.4770 -2.0317
  272MOL    H9149413   0.442   3.065   6.338 -0.3206  2.2002 -1.3741
  272MOL    C9249414   0.591   2.815   5.911 -0.2530 -0.3866 -0.2418
  272MOL    C9349415   0.650   2.890   5.794  0.5948 -0.2522  0.1380
  272MOL    C9449416   0.439   2.793   5.894 -0.1462 -0.0588  0.2886
  272MOL    O9549417   0.382   2.818   5.787 -0.7685  0.2726  0.5621
  272MOL    O9649418   0.378   2.742   6.009 -0.0525 -0.1004  0.2302
  272MOL    H9749419   0.642   2.720   5.919 -1.6004 -1.1094 -0.1161
  272MOL    H9849420   0.649   2.826   5.705  2.7262  1.7735 -1.4201
  272MOL    H9949421   0.610   2.991   5.788 -1.4481 -0.8943  2.1101
  272MOL   H10049422   0.759   2.892   5.792  0.6084 -0.1534 -4.0629
  272MOL   C10149423   0.236   2.729   6.011 -0.0239 -0.4841 -0.6940
  272MOL   C10249424   0.177   2.850   6.085  1.1121  0.8722 -0.1517
  272MOL   C10349425   0.208   2.593   6.078  0.4943 -0.4900 -0.1571
  272MOL   O10449426   0.175   2.588   6.195  0.4334  0.1138 -0.0056
  272MOL   O10549427   0.232   2.481   6.001  0.0199  0.0900 -0.2510
  272MOL   H10649428   0.188   2.724   5.913 -0.3795  0.0418 -0.5522
  272MOL   H10749429   0.220   2.944   6.050 -0.9610  1.6074 -0.8054
  272MOL   H10849430   0.068   2.853   6.079  0.9892  0.7309  1.8157
  272MOL   H10949431   0.201   2.838   6.191  1.3862 -2.0426 -0.5026
  272MOL   C11049432   0.207   2.346   6.042  0.4669 -0.9922 -0.3476
  272MOL   C11149433   0.266   2.250   5.939 -0.1573  0.2356  0.5082
  272MOL   C11249434   0.057   2.302   6.060  0.0760  0.1189 -0.4332
  272MOL   O11349435   8.117   2.376   6.019 -0.3608 -0.1269 -0.2737
  272MOL   O11449436   0.039   2.179   6.119  0.0738  0.0881  0.1603
  272MOL   H11549437   0.246   2.331   6.142  1.5125  1.2033 -0.4057
  272MOL   H11649438   0.210   2.258   5.846  1.6205  1.5340 -0.4929
  272MOL   H11749439   0.367   2.276   5.908 -0.1779 -0.3006 -0.0261
  272MOL   H11849440   0.261   2.149   5.981  0.4813  0.1927  0.4913
  272MOL   C11949441   8.048   2.132   6.134 -0.1585 -0.3224  0.3236
  272MOL   C12049442   8.057   2.037   6.262 -0.2473 -0.4295 -0.0762
  272MOL   C12149443   8.008   2.053   6.013  0.3642 -0.5714  0.0153
  272MOL   O12249444   7.891   2.053   5.973  0.2122  0.0772  0.0123
  272MOL   O12349445   8.110   2.008   5.938  0.2060  0.5457 -0.0683
  272MOL   H12449446   7.974   2.210   6.150 -0.1168  0.3422 -2.5435
  272MOL   H12549447   8.130   2.052   6.342  0.2585 -4.0411  0.2329
  272MOL   H12649448   7.958   2.031   6.306 -0.5622 -1.8465 -0.9591
  272MOL   H12749449   8.064   1.936   6.221 -3.3250 -0.6765 -0.1060
  272MOL   C12849450   8.071   1.928   5.824 -0.1213  0.0583  0.3813
  272MOL   C12949451   8.004   1.790   5.865 -0.2254 -0.9335 -0.0243
  272MOL   C13049452   0.038   1.906   5.721  0.3032 -0.2524 -0.3865
  272MOL   O13149453   0.155   1.927   5.743  0.4994 -0.3183 -0.2948
  272MOL   O13249454   8.134   1.867   5.608  0.4817  1.1354 -0.2868
  272MOL   H13349455   8.007   1.992   5.763 -0.8014 -0.4410  0.5691
  272MOL   H13449456   7.923   1.812   5.935  1.2009 -0.2956  1.4696
  272MOL   H13549457   7.976   1.727   5.781 -0.3856  0.5351 -1.0852
  272MOL   H13649458   8.072   1.725   5.921  0.6030  0.1055  0.1833
  272MOL   C13749459   0.063   1.854   5.490  0.0166  0.2814  0.4968
  272MOL   C13849460   8.126   1.918   5.375 -0.7829  0.0915 -0.4018
  272MOL   C13949461   0.102   1.705   5.457 -0.4152  0.6003  0.4537
  272MOL   O14049462   0.050   1.611   5.516 -0.3872 -0.5044  0.2748
  272MOL   O14149463   0.187   1.700   5.344 -0.1701  0.2240 -0.5581
  272MOL   H14249464   0.163   1.898   5.492 -0.0418  0.7059 -2.6142
  272MOL   H14349465   0.049   1.933   5.293  1.1867  0.4055  1.2872
  272MOL   H14449466   8.049   1.848   5.346 -1.2692  1.0543 -1.4727
  272MOL   H14549467   8.078   2.014   5.396  0.7960  0.8719 -0.2738
  272MOL   C14649468   0.205   1.583   5.268  1.0236  0.2639  0.6515
  272MOL   C14749469   0.330   1.598   5.178 -0.5100 -0.3946 -0.0151
  272MOL   C14849470   0.077   1.569   5.186 -0.4065  0.6444 -0.6086
  272MOL   O14949471   0.012   1.463   5.191 -0.6409  0.7122  0.3343
  272MOL   O15049472   0.053   1.677   5.109 -0.0432 -0.3472 -0.7224
  272MOL   H15149473   0.220   1.499   5.336  0.6553 -0.5648 -0.2800
  272MOL   H15249474   0.319   1.676   5.102  3.6882  0.7007  0.3668
  272MOL   H15349475   0.418   1.624   5.237 -0.6792 -3.0006  1.4383
  272MOL   H15449476   0.354   1.502   5.132 -2.2816 -0.1755 -1.4784
  272MOL   C15549477   8.113   1.685   4.993 -0.1177 -0.0989 -0.4925
  272MOL   C15649478   0.032   1.780   4.890  0.0281 -0.4445  0.1453
  272MOL   C15749479   7.970   1.721   5.034  1.0661  0.3940 -0.0294
  272MOL   O15849480   7.939   1.734   5.150 -0.1517  0.7186 -0.0631
  272MOL   O15949481   7.892   1.746   4.930  0.4499 -0.0474 -0.2352
  272MOL   H16049482   8.109   1.587   4.946 -0.9000 -0.1011 -0.4214
  272MOL   H16149483   0.070   1.871   4.936 -0.5346  0.7335 -1.6457
  272MOL   H16249484   0.123   1.727   4.861  0.3378 -0.6786  1.4986
  272MOL   H16349485   8.124   1.810   4.801  0.5837  0.4250  0.0856
  272MOL   C16449486   7.773   1.826   4.944 -0.1406  0.4036 -0.2255
  272MOL   C16549487   7.675   1.756   4.857  0.2635  0.4726  0.3419
  272MOL   C16649488   7.798   1.977   4.917  0.9961 -0.4122  0.0140
  272MOL   O16749489   7.734   2.040   4.829  0.1309  0.0282 -0.0372
  272MOL   O16849490   7.891   2.020   5.001  0.2967 -0.6152  0.2111
  272MOL   H16949491   7.726   1.812   5.041  1.3015 -2.1001  0.1556
  272MOL   H17049492   7.672   1.648   4.876  0.1915  0.3232 -0.5116
  272MOL   H17149493   7.574   1.794   4.869 -0.1407 -0.6772  0.6406
  272MOL   H17249494   7.711   1.765   4.755  1.6416 -1.5750  0.6027
  272MOL   C17349495   7.915   2.162   4.997 -0.2126  0.0786 -0.3222
  272MOL   C17449496   8.047   2.175   4.921  1.0486 -0.1474 -0.1801
  272MOL   C17549497   7.934   2.217   5.141  0.3206 -0.3856 -0.5509
  272MOL   O17649498   8.024   2.284   5.191  0.1314 -0.3768 -0.4434
  272MOL   O17749499   7.824   2.191   5.218  0.0094 -0.5147 -0.0518
  272MOL   H17849500   7.839   2.217   4.941 -0.2510  1.1372  0.7676
  272MOL   H17949501   8.041   2.132   4.821  1.4030 -2.0549  0.6062
  272MOL   H18049502   8.083   2.277   4.907  0.3380  0.5278  2.5971
  272MOL   H18149503   8.124   2.123   4.977 -0.9973 -1.6592  1.2934
  272MOL   H18249504   7.827   2.229   5.304  1.4566  0.1040 -0.3604
  273MOL     C149505   7.345   6.244   1.691  0.3397  0.0043 -0.2885
  273MOL     C249506   7.362   6.153   1.814 -0.0589 -0.1185 -1.4664
  273MOL     C349507   7.313   6.161   1.569 -0.5072  0.2229 -0.5420
  273MOL     O449508   7.197   6.111   1.550  0.0645 -0.2281  0.0568
  273MOL     O549509   7.421   6.143   1.490 -0.4027  0.6536  0.1804
  273MOL     H649510   7.257   6.301   1.718 -0.7060 -0.9360 -1.6775
  273MOL     H749511   7.284   6.159   1.889 -0.7589  1.6575 -2.2981
  273MOL     H849512   7.364   6.048   1.786  0.0500 -0.4744 -0.1434
  273MOL     H949513   7.452   6.177   1.870 -2.0970  0.9658  1.4934
  273MOL    H1049514   7.423   6.316   1.666 -1.1234  1.6474 -0.1600
  273MOL    C1149515   7.413   6.058   1.367 -0.4565 -0.0508 -0.4893
  273MOL    C1249516   7.558   6.014   1.344  0.1042 -0.3829 -0.4369
  273MOL    C1349517   7.346   6.134   1.247  0.5869  0.3220 -0.2313
  273MOL    O1449518   7.326   6.257   1.253 -0.4348  0.0106  0.1577
  273MOL    O1549519   7.341   6.052   1.134 -0.1886  0.2965  0.3249
  273MOL    H1649520   7.351   5.973   1.397 -0.5825  0.5716  1.0680
  273MOL    H1749521   7.589   5.952   1.428 -2.1873  0.1044  0.7981
  273MOL    H1849522   7.579   5.959   1.253 -0.4497  0.3866 -1.0414
  273MOL    H1949523   7.629   6.097   1.342  1.5360 -1.5701  0.4678
  273MOL    C2049524   7.271   6.090   1.013 -0.2552  0.6856 -0.9385
  273MOL    C2149525   7.147   6.011   0.993 -0.3572  0.0239 -0.6082
  273MOL    C2249526   7.372   6.066   0.902 -0.4370 -0.5289  0.1339
  273MOL    O2349527   7.354   5.978   0.818 -0.7304 -0.0567  0.7709
  273MOL    O2449528   7.477   6.149   0.915 -0.0032  0.1356 -0.4613
  273MOL    H2549529   7.243   6.196   1.017  0.0581  0.7278  0.3823
  273MOL    H2649530   7.103   6.042   0.898  0.4269  4.0866  0.2536
  273MOL    H2749531   7.158   5.903   0.984  2.7047  0.2054  0.4053
  273MOL    H2849532   7.073   6.028   1.071 -0.1384  1.5221 -0.7038
  273MOL    C2949533   7.558   6.176   0.799  0.4521  0.1910 -0.1257
  273MOL    C3049534   7.699   6.171   0.855  0.2409  0.1638  0.6845
  273MOL    C3149535   7.514   6.303   0.728 -0.7392  0.1868 -0.2293
  273MOL    O3249536   7.451   6.307   0.624 -0.3235 -0.1977 -0.2473
  273MOL    O3349537   7.557   6.411   0.787  0.4148  0.6217  0.4974
  273MOL    H3449538   7.552   6.101   0.720  0.9470 -0.2608  0.2601
  273MOL    H3549539   7.774   6.149   0.778  1.5640  0.4381  1.8848
  273MOL    H3649540   7.728   6.269   0.892 -0.5455 -0.1045  2.0224
  273MOL    H3749541   7.709   6.091   0.929  1.2750 -0.3513  0.0114
  273MOL    C3849542   7.512   6.540   0.743 -0.5552 -0.1080  0.4452
  273MOL    C3949543   7.642   6.624   0.723 -0.5654  0.2735  1.3927
  273MOL    C4049544   7.412   6.613   0.839 -0.4686  0.2958  0.1749
  273MOL    O4149545   7.316   6.688   0.812  0.0889 -0.1032 -0.4360
  273MOL    O4249546   7.454   6.584   0.967  0.0111  0.1667 -0.0416
  273MOL    H4349547   7.454   6.546   0.651 -0.7949  1.0190  0.6695
  273MOL    H4449548   7.671   6.632   0.618  1.2520  1.8127  1.9798
  273MOL    H4549549   7.624   6.731   0.738  0.0773  0.3334  1.7593
  273MOL    H4649550   7.731   6.594   0.778 -1.5872  1.3433  3.7227
  273MOL    C4749551   7.392   6.625   1.086 -0.2313  0.3109  0.5072
  273MOL    C4849552   7.260   6.553   1.116  0.4473  0.3366 -0.2052
  273MOL    C4949553   7.386   6.779   1.091 -0.6224 -0.2407 -0.3860
  273MOL    O5049554   7.281   6.840   1.090  0.1710 -0.2942 -0.3415
  273MOL    O5149555   7.516   6.828   1.096  0.0270  0.0186 -0.1921
  273MOL    H5249556   7.458   6.586   1.163  0.0176 -1.2006 -0.4591
  273MOL    H5349557   7.214   6.564   1.214 -0.5994 -0.0278 -0.6512
  273MOL    H5449558   7.193   6.589   1.038 -2.4420 -0.6824  1.7217
  273MOL    H5549559   7.269   6.444   1.109  0.1380  0.0974  2.4353
  273MOL    C5649560   7.541   6.967   1.118  0.0292  0.8708  0.1367
  273MOL    C5749561   7.520   6.989   1.262  0.5678 -0.4032 -0.5324
  273MOL    C5849562   7.472   7.067   1.018 -0.0625 -0.0956 -0.6444
  273MOL    O5949563   7.426   7.177   1.056 -0.2563  0.1123  0.1985
  273MOL    O6049564   7.490   7.033   0.892  0.1509  0.3840  0.2798
  273MOL    H6149565   7.649   6.976   1.106  0.2975 -0.8965  1.2226
  273MOL    H6249566   7.432   6.943   1.308  1.3677 -1.2009  0.2199
  273MOL    H6349567   7.609   6.973   1.322  0.7365  0.5761 -0.5159
  273MOL    H6449568   7.507   7.094   1.284 -0.4539 -0.8370  1.0237
  273MOL    C6549569   7.463   7.119   0.784  0.3006 -0.2631  0.1872
  273MOL    C6649570   7.472   7.038   0.654 -0.0980 -0.0289 -0.7396
  273MOL    C6749571   7.573   7.226   0.775 -0.3265  0.3987  0.1487
  273MOL    O6849572   7.689   7.196   0.815  0.0487 -0.1222 -0.3150
  273MOL    O6949573   7.533   7.341   0.716  0.5668  0.1865  0.2097
  273MOL    H7049574   7.358   7.149   0.777  0.5235  0.4951 -0.0404
  273MOL    H7149575   7.569   6.997   0.627  0.9746  0.2866  2.4068
  273MOL    H7249576   7.413   6.946   0.663  2.0426 -1.6312 -2.5504
  273MOL    H7349577   7.432   7.100   0.573 -1.1910  1.1630  0.6897
  273MOL    C7449578   7.618   7.454   0.693 -0.2903 -0.7050 -0.2025
  273MOL    C7549579   7.705   7.419   0.570 -0.0099  0.1335 -0.0167
  273MOL    C7649580   7.689   7.518   0.812 -0.4346 -0.3780 -0.0363
  273MOL    O7749581   7.803   7.556   0.806  0.0481  0.5934  0.4819
  273MOL    O7849582   7.603   7.537   0.917  0.1846  0.1463  0.6433
  273MOL    H7949583   7.546   7.531   0.666 -0.1298 -0.8622 -1.0900
  273MOL    H8049584   7.784   7.491   0.545  1.2630 -1.2289  0.0173
  273MOL    H8149585   7.763   7.328   0.586 -0.9412 -0.3644  0.5586
  273MOL    H8249586   7.646   7.413   0.479  0.7107 -0.3245 -0.4656
  273MOL    C8349587   7.639   7.591   1.046 -0.1101  0.5441 -1.1387
  273MOL    C8449588   7.633   7.743   1.044  0.3012 -0.0383  0.0368
  273MOL    C8549589   7.774   7.536   1.109 -0.0084 -0.4977 -0.4105
  273MOL    O8649590   7.862   7.612   1.146 -0.0283 -0.0942  0.1396
  273MOL    O8749591   7.772   7.402   1.129 -0.1215  0.6518 -0.4673
  273MOL    H8849592   7.558   7.562   1.113  1.6509  0.0245  0.7792
  273MOL    H8949593   7.647   7.785   1.143 -0.3648 -0.4558  0.3068
  273MOL    H9049594   7.699   7.790   0.970  0.8510 -0.8990 -0.0304
  273MOL    H9149595   7.536   7.789   1.031  0.2332 -0.4790 -1.1156
  273MOL    C9249596   7.882   7.334   1.197 -0.2056  0.4297  1.0130
  273MOL    C9349597   7.873   7.185   1.152 -0.5666 -0.9689 -0.1302
  273MOL    C9449598   7.876   7.353   1.352 -0.6598  0.6446  0.5072
  273MOL    O9549599   7.791   7.298   1.418 -0.1804  0.6969 -0.6387
  273MOL    O9649600   7.964   7.432   1.397 -0.1757 -0.0383  0.4215
  273MOL    H9749601   7.970   7.381   1.154 -1.4306  0.6643 -1.2888
  273MOL    H9849602   7.768   7.155   1.156 -1.0412  0.6844  0.1108
  273MOL    H9949603   7.908   7.178   1.049  2.0132  4.0257  0.2779
  273MOL   H10049604   7.920   7.111   1.217  0.2661 -0.7501 -0.4795
  273MOL   C10149605   7.960   7.476   1.537  0.0231  0.6466 -0.4018
  273MOL   C10249606   8.075   7.582   1.541 -0.0841 -0.1935 -0.0823
  273MOL   C10349607   8.005   7.365   1.635 -0.3396  0.0117 -0.6605
  273MOL   O10449608   8.085   7.276   1.604  0.3543 -0.6031 -0.6026
  273MOL   O10549609   7.960   7.390   1.760 -0.3587  0.1635 -0.2799
  273MOL   H10649610   7.860   7.508   1.568  1.3052  2.7946  1.7045
  273MOL   H10749611   8.053   7.656   1.464 -1.9757  0.4184  0.9878
  273MOL   H10849612   8.076   7.641   1.634 -0.2538  0.4477 -0.4834
  273MOL   H10949613   0.031   7.553   1.528 -0.1185 -0.9277  1.1705
  273MOL   C11049614   8.020   7.327   1.875 -0.1051  0.2494  0.8953
  273MOL   C11149615   7.896   7.303   1.969  0.3036  0.1641  0.1669
  273MOL   C11249616   8.130   7.432   1.922  0.9073 -0.6458 -0.6334
  273MOL   O11349617   8.118   7.499   2.025  0.3961  0.0184  0.5140
  273MOL   O11449618   0.091   7.439   1.831  0.4517  0.8228  0.8036
  273MOL   H11549619   8.083   7.240   1.857 -1.9145 -0.5496 -2.0274
  273MOL   H11649620   7.869   7.401   2.011 -0.2894  0.2631 -0.4363
  273MOL   H11749621   7.815   7.236   1.939  1.3268 -0.6685 -0.7547
  273MOL   H11849622   7.948   7.260   2.054 -0.0755  0.4792  0.5636
  273MOL   C11949623   0.205   7.522   1.847  0.1219 -0.0614 -0.1327
  273MOL   C12049624   0.290   7.492   1.722 -0.6657  0.2392  0.0905
  273MOL   C12149625   0.284   7.491   1.973 -0.3097 -0.3930 -0.1475
  273MOL   O12249626   0.291   7.385   2.031  0.5113 -0.0891  0.2142
  273MOL   O12349627   0.365   7.597   1.998 -0.0927 -0.1558  0.1786
  273MOL   H12449628   0.179   7.628   1.843  2.1813  0.5187  1.1127
  273MOL   H12549629   0.240   7.495   1.625 -0.8808  0.3152  0.2034
  273MOL   H12649630   0.368   7.565   1.702 -0.0824 -0.6311 -0.8960
  273MOL   H12749631   0.348   7.399   1.725  1.8715  1.8007  1.0712
  273MOL   C12849632   0.448   7.599   2.119 -0.4168 -0.6667  0.2927
  273MOL   C12949633   0.548   7.485   2.110 -0.6554  0.6022  0.0937
  273MOL   C13049634   0.361   7.590   2.241  0.2161 -0.4984 -0.4186
  273MOL   O13149635   0.367   7.511   2.334 -0.5099 -0.0968 -0.0639
  273MOL   O13249636   0.263   7.684   2.234 -0.0992 -0.1290 -0.6034
  273MOL   H13349637   0.505   7.692   2.120 -0.7375 -0.4708  1.8598
  273MOL   H13449638   0.584   7.464   2.009  0.0004 -0.6242  0.5751
  273MOL   H13549639   0.630   7.500   2.179 -1.7919 -0.2329  1.6749
  273MOL   H13649640   0.498   7.396   2.148  0.1341  1.1129  2.3568
  273MOL   C13749641   0.189   7.727   2.350  0.2557  0.1675 -0.0994
  273MOL   C13849642   0.073   7.819   2.307  0.1444  0.2737 -0.9888
  273MOL   C13949643   0.268   7.805   2.457 -0.3429  0.0135  0.4207
  273MOL   O14049644   0.233   7.810   2.578  0.6379 -0.3412  0.5218
  273MOL   O14149645   0.386   7.860   2.405 -0.0717  1.1671  0.1839
  273MOL   H14249646   0.153   7.633   2.391 -1.9621  0.4328 -1.3670
  273MOL   H14349647   0.105   7.912   2.259 -1.2596  1.3691  0.1252
  273MOL   H14449648   0.009   7.753   2.249 -0.4467  1.0121 -1.1862
  273MOL   H14549649   0.015   7.852   2.394  0.9841 -0.0807 -0.2822
  273MOL   C14649650   0.496   7.893   2.488 -0.4473 -0.9598  0.0173
  273MOL   C14749651   0.569   8.008   2.413  0.2881  0.2793  0.1960
  273MOL   C14849652   0.585   7.768   2.513  0.0914 -0.9968 -0.0446
  273MOL   O14949653   0.547   7.654   2.491  0.3730  0.1472  0.5203
  273MOL   O15049654   0.697   7.801   2.572  0.3926  0.0671  0.1242
  273MOL   H15149655   0.451   7.930   2.579 -0.6443 -2.3684  0.5031
  273MOL   H15249656   0.624   7.987   2.322  0.1893  0.0078  0.1985
  273MOL   H15349657   0.509   8.098   2.399  1.1827  0.8694  0.1305
  273MOL   H15449658   0.652   8.048   2.472  0.1845  0.2979  0.3296
  273MOL   C15549659   0.784   7.700   2.633 -0.3602 -0.2065 -0.3612
  273MOL   C15649660   0.815   7.746   2.765 -0.4574 -0.6696  0.2969
  273MOL   C15749661   0.897   7.671   2.536 -0.4099  0.5306  0.5388
  273MOL   O15849662   1.012   7.691   2.575 -0.3811 -0.3128  0.4676
  273MOL   O15949663   0.867   7.626   2.412  0.3904 -0.2359  0.2472
  273MOL   H16049664   0.730   7.607   2.651 -1.2561  0.7217  2.0465
  273MOL   H16149665   0.738   7.723   2.839 -0.9942  0.0249 -0.0328
  273MOL   H16249666   0.909   7.701   2.796  0.1129 -0.7382 -1.4900
  273MOL   H16349667   0.836   7.852   2.751 -1.1471 -0.5534  0.1200
  273MOL   C16449668   0.972   7.620   2.317  0.8535 -0.3704 -0.8172
  273MOL   C16549669   0.913   7.607   2.173 -0.8351 -0.2008 -1.0148
  273MOL   C16649670   1.071   7.498   2.346  0.0674 -0.2921  0.0495
  273MOL   O16749671   1.060   7.424   2.444  0.1605  0.0885 -0.2540
  273MOL   O16849672   1.164   7.475   2.249 -0.2636  1.0009  0.2981
  273MOL   H16949673   1.035   7.709   2.313 -2.9247  2.6394  1.8771
  273MOL   H17049674   0.845   7.684   2.137  0.1989  0.9624 -0.5063
  273MOL   H17149675   0.998   7.617   2.105  0.0833  1.3033  0.3030
  273MOL   H17249676   0.871   7.510   2.147  0.1708 -1.2883  1.2676
  273MOL   C17349677   1.254   7.369   2.246 -0.1516  0.2149 -0.0485
  273MOL   C17449678   1.385   7.420   2.180  0.0384  1.0238  0.5592
  273MOL   C17549679   1.198   7.242   2.173 -0.2810 -0.3549 -0.1029
  273MOL   O17649680   1.266   7.197   2.088 -0.4887 -0.6464  0.0052
  273MOL   O17749681   1.084   7.188   2.221  0.1095  0.1870 -0.1721
  273MOL   H17849682   1.279   7.345   2.349  0.6616  0.0612 -0.2718
  273MOL   H17949683   1.377   7.460   2.079  2.1953 -3.4246 -1.5149
  273MOL   H18049684   1.431   7.506   2.230  0.5604  0.5413  0.9116
  273MOL   H18149685   1.460   7.341   2.173 -0.8337  0.4156 -2.3212
  273MOL   H18249686   1.054   7.107   2.181  1.4866  0.4331 -1.7867
  274MOL     C149687   5.157   1.959   0.566 -0.1835  0.0735  0.2166
  274MOL     C249688   5.082   1.914   0.441  0.3049 -0.0705  0.0850
  274MOL     C349689   5.256   1.857   0.608  0.2660 -0.1336  0.7386
  274MOL     O449690   5.221   1.758   0.670  0.0231  0.1665 -0.2016
  274MOL     O549691   5.380   1.876   0.556  0.1084  0.2501 -0.6965
  274MOL     H649692   5.208   2.055   0.565 -0.6341  0.3138  0.2368
  274MOL     H749693   5.005   1.842   0.466  1.4504 -2.3796 -2.8196
  274MOL     H849694   5.013   1.995   0.416 -0.5462 -0.0188  2.5079
  274MOL     H949695   5.139   1.878   0.355 -1.4215 -2.3651 -0.1207
  274MOL    H1049696   5.087   1.967   0.649 -0.8978 -2.6686 -0.0796
  274MOL    C1149697   5.479   1.777   0.575 -0.0680  0.5144 -0.5471
  274MOL    C1249698   5.624   1.829   0.548 -0.4482  0.0518 -0.1723
  274MOL    C1349699   5.454   1.651   0.486 -0.4691  0.3472  0.6297
  274MOL    O1449700   5.500   1.535   0.518  0.1217 -0.1625 -0.8216
  274MOL    O1549701   5.393   1.681   0.363 -0.4727 -0.0897 -0.7211
  274MOL    H1649702   5.484   1.743   0.679  1.2562 -3.2157 -1.7353
  274MOL    H1749703   5.642   1.907   0.622  3.4552 -0.0542 -0.9012
  274MOL    H1849704   5.693   1.746   0.562  0.9936  1.4891  1.6042
  274MOL    H1949705   5.637   1.869   0.447 -0.0830  0.0324 -0.1331
  274MOL    C2049706   5.352   1.591   0.256 -0.3730 -0.5618  0.2253
  274MOL    C2149707   5.282   1.675   0.146 -0.5946 -0.0472  0.0142
  274MOL    C2249708   5.258   1.486   0.315 -0.6210  0.1696  0.0930
  274MOL    O2349709   5.276   1.375   0.275  0.7162 -0.3916 -0.4666
  274MOL    O2449710   5.163   1.525   0.407 -0.2488  0.5478  0.1540
  274MOL    H2549711   5.444   1.541   0.224  1.2132  1.8415  0.9465
  274MOL    H2649712   5.192   1.726   0.177 -1.7678 -1.2344 -1.3384
  274MOL    H2749713   5.340   1.756   0.102  0.6393 -0.9393 -0.0345
  274MOL    H2849714   5.250   1.611   0.063  1.4938  1.2885 -1.8789
  274MOL    C2949715   5.068   1.434   0.467 -0.1222 -0.0096  0.2728
  274MOL    C3049716   4.985   1.523   0.560  0.0599 -0.1256 -0.2121
  274MOL    C3149717   5.128   1.319   0.540  0.0303  0.5717  0.6314
  274MOL    O3249718   5.141   1.325   0.661 -0.4201  0.3518 -0.2282
  274MOL    O3349719   5.163   1.205   0.465 -0.3854 -0.0185 -0.1431
  274MOL    H3449720   5.010   1.390   0.386  0.0175  0.0148  0.1591
  274MOL    H3549721   4.914   1.471   0.625 -0.1055  0.2955 -0.0507
  274MOL    H3649722   5.049   1.596   0.610  1.9305 -0.5830 -1.9009
  274MOL    H3749723   4.932   1.588   0.490  0.0444 -0.6717 -0.7036
  274MOL    C3849724   5.240   1.099   0.518  0.3416  0.5509  0.5070
  274MOL    C3949725   5.387   1.131   0.529 -0.4942 -0.9393  0.0009
  274MOL    C4049726   5.207   0.973   0.436 -0.5279  0.9144  0.0698
  274MOL    O4149727   5.150   0.879   0.484 -0.4827 -0.1358  0.4745
  274MOL    O4249728   5.248   0.967   0.311  0.4487 -0.1883  0.0014
  274MOL    H4349729   5.192   1.082   0.614  0.0315  3.6929  0.9495
  274MOL    H4449730   5.422   1.157   0.429  0.7324  0.4295  0.7751
  274MOL    H4549731   5.402   1.209   0.604 -1.4330  0.1908 -0.9688
  274MOL    H4649732   5.441   1.041   0.559  3.0695  1.1827  0.2033
  274MOL    C4749733   5.192   0.876   0.219 -0.0689  0.1748  0.4162
  274MOL    C4849734   5.307   0.852   0.130  0.8211 -0.4845  0.2600
  274MOL    C4949735   5.060   0.939   0.154  0.0679  0.6886 -0.3722
  274MOL    O5049736   4.965   0.870   0.114  0.1997  0.3234  0.0576
  274MOL    O5149737   5.074   1.068   0.151  0.5703 -0.6599 -0.5906
  274MOL    H5249738   5.169   0.779   0.263 -0.2644 -0.2028 -0.5001
  274MOL    H5349739   5.332   0.945   0.079 -2.0156 -0.7610 -1.7794
  274MOL    H5449740   5.388   0.806   0.186  0.6004 -1.3772 -0.1404
  274MOL    H5549741   5.275   0.773   0.061  1.9303  0.6250 -1.5741
  274MOL    C5649742   4.977   1.144   0.082 -0.4752  0.1984  0.4568
  274MOL    C5749743   5.033   1.288   0.081  0.9273 -0.3054  0.5008
  274MOL    C5849744   4.839   1.134   0.152 -1.0283 -0.0202 -0.0923
  274MOL    O5949745   4.738   1.108   0.093  0.3149  0.2449 -0.0485
  274MOL    O6049746   4.844   1.162   0.278  0.0598 -0.2813  0.2642
  274MOL    H6149747   4.961   1.119   8.125 -2.2912 -0.8567  0.9667
  274MOL    H6249748   4.973   1.362   0.027  0.8247  0.2727  1.3898
  274MOL    H6349749   5.042   1.324   0.184 -1.2976 -1.4009  1.0948
  274MOL    H6449750   5.127   1.293   0.026 -0.9144  2.2149 -2.5954
  274MOL    C6549751   4.729   1.142   0.361 -0.0977 -0.0220 -1.1184
  274MOL    C6649752   4.747   1.238   0.478 -0.6850  0.1474  0.3183
  274MOL    C6749753   4.711   0.992   0.416 -0.3666  0.2629 -1.1011
  274MOL    O6849754   4.610   0.949   0.461  0.1312  0.0730 -0.2478
  274MOL    O6949755   4.829   0.920   0.412 -0.5381 -0.1335  0.1420
  274MOL    H7049756   4.635   1.178   0.318  0.3899  0.5382 -1.7135
  274MOL    H7149757   4.814   1.190   0.550  1.2176  0.3323 -1.3014
  274MOL    H7249758   4.779   1.340   0.456  0.4543 -0.1410  0.5986
  274MOL    H7349759   4.652   1.245   0.531  0.3677 -0.9650  2.4374
  274MOL    C7449760   4.852   0.789   0.463  0.2239 -0.5199 -0.2569
  274MOL    C7549761   4.798   0.684   0.368 -0.0079 -0.0266 -0.5136
  274MOL    C7649762   4.812   0.774   0.609 -0.0948  0.0735  0.4222
  274MOL    O7749763   4.736   0.687   0.653  0.2928  0.3754 -0.2460
  274MOL    O7849764   4.866   0.871   0.685 -0.0784 -0.0682  1.0369
  274MOL    H7949765   4.957   0.763   0.457 -0.0744 -1.8332  0.1083
  274MOL    H8049766   4.856   0.592   0.365  1.6374  1.0188 -1.8151
  274MOL    H8149767   4.697   0.651   0.392  0.7013 -0.1595  2.4405
  274MOL    H8249768   4.795   0.736   0.273  0.5971  1.4255  0.2496
  274MOL    C8349769   4.834   0.886   0.820 -0.1002  0.3628  0.6216
  274MOL    C8449770   4.843   1.036   0.850 -0.1873 -0.2655  0.6697
  274MOL    C8549771   4.907   0.791   0.918 -0.0613 -0.3991 -0.8210
  274MOL    O8649772   5.018   0.747   0.896 -0.2744 -0.6154 -0.3145
  274MOL    O8749773   4.836   0.776   1.034  0.0431 -0.5366 -0.2378
  274MOL    H8849774   4.728   0.872   0.837 -0.0269 -1.3019 -0.1727
  274MOL    H8949775   4.814   1.054   0.953  3.4903  1.3357  1.4998
  274MOL    H9049776   4.942   1.077   0.828 -0.6844  1.1802  1.0623
  274MOL    H9149777   4.777   1.087   0.779  0.0208 -0.3594  0.4100
  274MOL    C9249778   4.896   0.727   1.148  0.1097 -0.0200  0.0692
  274MOL    C9349779   4.782   0.690   1.244 -0.0865  0.3995 -0.2392
  274MOL    C9449780   5.000   0.833   1.196 -0.0999 -0.0130 -0.1504
  274MOL    O9549781   5.122   0.814   1.207  0.4279  0.4934  0.8711
  274MOL    O9649782   4.928   0.942   1.224 -0.1402  0.2022 -0.4480
  274MOL    H9749783   4.944   0.631   1.130 -0.2720 -0.5011  1.5357
  274MOL    H9849784   4.700   0.630   1.204  0.6389 -2.0264  1.7608
  274MOL    H9949785   4.822   0.632   1.327 -1.5128 -0.9452 -0.4513
  274MOL   H10049786   4.727   0.775   1.284  0.6280  1.4279 -1.4448
  274MOL   C10149787   5.001   1.059   1.266  0.0408  0.0341  0.0869
  274MOL   C10249788   4.899   1.145   1.345  0.1275  0.6626  0.6451
  274MOL   C10349789   5.056   1.141   1.145  0.0174  0.6825 -0.0033
  274MOL   O10449790   4.990   1.231   1.088 -0.6979  0.6730 -0.0686
  274MOL   O10549791   5.178   1.097   1.111 -0.6488 -0.3360  0.8811
  274MOL   H10649792   5.080   1.040   1.339 -0.0711  2.0540  0.7516
  274MOL   H10749793   4.809   1.176   1.292 -1.0701 -0.9215  1.7171
  274MOL   H10849794   4.858   1.104   1.437  0.2124  0.3979  0.5638
  274MOL   H10949795   4.943   1.234   1.390 -1.5434  0.6342  2.4003
  274MOL   C11049796   5.255   1.150   1.011  0.9027  0.3437  0.2680
  274MOL   C11149797   5.293   1.042   0.912 -0.6179 -0.2937 -0.2344
  274MOL   C11249798   5.370   1.219   1.082 -0.1017 -0.4089 -0.5139
  274MOL   O11349799   5.380   1.342   1.073  0.6100  0.1817 -0.0081
  274MOL   O11449800   5.451   1.141   1.150  0.0294 -0.0560 -0.2439
  274MOL   H11549801   5.191   1.218   0.955 -0.0324 -0.6565  0.1109
  274MOL   H11649802   5.213   1.016   0.843 -1.2454 -0.2953  0.4844
  274MOL   H11749803   5.372   1.075   0.845 -1.6353  0.1421 -1.2426
  274MOL   H11849804   5.306   0.949   0.968 -3.5718  0.1186  1.2568
  274MOL   C11949805   5.549   1.191   1.240 -0.3565  0.3261 -0.1957
  274MOL   C12049806   5.663   1.090   1.277 -0.5140 -0.4453 -0.0764
  274MOL   C12149807   5.494   1.260   1.366  0.6971 -0.2226  0.2405
  274MOL   O12249808   5.503   1.214   1.480  0.2806  0.3247 -0.2281
  274MOL   O12349809   5.420   1.369   1.329  0.1768 -0.7984  0.0088
  274MOL   H12449810   5.597   1.263   1.174  1.4071  0.9794  1.7493
  274MOL   H12549811   5.707   1.051   1.185 -1.8838 -1.8828 -0.1468
  274MOL   H12649812   5.748   1.135   1.328 -1.9715  0.3151  1.6939
  274MOL   H12749813   5.627   1.004   1.333 -1.2115 -0.2397 -0.2019
  274MOL   C12849814   5.333   1.439   1.422 -0.0250  0.1470 -0.1038
  274MOL   C12949815   5.184   1.397   1.417 -0.6576 -0.4007  0.2256
  274MOL   C13049816   5.354   1.588   1.412  0.5174 -0.1664 -0.1134
  274MOL   O13149817   5.409   1.642   1.317 -0.1663  0.2538  0.3347
  274MOL   O13249818   5.311   1.656   1.523 -0.1691  0.1100  0.1671
  274MOL   H13349819   5.371   1.428   1.524  2.3593  0.5431 -0.9054
  274MOL   H13449820   5.118   1.437   1.495 -0.0399  1.4842 -0.1968
  274MOL   H13549821   5.139   1.436   1.326 -0.3895 -1.0094 -0.1709
  274MOL   H13649822   5.155   1.292   1.421 -1.1969 -0.2560  0.1790
  274MOL   C13749823   5.307   1.802   1.529 -0.0171  0.1925  0.7246
  274MOL   C13849824   5.337   1.832   1.666 -0.3112 -0.6345  0.6317
  274MOL   C13949825   5.168   1.858   1.471  0.0630  0.2337 -0.0385
  274MOL   O14049826   5.142   1.977   1.470 -0.4420  0.0618 -0.4571
  274MOL   O14149827   5.092   1.767   1.401 -0.4938  0.0596  0.2872
  274MOL   H14249828   5.390   1.850   1.478  0.8816 -1.2458  0.7871
  274MOL   H14349829   5.308   1.935   1.687 -0.6631 -0.6209  0.1053
  274MOL   H14449830   5.269   1.777   1.731  2.1848 -2.3689  1.8931
  274MOL   H14549831   5.440   1.810   1.693 -0.4507 -2.6661 -0.3305
  274MOL   C14649832   4.977   1.810   1.325  0.1639 -0.2346 -0.5294
  274MOL   C14749833   4.872   1.692   1.313 -0.1603 -0.4999  0.8086
  274MOL   C14849834   5.028   1.837   1.185  0.0291  0.3002 -0.4440
  274MOL   O14949835   4.992   1.940   1.130 -0.2202  0.1239  0.2334
  274MOL   O15049836   5.100   1.740   1.130 -0.1786 -0.1245 -0.0707
  274MOL   H15149837   4.930   1.893   1.377  2.2248  0.0967  0.9001
  274MOL   H15249838   4.793   1.726   1.246  0.1299 -1.6653 -0.1460
  274MOL   H15349839   4.919   1.599   1.282 -0.4485 -0.0827 -0.9658
  274MOL   H15449840   4.825   1.674   1.409 -0.8147  1.0159  0.7840
  274MOL   C15549841   5.161   1.747   0.994  0.5864 -0.1152 -0.0290
  274MOL   C15649842   5.229   1.609   0.981  1.1074 -0.5638  0.0429
  274MOL   C15749843   5.267   1.860   0.996 -0.6172  0.0029 -0.6466
  274MOL   O15849844   5.259   1.973   0.938 -0.7069  0.0960  0.2187
  274MOL   O15949845   5.369   1.837   1.087 -0.0010  0.0673 -0.1647
  274MOL   H16049846   5.087   1.766   0.917  1.2625  0.5222 -0.5307
  274MOL   H16149847   5.163   1.525   1.000  1.4479 -0.9324 -0.4178
  274MOL   H16249848   5.281   1.588   0.888 -0.8225  1.8882 -1.6866
  274MOL   H16349849   5.304   1.607   1.060 -1.4421 -0.0522  2.5613
  274MOL   C16449850   5.489   1.922   1.092 -0.7175  0.3754 -0.1725
  274MOL   C16549851   5.612   1.820   1.090 -0.6370  0.4831  0.3515
  274MOL   C16649852   5.478   2.013   1.214  0.0483  0.0337  0.7799
  274MOL   O16749853   5.546   1.991   1.316 -0.2196  0.2467 -0.6381
  274MOL   O16849854   5.392   2.121   1.192 -0.8712 -0.0175  0.1312
  274MOL   H16949855   5.507   1.986   1.005 -0.1695  1.6275  0.8378
  274MOL   H17049856   5.636   1.779   1.189  1.2230  1.0763  0.1777
  274MOL   H17149857   5.601   1.748   1.009 -3.6799  1.1819  0.0869
  274MOL   H17249858   5.702   1.876   1.064 -0.0213 -1.5335 -2.0759
  274MOL   C17349859   5.339   2.191   1.301 -0.2728 -0.0931 -0.5151
  274MOL   C17449860   5.189   2.231   1.280 -0.7579 -0.0215 -0.3442
  274MOL   C17549861   5.425   2.310   1.333 -0.1644 -1.1972 -0.1210
  274MOL   O17649862   5.467   2.342   1.443  0.4476  0.5921 -0.0671
  274MOL   O17749863   5.448   2.389   1.228 -0.0314 -0.2801 -0.1459
  274MOL   H17849864   5.346   2.134   1.394  0.3678 -0.2675 -0.6676
  274MOL   H17949865   5.168   2.269   1.180  2.1566 -0.7972 -1.3168
  274MOL   H18049866   5.128   2.142   1.286 -0.1214 -0.7640 -3.7036
  274MOL   H18149867   5.144   2.297   1.354  0.7576  1.5041 -0.7359
  274MOL   H18249868   5.404   2.361   1.149 -0.3614 -0.3641  0.0658
   8.14758   8.14758   8.14758
