;
; Gromacs include topology (itp) file.
; For Molecular Group XYZ
; Force field scheme: opls2005
; Produced from DL_FIELD v4.11
;


[ moleculetype ]
; name    nrexcl
XYZ    3

[ atoms ]
; nr   type   resnr   residu    atom    cgnr    charge    mass
    1        CT    1  MOL      C1     1  -0.1200000   12.0115
    2        CT    1  MOL      C2     2  -0.1800000   12.0115
    3       CO4    1  MOL      C3     3   0.5100000   12.0115
    4         O    1  MOL      O4     4  -0.4300000   15.9994
    5       OES    1  MOL      O5     5  -0.3300000   15.9994
    6       HAE    1  MOL      H6     6   0.0600000    1.0080
    7        HC    1  MOL      H7     7   0.0600000    1.0080
    8        HC    1  MOL      H8     8   0.0600000    1.0080
    9        HC    1  MOL      H9     9   0.0600000    1.0080
   10       HAE    1  MOL     H10    10   0.0600000    1.0080
   11        CT    1  MOL     C11    11   0.2200000   12.0115
   12        CT    1  MOL     C12    12  -0.1800000   12.0115
   13       CO4    1  MOL     C13    13   0.5100000   12.0115
   14         O    1  MOL     O14    14  -0.4300000   15.9994
   15       OES    1  MOL     O15    15  -0.3300000   15.9994
   16        HC    1  MOL     H16    16   0.0300000    1.0080
   17        HC    1  MOL     H17    17   0.0600000    1.0080
   18        HC    1  MOL     H18    18   0.0600000    1.0080
   19        HC    1  MOL     H19    19   0.0600000    1.0080
   20        CT    1  MOL     C20    20   0.2200000   12.0115
   21        CT    1  MOL     C21    21  -0.1800000   12.0115
   22       CO4    1  MOL     C22    22   0.5100000   12.0115
   23         O    1  MOL     O23    23  -0.4300000   15.9994
   24       OES    1  MOL     O24    24  -0.3300000   15.9994
   25        HC    1  MOL     H25    25   0.0300000    1.0080
   26        HC    1  MOL     H26    26   0.0600000    1.0080
   27        HC    1  MOL     H27    27   0.0600000    1.0080
   28        HC    1  MOL     H28    28   0.0600000    1.0080
   29        CT    1  MOL     C29    29   0.2200000   12.0115
   30        CT    1  MOL     C30    30  -0.1800000   12.0115
   31       CO4    1  MOL     C31    31   0.5100000   12.0115
   32         O    1  MOL     O32    32  -0.4300000   15.9994
   33       OES    1  MOL     O33    33  -0.3300000   15.9994
   34        HC    1  MOL     H34    34   0.0300000    1.0080
   35        HC    1  MOL     H35    35   0.0600000    1.0080
   36        HC    1  MOL     H36    36   0.0600000    1.0080
   37        HC    1  MOL     H37    37   0.0600000    1.0080
   38        CT    1  MOL     C38    38   0.2200000   12.0115
   39        CT    1  MOL     C39    39  -0.1800000   12.0115
   40       CO4    1  MOL     C40    40   0.5100000   12.0115
   41         O    1  MOL     O41    41  -0.4300000   15.9994
   42       OES    1  MOL     O42    42  -0.3300000   15.9994
   43        HC    1  MOL     H43    43   0.0300000    1.0080
   44        HC    1  MOL     H44    44   0.0600000    1.0080
   45        HC    1  MOL     H45    45   0.0600000    1.0080
   46        HC    1  MOL     H46    46   0.0600000    1.0080
   47        CT    1  MOL     C47    47   0.2200000   12.0115
   48        CT    1  MOL     C48    48  -0.1800000   12.0115
   49       CO4    1  MOL     C49    49   0.5100000   12.0115
   50         O    1  MOL     O50    50  -0.4300000   15.9994
   51       OES    1  MOL     O51    51  -0.3300000   15.9994
   52        HC    1  MOL     H52    52   0.0300000    1.0080
   53        HC    1  MOL     H53    53   0.0600000    1.0080
   54        HC    1  MOL     H54    54   0.0600000    1.0080
   55        HC    1  MOL     H55    55   0.0600000    1.0080
   56        CT    1  MOL     C56    56   0.2200000   12.0115
   57        CT    1  MOL     C57    57  -0.1800000   12.0115
   58       CO4    1  MOL     C58    58   0.5100000   12.0115
   59         O    1  MOL     O59    59  -0.4300000   15.9994
   60       OES    1  MOL     O60    60  -0.3300000   15.9994
   61        HC    1  MOL     H61    61   0.0300000    1.0080
   62        HC    1  MOL     H62    62   0.0600000    1.0080
   63        HC    1  MOL     H63    63   0.0600000    1.0080
   64        HC    1  MOL     H64    64   0.0600000    1.0080
   65        CT    1  MOL     C65    65   0.2200000   12.0115
   66        CT    1  MOL     C66    66  -0.1800000   12.0115
   67       CO4    1  MOL     C67    67   0.5100000   12.0115
   68         O    1  MOL     O68    68  -0.4300000   15.9994
   69       OES    1  MOL     O69    69  -0.3300000   15.9994
   70        HC    1  MOL     H70    70   0.0300000    1.0080
   71        HC    1  MOL     H71    71   0.0600000    1.0080
   72        HC    1  MOL     H72    72   0.0600000    1.0080
   73        HC    1  MOL     H73    73   0.0600000    1.0080
   74        CT    1  MOL     C74    74   0.2200000   12.0115
   75        CT    1  MOL     C75    75  -0.1800000   12.0115
   76       CO4    1  MOL     C76    76   0.5100000   12.0115
   77         O    1  MOL     O77    77  -0.4300000   15.9994
   78       OES    1  MOL     O78    78  -0.3300000   15.9994
   79        HC    1  MOL     H79    79   0.0300000    1.0080
   80        HC    1  MOL     H80    80   0.0600000    1.0080
   81        HC    1  MOL     H81    81   0.0600000    1.0080
   82        HC    1  MOL     H82    82   0.0600000    1.0080
   83        CT    1  MOL     C83    83   0.2200000   12.0115
   84        CT    1  MOL     C84    84  -0.1800000   12.0115
   85       CO4    1  MOL     C85    85   0.5100000   12.0115
   86         O    1  MOL     O86    86  -0.4300000   15.9994
   87       OES    1  MOL     O87    87  -0.3300000   15.9994
   88        HC    1  MOL     H88    88   0.0300000    1.0080
   89        HC    1  MOL     H89    89   0.0600000    1.0080
   90        HC    1  MOL     H90    90   0.0600000    1.0080
   91        HC    1  MOL     H91    91   0.0600000    1.0080
   92        CT    1  MOL     C92    92   0.2200000   12.0115
   93        CT    1  MOL     C93    93  -0.1800000   12.0115
   94       CO4    1  MOL     C94    94   0.5100000   12.0115
   95         O    1  MOL     O95    95  -0.4300000   15.9994
   96       OES    1  MOL     O96    96  -0.3300000   15.9994
   97        HC    1  MOL     H97    97   0.0300000    1.0080
   98        HC    1  MOL     H98    98   0.0600000    1.0080
   99        HC    1  MOL     H99    99   0.0600000    1.0080
  100        HC    1  MOL    H100   100   0.0600000    1.0080
  101        CT    1  MOL    C101   101   0.2200000   12.0115
  102        CT    1  MOL    C102   102  -0.1800000   12.0115
  103       CO4    1  MOL    C103   103   0.5100000   12.0115
  104         O    1  MOL    O104   104  -0.4300000   15.9994
  105       OES    1  MOL    O105   105  -0.3300000   15.9994
  106        HC    1  MOL    H106   106   0.0300000    1.0080
  107        HC    1  MOL    H107   107   0.0600000    1.0080
  108        HC    1  MOL    H108   108   0.0600000    1.0080
  109        HC    1  MOL    H109   109   0.0600000    1.0080
  110        CT    1  MOL    C110   110   0.2200000   12.0115
  111        CT    1  MOL    C111   111  -0.1800000   12.0115
  112       CO4    1  MOL    C112   112   0.5100000   12.0115
  113         O    1  MOL    O113   113  -0.4300000   15.9994
  114       OES    1  MOL    O114   114  -0.3300000   15.9994
  115        HC    1  MOL    H115   115   0.0300000    1.0080
  116        HC    1  MOL    H116   116   0.0600000    1.0080
  117        HC    1  MOL    H117   117   0.0600000    1.0080
  118        HC    1  MOL    H118   118   0.0600000    1.0080
  119        CT    1  MOL    C119   119   0.2200000   12.0115
  120        CT    1  MOL    C120   120  -0.1800000   12.0115
  121       CO4    1  MOL    C121   121   0.5100000   12.0115
  122         O    1  MOL    O122   122  -0.4300000   15.9994
  123       OES    1  MOL    O123   123  -0.3300000   15.9994
  124        HC    1  MOL    H124   124   0.0300000    1.0080
  125        HC    1  MOL    H125   125   0.0600000    1.0080
  126        HC    1  MOL    H126   126   0.0600000    1.0080
  127        HC    1  MOL    H127   127   0.0600000    1.0080
  128        CT    1  MOL    C128   128   0.2200000   12.0115
  129        CT    1  MOL    C129   129  -0.1800000   12.0115
  130       CO4    1  MOL    C130   130   0.5100000   12.0115
  131         O    1  MOL    O131   131  -0.4300000   15.9994
  132       OES    1  MOL    O132   132  -0.3300000   15.9994
  133        HC    1  MOL    H133   133   0.0300000    1.0080
  134        HC    1  MOL    H134   134   0.0600000    1.0080
  135        HC    1  MOL    H135   135   0.0600000    1.0080
  136        HC    1  MOL    H136   136   0.0600000    1.0080
  137        CT    1  MOL    C137   137   0.2200000   12.0115
  138        CT    1  MOL    C138   138  -0.1800000   12.0115
  139       CO4    1  MOL    C139   139   0.5100000   12.0115
  140         O    1  MOL    O140   140  -0.4300000   15.9994
  141       OES    1  MOL    O141   141  -0.3300000   15.9994
  142        HC    1  MOL    H142   142   0.0300000    1.0080
  143        HC    1  MOL    H143   143   0.0600000    1.0080
  144        HC    1  MOL    H144   144   0.0600000    1.0080
  145        HC    1  MOL    H145   145   0.0600000    1.0080
  146        CT    1  MOL    C146   146   0.2200000   12.0115
  147        CT    1  MOL    C147   147  -0.1800000   12.0115
  148       CO4    1  MOL    C148   148   0.5100000   12.0115
  149         O    1  MOL    O149   149  -0.4300000   15.9994
  150       OES    1  MOL    O150   150  -0.3300000   15.9994
  151        HC    1  MOL    H151   151   0.0300000    1.0080
  152        HC    1  MOL    H152   152   0.0600000    1.0080
  153        HC    1  MOL    H153   153   0.0600000    1.0080
  154        HC    1  MOL    H154   154   0.0600000    1.0080
  155        CT    1  MOL    C155   155   0.2200000   12.0115
  156        CT    1  MOL    C156   156  -0.1800000   12.0115
  157       CO4    1  MOL    C157   157   0.5100000   12.0115
  158         O    1  MOL    O158   158  -0.4300000   15.9994
  159       OES    1  MOL    O159   159  -0.3300000   15.9994
  160        HC    1  MOL    H160   160   0.0300000    1.0080
  161        HC    1  MOL    H161   161   0.0600000    1.0080
  162        HC    1  MOL    H162   162   0.0600000    1.0080
  163        HC    1  MOL    H163   163   0.0600000    1.0080
  164        CT    1  MOL    C164   164   0.2200000   12.0115
  165        CT    1  MOL    C165   165  -0.1800000   12.0115
  166       CO4    1  MOL    C166   166   0.5100000   12.0115
  167         O    1  MOL    O167   167  -0.4300000   15.9994
  168       OES    1  MOL    O168   168  -0.3300000   15.9994
  169        HC    1  MOL    H169   169   0.0300000    1.0080
  170        HC    1  MOL    H170   170   0.0600000    1.0080
  171        HC    1  MOL    H171   171   0.0600000    1.0080
  172        HC    1  MOL    H172   172   0.0600000    1.0080
  173        CT    1  MOL    C173   173   0.2200000   12.0115
  174        CT    1  MOL    C174   174  -0.1800000   12.0115
  175         C    1  MOL    C175   175   0.5200000   12.0115
  176         O    1  MOL    O176   176  -0.4400000   15.9994
  177        OH    1  MOL    O177   177  -0.5300000   15.9994
  178       HAE    1  MOL    H178   178   0.0300000    1.0080
  179        HC    1  MOL    H179   179   0.0600000    1.0080
  180        HC    1  MOL    H180   180   0.0600000    1.0080
  181        HC    1  MOL    H181   181   0.0600000    1.0080
  182        HO    1  MOL    H182   182   0.4500000    1.0080

[ bonds ]
      1      2   1      0.1529 224262.4000
      1      3   1      0.1522 265265.6000
      1      6   1      0.1090 284512.0000
      1     10   1      0.1090 284512.0000
      2      7   1      0.1090 284512.0000
      2      8   1      0.1090 284512.0000
      2      9   1      0.1090 284512.0000
      3      4   1      0.1229 476976.0000
      3      5   1      0.1327 179075.2000
      5     11   1      0.1410 267776.0000
     11     12   1      0.1529 224262.4000
     11     13   1      0.1522 265265.6000
     11     16   1      0.1090 284512.0000
     12     17   1      0.1090 284512.0000
     12     18   1      0.1090 284512.0000
     12     19   1      0.1090 284512.0000
     13     14   1      0.1229 476976.0000
     13     15   1      0.1327 179075.2000
     15     20   1      0.1410 267776.0000
     20     21   1      0.1529 224262.4000
     20     22   1      0.1522 265265.6000
     20     25   1      0.1090 284512.0000
     21     26   1      0.1090 284512.0000
     21     27   1      0.1090 284512.0000
     21     28   1      0.1090 284512.0000
     22     23   1      0.1229 476976.0000
     22     24   1      0.1327 179075.2000
     24     29   1      0.1410 267776.0000
     29     30   1      0.1529 224262.4000
     29     31   1      0.1522 265265.6000
     29     34   1      0.1090 284512.0000
     30     35   1      0.1090 284512.0000
     30     36   1      0.1090 284512.0000
     30     37   1      0.1090 284512.0000
     31     32   1      0.1229 476976.0000
     31     33   1      0.1327 179075.2000
     33     38   1      0.1410 267776.0000
     38     39   1      0.1529 224262.4000
     38     40   1      0.1522 265265.6000
     38     43   1      0.1090 284512.0000
     39     44   1      0.1090 284512.0000
     39     45   1      0.1090 284512.0000
     39     46   1      0.1090 284512.0000
     40     41   1      0.1229 476976.0000
     40     42   1      0.1327 179075.2000
     42     47   1      0.1410 267776.0000
     47     48   1      0.1529 224262.4000
     47     49   1      0.1522 265265.6000
     47     52   1      0.1090 284512.0000
     48     53   1      0.1090 284512.0000
     48     54   1      0.1090 284512.0000
     48     55   1      0.1090 284512.0000
     49     50   1      0.1229 476976.0000
     49     51   1      0.1327 179075.2000
     51     56   1      0.1410 267776.0000
     56     57   1      0.1529 224262.4000
     56     58   1      0.1522 265265.6000
     56     61   1      0.1090 284512.0000
     57     62   1      0.1090 284512.0000
     57     63   1      0.1090 284512.0000
     57     64   1      0.1090 284512.0000
     58     59   1      0.1229 476976.0000
     58     60   1      0.1327 179075.2000
     60     65   1      0.1410 267776.0000
     65     66   1      0.1529 224262.4000
     65     67   1      0.1522 265265.6000
     65     70   1      0.1090 284512.0000
     66     71   1      0.1090 284512.0000
     66     72   1      0.1090 284512.0000
     66     73   1      0.1090 284512.0000
     67     68   1      0.1229 476976.0000
     67     69   1      0.1327 179075.2000
     69     74   1      0.1410 267776.0000
     74     75   1      0.1529 224262.4000
     74     76   1      0.1522 265265.6000
     74     79   1      0.1090 284512.0000
     75     80   1      0.1090 284512.0000
     75     81   1      0.1090 284512.0000
     75     82   1      0.1090 284512.0000
     76     77   1      0.1229 476976.0000
     76     78   1      0.1327 179075.2000
     78     83   1      0.1410 267776.0000
     83     84   1      0.1529 224262.4000
     83     85   1      0.1522 265265.6000
     83     88   1      0.1090 284512.0000
     84     89   1      0.1090 284512.0000
     84     90   1      0.1090 284512.0000
     84     91   1      0.1090 284512.0000
     85     86   1      0.1229 476976.0000
     85     87   1      0.1327 179075.2000
     87     92   1      0.1410 267776.0000
     92     93   1      0.1529 224262.4000
     92     94   1      0.1522 265265.6000
     92     97   1      0.1090 284512.0000
     93     98   1      0.1090 284512.0000
     93     99   1      0.1090 284512.0000
     93    100   1      0.1090 284512.0000
     94     95   1      0.1229 476976.0000
     94     96   1      0.1327 179075.2000
     96    101   1      0.1410 267776.0000
    101    102   1      0.1529 224262.4000
    101    103   1      0.1522 265265.6000
    101    106   1      0.1090 284512.0000
    102    107   1      0.1090 284512.0000
    102    108   1      0.1090 284512.0000
    102    109   1      0.1090 284512.0000
    103    104   1      0.1229 476976.0000
    103    105   1      0.1327 179075.2000
    105    110   1      0.1410 267776.0000
    110    111   1      0.1529 224262.4000
    110    112   1      0.1522 265265.6000
    110    115   1      0.1090 284512.0000
    111    116   1      0.1090 284512.0000
    111    117   1      0.1090 284512.0000
    111    118   1      0.1090 284512.0000
    112    113   1      0.1229 476976.0000
    112    114   1      0.1327 179075.2000
    114    119   1      0.1410 267776.0000
    119    120   1      0.1529 224262.4000
    119    121   1      0.1522 265265.6000
    119    124   1      0.1090 284512.0000
    120    125   1      0.1090 284512.0000
    120    126   1      0.1090 284512.0000
    120    127   1      0.1090 284512.0000
    121    122   1      0.1229 476976.0000
    121    123   1      0.1327 179075.2000
    123    128   1      0.1410 267776.0000
    128    129   1      0.1529 224262.4000
    128    130   1      0.1522 265265.6000
    128    133   1      0.1090 284512.0000
    129    134   1      0.1090 284512.0000
    129    135   1      0.1090 284512.0000
    129    136   1      0.1090 284512.0000
    130    131   1      0.1229 476976.0000
    130    132   1      0.1327 179075.2000
    132    137   1      0.1410 267776.0000
    137    138   1      0.1529 224262.4000
    137    139   1      0.1522 265265.6000
    137    142   1      0.1090 284512.0000
    138    143   1      0.1090 284512.0000
    138    144   1      0.1090 284512.0000
    138    145   1      0.1090 284512.0000
    139    140   1      0.1229 476976.0000
    139    141   1      0.1327 179075.2000
    141    146   1      0.1410 267776.0000
    146    147   1      0.1529 224262.4000
    146    148   1      0.1522 265265.6000
    146    151   1      0.1090 284512.0000
    147    152   1      0.1090 284512.0000
    147    153   1      0.1090 284512.0000
    147    154   1      0.1090 284512.0000
    148    149   1      0.1229 476976.0000
    148    150   1      0.1327 179075.2000
    150    155   1      0.1410 267776.0000
    155    156   1      0.1529 224262.4000
    155    157   1      0.1522 265265.6000
    155    160   1      0.1090 284512.0000
    156    161   1      0.1090 284512.0000
    156    162   1      0.1090 284512.0000
    156    163   1      0.1090 284512.0000
    157    158   1      0.1229 476976.0000
    157    159   1      0.1327 179075.2000
    159    164   1      0.1410 267776.0000
    164    165   1      0.1529 224262.4000
    164    166   1      0.1522 265265.6000
    164    169   1      0.1090 284512.0000
    165    170   1      0.1090 284512.0000
    165    171   1      0.1090 284512.0000
    165    172   1      0.1090 284512.0000
    166    167   1      0.1229 476976.0000
    166    168   1      0.1327 179075.2000
    168    173   1      0.1410 267776.0000
    173    174   1      0.1529 224262.4000
    173    175   1      0.1522 265265.6000
    173    178   1      0.1090 284512.0000
    174    179   1      0.1090 284512.0000
    174    180   1      0.1090 284512.0000
    174    181   1      0.1090 284512.0000
    175    176   1      0.1229 476976.0000
    175    177   1      0.1364 376560.0000
    177    182   1      0.0945 462750.4000

[ pairs ]
; ai   aj   funct   fudge_QQ  charge_i   charge_j   c6    c12
      3      7   2   0.50000     0.5100000    0.0600000   3.869820e-04  3.188634e-07
      3      8   2   0.50000     0.5100000    0.0600000   3.869820e-04  3.188634e-07
      3      9   2   0.50000     0.5100000    0.0600000   3.869820e-04  3.188634e-07
      6      7   2   0.50000     0.0600000    0.0600000   3.930919e-05  8.704828e-09
      6      8   2   0.50000     0.0600000    0.0600000   3.930919e-05  8.704828e-09
      6      9   2   0.50000     0.0600000    0.0600000   3.930919e-05  8.704828e-09
     10      7   2   0.50000     0.0600000    0.0600000   3.930919e-05  8.704828e-09
     10      8   2   0.50000     0.0600000    0.0600000   3.930919e-05  8.704828e-09
     10      9   2   0.50000     0.0600000    0.0600000   3.930919e-05  8.704828e-09
      2      4   2   0.50000    -0.1800000   -0.4300000   1.095425e-03  1.218041e-06
      2      5   2   0.50000    -0.1800000   -0.3300000   1.026091e-03  1.187829e-06
      6      4   2   0.50000     0.0600000   -0.4300000   1.726228e-04  6.344822e-08
      6      5   2   0.50000     0.0600000   -0.3300000   1.616969e-04  6.187447e-08
     10      4   2   0.50000     0.0600000   -0.4300000   1.726228e-04  6.344822e-08
     10      5   2   0.50000     0.0600000   -0.3300000   1.616969e-04  6.187447e-08
      1     11   2   0.50000    -0.1200000    0.2200000   1.015252e-03  1.866303e-06
      4     11   2   0.50000    -0.4300000    0.2200000   1.095425e-03  1.218041e-06
      3     12   2   0.50000     0.5100000   -0.1800000   1.575021e-03  3.561100e-06
      3     13   2   0.50000     0.5100000    0.5100000   2.443423e-03  6.794949e-06
      3     16   2   0.50000     0.5100000    0.0300000   3.869820e-04  3.188634e-07
      5     17   2   0.50000    -0.3300000    0.0600000   2.521103e-04  1.063590e-07
      5     18   2   0.50000    -0.3300000    0.0600000   2.521103e-04  1.063590e-07
      5     19   2   0.50000    -0.3300000    0.0600000   2.521103e-04  1.063590e-07
     13     17   2   0.50000     0.5100000    0.0600000   3.869820e-04  3.188634e-07
     13     18   2   0.50000     0.5100000    0.0600000   3.869820e-04  3.188634e-07
     13     19   2   0.50000     0.5100000    0.0600000   3.869820e-04  3.188634e-07
     16     17   2   0.50000     0.0300000    0.0600000   6.128906e-05  1.496315e-08
     16     18   2   0.50000     0.0300000    0.0600000   6.128906e-05  1.496315e-08
     16     19   2   0.50000     0.0300000    0.0600000   6.128906e-05  1.496315e-08
      5     14   2   0.50000    -0.3300000   -0.4300000   1.107120e-03  7.752354e-07
      5     15   2   0.50000    -0.3300000   -0.3300000   1.037046e-03  7.560067e-07
     12     14   2   0.50000    -0.1800000   -0.4300000   1.095425e-03  1.218041e-06
     12     15   2   0.50000    -0.1800000   -0.3300000   1.026091e-03  1.187829e-06
     16     14   2   0.50000     0.0300000   -0.4300000   2.691455e-04  1.090642e-07
     16     15   2   0.50000     0.0300000   -0.3300000   2.521103e-04  1.063590e-07
     11     20   2   0.50000     0.2200000    0.2200000   1.015252e-03  1.866303e-06
     14     20   2   0.50000    -0.4300000    0.2200000   1.095425e-03  1.218041e-06
     13     21   2   0.50000     0.5100000   -0.1800000   1.575021e-03  3.561100e-06
     13     22   2   0.50000     0.5100000    0.5100000   2.443423e-03  6.794949e-06
     13     25   2   0.50000     0.5100000    0.0300000   3.869820e-04  3.188634e-07
     15     26   2   0.50000    -0.3300000    0.0600000   2.521103e-04  1.063590e-07
     15     27   2   0.50000    -0.3300000    0.0600000   2.521103e-04  1.063590e-07
     15     28   2   0.50000    -0.3300000    0.0600000   2.521103e-04  1.063590e-07
     22     26   2   0.50000     0.5100000    0.0600000   3.869820e-04  3.188634e-07
     22     27   2   0.50000     0.5100000    0.0600000   3.869820e-04  3.188634e-07
     22     28   2   0.50000     0.5100000    0.0600000   3.869820e-04  3.188634e-07
     25     26   2   0.50000     0.0300000    0.0600000   6.128906e-05  1.496315e-08
     25     27   2   0.50000     0.0300000    0.0600000   6.128906e-05  1.496315e-08
     25     28   2   0.50000     0.0300000    0.0600000   6.128906e-05  1.496315e-08
     15     23   2   0.50000    -0.3300000   -0.4300000   1.107120e-03  7.752354e-07
     15     24   2   0.50000    -0.3300000   -0.3300000   1.037046e-03  7.560067e-07
     21     23   2   0.50000    -0.1800000   -0.4300000   1.095425e-03  1.218041e-06
     21     24   2   0.50000    -0.1800000   -0.3300000   1.026091e-03  1.187829e-06
     25     23   2   0.50000     0.0300000   -0.4300000   2.691455e-04  1.090642e-07
     25     24   2   0.50000     0.0300000   -0.3300000   2.521103e-04  1.063590e-07
     20     29   2   0.50000     0.2200000    0.2200000   1.015252e-03  1.866303e-06
     23     29   2   0.50000    -0.4300000    0.2200000   1.095425e-03  1.218041e-06
     22     30   2   0.50000     0.5100000   -0.1800000   1.575021e-03  3.561100e-06
     22     31   2   0.50000     0.5100000    0.5100000   2.443423e-03  6.794949e-06
     22     34   2   0.50000     0.5100000    0.0300000   3.869820e-04  3.188634e-07
     24     35   2   0.50000    -0.3300000    0.0600000   2.521103e-04  1.063590e-07
     24     36   2   0.50000    -0.3300000    0.0600000   2.521103e-04  1.063590e-07
     24     37   2   0.50000    -0.3300000    0.0600000   2.521103e-04  1.063590e-07
     31     35   2   0.50000     0.5100000    0.0600000   3.869820e-04  3.188634e-07
     31     36   2   0.50000     0.5100000    0.0600000   3.869820e-04  3.188634e-07
     31     37   2   0.50000     0.5100000    0.0600000   3.869820e-04  3.188634e-07
     34     35   2   0.50000     0.0300000    0.0600000   6.128906e-05  1.496315e-08
     34     36   2   0.50000     0.0300000    0.0600000   6.128906e-05  1.496315e-08
     34     37   2   0.50000     0.0300000    0.0600000   6.128906e-05  1.496315e-08
     24     32   2   0.50000    -0.3300000   -0.4300000   1.107120e-03  7.752354e-07
     24     33   2   0.50000    -0.3300000   -0.3300000   1.037046e-03  7.560067e-07
     30     32   2   0.50000    -0.1800000   -0.4300000   1.095425e-03  1.218041e-06
     30     33   2   0.50000    -0.1800000   -0.3300000   1.026091e-03  1.187829e-06
     34     32   2   0.50000     0.0300000   -0.4300000   2.691455e-04  1.090642e-07
     34     33   2   0.50000     0.0300000   -0.3300000   2.521103e-04  1.063590e-07
     29     38   2   0.50000     0.2200000    0.2200000   1.015252e-03  1.866303e-06
     32     38   2   0.50000    -0.4300000    0.2200000   1.095425e-03  1.218041e-06
     31     39   2   0.50000     0.5100000   -0.1800000   1.575021e-03  3.561100e-06
     31     40   2   0.50000     0.5100000    0.5100000   2.443423e-03  6.794949e-06
     31     43   2   0.50000     0.5100000    0.0300000   3.869820e-04  3.188634e-07
     33     44   2   0.50000    -0.3300000    0.0600000   2.521103e-04  1.063590e-07
     33     45   2   0.50000    -0.3300000    0.0600000   2.521103e-04  1.063590e-07
     33     46   2   0.50000    -0.3300000    0.0600000   2.521103e-04  1.063590e-07
     40     44   2   0.50000     0.5100000    0.0600000   3.869820e-04  3.188634e-07
     40     45   2   0.50000     0.5100000    0.0600000   3.869820e-04  3.188634e-07
     40     46   2   0.50000     0.5100000    0.0600000   3.869820e-04  3.188634e-07
     43     44   2   0.50000     0.0300000    0.0600000   6.128906e-05  1.496315e-08
     43     45   2   0.50000     0.0300000    0.0600000   6.128906e-05  1.496315e-08
     43     46   2   0.50000     0.0300000    0.0600000   6.128906e-05  1.496315e-08
     33     41   2   0.50000    -0.3300000   -0.4300000   1.107120e-03  7.752354e-07
     33     42   2   0.50000    -0.3300000   -0.3300000   1.037046e-03  7.560067e-07
     39     41   2   0.50000    -0.1800000   -0.4300000   1.095425e-03  1.218041e-06
     39     42   2   0.50000    -0.1800000   -0.3300000   1.026091e-03  1.187829e-06
     43     41   2   0.50000     0.0300000   -0.4300000   2.691455e-04  1.090642e-07
     43     42   2   0.50000     0.0300000   -0.3300000   2.521103e-04  1.063590e-07
     38     47   2   0.50000     0.2200000    0.2200000   1.015252e-03  1.866303e-06
     41     47   2   0.50000    -0.4300000    0.2200000   1.095425e-03  1.218041e-06
     40     48   2   0.50000     0.5100000   -0.1800000   1.575021e-03  3.561100e-06
     40     49   2   0.50000     0.5100000    0.5100000   2.443423e-03  6.794949e-06
     40     52   2   0.50000     0.5100000    0.0300000   3.869820e-04  3.188634e-07
     42     53   2   0.50000    -0.3300000    0.0600000   2.521103e-04  1.063590e-07
     42     54   2   0.50000    -0.3300000    0.0600000   2.521103e-04  1.063590e-07
     42     55   2   0.50000    -0.3300000    0.0600000   2.521103e-04  1.063590e-07
     49     53   2   0.50000     0.5100000    0.0600000   3.869820e-04  3.188634e-07
     49     54   2   0.50000     0.5100000    0.0600000   3.869820e-04  3.188634e-07
     49     55   2   0.50000     0.5100000    0.0600000   3.869820e-04  3.188634e-07
     52     53   2   0.50000     0.0300000    0.0600000   6.128906e-05  1.496315e-08
     52     54   2   0.50000     0.0300000    0.0600000   6.128906e-05  1.496315e-08
     52     55   2   0.50000     0.0300000    0.0600000   6.128906e-05  1.496315e-08
     42     50   2   0.50000    -0.3300000   -0.4300000   1.107120e-03  7.752354e-07
     42     51   2   0.50000    -0.3300000   -0.3300000   1.037046e-03  7.560067e-07
     48     50   2   0.50000    -0.1800000   -0.4300000   1.095425e-03  1.218041e-06
     48     51   2   0.50000    -0.1800000   -0.3300000   1.026091e-03  1.187829e-06
     52     50   2   0.50000     0.0300000   -0.4300000   2.691455e-04  1.090642e-07
     52     51   2   0.50000     0.0300000   -0.3300000   2.521103e-04  1.063590e-07
     47     56   2   0.50000     0.2200000    0.2200000   1.015252e-03  1.866303e-06
     50     56   2   0.50000    -0.4300000    0.2200000   1.095425e-03  1.218041e-06
     49     57   2   0.50000     0.5100000   -0.1800000   1.575021e-03  3.561100e-06
     49     58   2   0.50000     0.5100000    0.5100000   2.443423e-03  6.794949e-06
     49     61   2   0.50000     0.5100000    0.0300000   3.869820e-04  3.188634e-07
     51     62   2   0.50000    -0.3300000    0.0600000   2.521103e-04  1.063590e-07
     51     63   2   0.50000    -0.3300000    0.0600000   2.521103e-04  1.063590e-07
     51     64   2   0.50000    -0.3300000    0.0600000   2.521103e-04  1.063590e-07
     58     62   2   0.50000     0.5100000    0.0600000   3.869820e-04  3.188634e-07
     58     63   2   0.50000     0.5100000    0.0600000   3.869820e-04  3.188634e-07
     58     64   2   0.50000     0.5100000    0.0600000   3.869820e-04  3.188634e-07
     61     62   2   0.50000     0.0300000    0.0600000   6.128906e-05  1.496315e-08
     61     63   2   0.50000     0.0300000    0.0600000   6.128906e-05  1.496315e-08
     61     64   2   0.50000     0.0300000    0.0600000   6.128906e-05  1.496315e-08
     51     59   2   0.50000    -0.3300000   -0.4300000   1.107120e-03  7.752354e-07
     51     60   2   0.50000    -0.3300000   -0.3300000   1.037046e-03  7.560067e-07
     57     59   2   0.50000    -0.1800000   -0.4300000   1.095425e-03  1.218041e-06
     57     60   2   0.50000    -0.1800000   -0.3300000   1.026091e-03  1.187829e-06
     61     59   2   0.50000     0.0300000   -0.4300000   2.691455e-04  1.090642e-07
     61     60   2   0.50000     0.0300000   -0.3300000   2.521103e-04  1.063590e-07
     56     65   2   0.50000     0.2200000    0.2200000   1.015252e-03  1.866303e-06
     59     65   2   0.50000    -0.4300000    0.2200000   1.095425e-03  1.218041e-06
     58     66   2   0.50000     0.5100000   -0.1800000   1.575021e-03  3.561100e-06
     58     67   2   0.50000     0.5100000    0.5100000   2.443423e-03  6.794949e-06
     58     70   2   0.50000     0.5100000    0.0300000   3.869820e-04  3.188634e-07
     60     71   2   0.50000    -0.3300000    0.0600000   2.521103e-04  1.063590e-07
     60     72   2   0.50000    -0.3300000    0.0600000   2.521103e-04  1.063590e-07
     60     73   2   0.50000    -0.3300000    0.0600000   2.521103e-04  1.063590e-07
     67     71   2   0.50000     0.5100000    0.0600000   3.869820e-04  3.188634e-07
     67     72   2   0.50000     0.5100000    0.0600000   3.869820e-04  3.188634e-07
     67     73   2   0.50000     0.5100000    0.0600000   3.869820e-04  3.188634e-07
     70     71   2   0.50000     0.0300000    0.0600000   6.128906e-05  1.496315e-08
     70     72   2   0.50000     0.0300000    0.0600000   6.128906e-05  1.496315e-08
     70     73   2   0.50000     0.0300000    0.0600000   6.128906e-05  1.496315e-08
     60     68   2   0.50000    -0.3300000   -0.4300000   1.107120e-03  7.752354e-07
     60     69   2   0.50000    -0.3300000   -0.3300000   1.037046e-03  7.560067e-07
     66     68   2   0.50000    -0.1800000   -0.4300000   1.095425e-03  1.218041e-06
     66     69   2   0.50000    -0.1800000   -0.3300000   1.026091e-03  1.187829e-06
     70     68   2   0.50000     0.0300000   -0.4300000   2.691455e-04  1.090642e-07
     70     69   2   0.50000     0.0300000   -0.3300000   2.521103e-04  1.063590e-07
     65     74   2   0.50000     0.2200000    0.2200000   1.015252e-03  1.866303e-06
     68     74   2   0.50000    -0.4300000    0.2200000   1.095425e-03  1.218041e-06
     67     75   2   0.50000     0.5100000   -0.1800000   1.575021e-03  3.561100e-06
     67     76   2   0.50000     0.5100000    0.5100000   2.443423e-03  6.794949e-06
     67     79   2   0.50000     0.5100000    0.0300000   3.869820e-04  3.188634e-07
     69     80   2   0.50000    -0.3300000    0.0600000   2.521103e-04  1.063590e-07
     69     81   2   0.50000    -0.3300000    0.0600000   2.521103e-04  1.063590e-07
     69     82   2   0.50000    -0.3300000    0.0600000   2.521103e-04  1.063590e-07
     76     80   2   0.50000     0.5100000    0.0600000   3.869820e-04  3.188634e-07
     76     81   2   0.50000     0.5100000    0.0600000   3.869820e-04  3.188634e-07
     76     82   2   0.50000     0.5100000    0.0600000   3.869820e-04  3.188634e-07
     79     80   2   0.50000     0.0300000    0.0600000   6.128906e-05  1.496315e-08
     79     81   2   0.50000     0.0300000    0.0600000   6.128906e-05  1.496315e-08
     79     82   2   0.50000     0.0300000    0.0600000   6.128906e-05  1.496315e-08
     69     77   2   0.50000    -0.3300000   -0.4300000   1.107120e-03  7.752354e-07
     69     78   2   0.50000    -0.3300000   -0.3300000   1.037046e-03  7.560067e-07
     75     77   2   0.50000    -0.1800000   -0.4300000   1.095425e-03  1.218041e-06
     75     78   2   0.50000    -0.1800000   -0.3300000   1.026091e-03  1.187829e-06
     79     77   2   0.50000     0.0300000   -0.4300000   2.691455e-04  1.090642e-07
     79     78   2   0.50000     0.0300000   -0.3300000   2.521103e-04  1.063590e-07
     74     83   2   0.50000     0.2200000    0.2200000   1.015252e-03  1.866303e-06
     77     83   2   0.50000    -0.4300000    0.2200000   1.095425e-03  1.218041e-06
     76     84   2   0.50000     0.5100000   -0.1800000   1.575021e-03  3.561100e-06
     76     85   2   0.50000     0.5100000    0.5100000   2.443423e-03  6.794949e-06
     76     88   2   0.50000     0.5100000    0.0300000   3.869820e-04  3.188634e-07
     78     89   2   0.50000    -0.3300000    0.0600000   2.521103e-04  1.063590e-07
     78     90   2   0.50000    -0.3300000    0.0600000   2.521103e-04  1.063590e-07
     78     91   2   0.50000    -0.3300000    0.0600000   2.521103e-04  1.063590e-07
     85     89   2   0.50000     0.5100000    0.0600000   3.869820e-04  3.188634e-07
     85     90   2   0.50000     0.5100000    0.0600000   3.869820e-04  3.188634e-07
     85     91   2   0.50000     0.5100000    0.0600000   3.869820e-04  3.188634e-07
     88     89   2   0.50000     0.0300000    0.0600000   6.128906e-05  1.496315e-08
     88     90   2   0.50000     0.0300000    0.0600000   6.128906e-05  1.496315e-08
     88     91   2   0.50000     0.0300000    0.0600000   6.128906e-05  1.496315e-08
     78     86   2   0.50000    -0.3300000   -0.4300000   1.107120e-03  7.752354e-07
     78     87   2   0.50000    -0.3300000   -0.3300000   1.037046e-03  7.560067e-07
     84     86   2   0.50000    -0.1800000   -0.4300000   1.095425e-03  1.218041e-06
     84     87   2   0.50000    -0.1800000   -0.3300000   1.026091e-03  1.187829e-06
     88     86   2   0.50000     0.0300000   -0.4300000   2.691455e-04  1.090642e-07
     88     87   2   0.50000     0.0300000   -0.3300000   2.521103e-04  1.063590e-07
     83     92   2   0.50000     0.2200000    0.2200000   1.015252e-03  1.866303e-06
     86     92   2   0.50000    -0.4300000    0.2200000   1.095425e-03  1.218041e-06
     85     93   2   0.50000     0.5100000   -0.1800000   1.575021e-03  3.561100e-06
     85     94   2   0.50000     0.5100000    0.5100000   2.443423e-03  6.794949e-06
     85     97   2   0.50000     0.5100000    0.0300000   3.869820e-04  3.188634e-07
     87     98   2   0.50000    -0.3300000    0.0600000   2.521103e-04  1.063590e-07
     87     99   2   0.50000    -0.3300000    0.0600000   2.521103e-04  1.063590e-07
     87    100   2   0.50000    -0.3300000    0.0600000   2.521103e-04  1.063590e-07
     94     98   2   0.50000     0.5100000    0.0600000   3.869820e-04  3.188634e-07
     94     99   2   0.50000     0.5100000    0.0600000   3.869820e-04  3.188634e-07
     94    100   2   0.50000     0.5100000    0.0600000   3.869820e-04  3.188634e-07
     97     98   2   0.50000     0.0300000    0.0600000   6.128906e-05  1.496315e-08
     97     99   2   0.50000     0.0300000    0.0600000   6.128906e-05  1.496315e-08
     97    100   2   0.50000     0.0300000    0.0600000   6.128906e-05  1.496315e-08
     87     95   2   0.50000    -0.3300000   -0.4300000   1.107120e-03  7.752354e-07
     87     96   2   0.50000    -0.3300000   -0.3300000   1.037046e-03  7.560067e-07
     93     95   2   0.50000    -0.1800000   -0.4300000   1.095425e-03  1.218041e-06
     93     96   2   0.50000    -0.1800000   -0.3300000   1.026091e-03  1.187829e-06
     97     95   2   0.50000     0.0300000   -0.4300000   2.691455e-04  1.090642e-07
     97     96   2   0.50000     0.0300000   -0.3300000   2.521103e-04  1.063590e-07
     92    101   2   0.50000     0.2200000    0.2200000   1.015252e-03  1.866303e-06
     95    101   2   0.50000    -0.4300000    0.2200000   1.095425e-03  1.218041e-06
     94    102   2   0.50000     0.5100000   -0.1800000   1.575021e-03  3.561100e-06
     94    103   2   0.50000     0.5100000    0.5100000   2.443423e-03  6.794949e-06
     94    106   2   0.50000     0.5100000    0.0300000   3.869820e-04  3.188634e-07
     96    107   2   0.50000    -0.3300000    0.0600000   2.521103e-04  1.063590e-07
     96    108   2   0.50000    -0.3300000    0.0600000   2.521103e-04  1.063590e-07
     96    109   2   0.50000    -0.3300000    0.0600000   2.521103e-04  1.063590e-07
    103    107   2   0.50000     0.5100000    0.0600000   3.869820e-04  3.188634e-07
    103    108   2   0.50000     0.5100000    0.0600000   3.869820e-04  3.188634e-07
    103    109   2   0.50000     0.5100000    0.0600000   3.869820e-04  3.188634e-07
    106    107   2   0.50000     0.0300000    0.0600000   6.128906e-05  1.496315e-08
    106    108   2   0.50000     0.0300000    0.0600000   6.128906e-05  1.496315e-08
    106    109   2   0.50000     0.0300000    0.0600000   6.128906e-05  1.496315e-08
     96    104   2   0.50000    -0.3300000   -0.4300000   1.107120e-03  7.752354e-07
     96    105   2   0.50000    -0.3300000   -0.3300000   1.037046e-03  7.560067e-07
    102    104   2   0.50000    -0.1800000   -0.4300000   1.095425e-03  1.218041e-06
    102    105   2   0.50000    -0.1800000   -0.3300000   1.026091e-03  1.187829e-06
    106    104   2   0.50000     0.0300000   -0.4300000   2.691455e-04  1.090642e-07
    106    105   2   0.50000     0.0300000   -0.3300000   2.521103e-04  1.063590e-07
    101    110   2   0.50000     0.2200000    0.2200000   1.015252e-03  1.866303e-06
    104    110   2   0.50000    -0.4300000    0.2200000   1.095425e-03  1.218041e-06
    103    111   2   0.50000     0.5100000   -0.1800000   1.575021e-03  3.561100e-06
    103    112   2   0.50000     0.5100000    0.5100000   2.443423e-03  6.794949e-06
    103    115   2   0.50000     0.5100000    0.0300000   3.869820e-04  3.188634e-07
    105    116   2   0.50000    -0.3300000    0.0600000   2.521103e-04  1.063590e-07
    105    117   2   0.50000    -0.3300000    0.0600000   2.521103e-04  1.063590e-07
    105    118   2   0.50000    -0.3300000    0.0600000   2.521103e-04  1.063590e-07
    112    116   2   0.50000     0.5100000    0.0600000   3.869820e-04  3.188634e-07
    112    117   2   0.50000     0.5100000    0.0600000   3.869820e-04  3.188634e-07
    112    118   2   0.50000     0.5100000    0.0600000   3.869820e-04  3.188634e-07
    115    116   2   0.50000     0.0300000    0.0600000   6.128906e-05  1.496315e-08
    115    117   2   0.50000     0.0300000    0.0600000   6.128906e-05  1.496315e-08
    115    118   2   0.50000     0.0300000    0.0600000   6.128906e-05  1.496315e-08
    105    113   2   0.50000    -0.3300000   -0.4300000   1.107120e-03  7.752354e-07
    105    114   2   0.50000    -0.3300000   -0.3300000   1.037046e-03  7.560067e-07
    111    113   2   0.50000    -0.1800000   -0.4300000   1.095425e-03  1.218041e-06
    111    114   2   0.50000    -0.1800000   -0.3300000   1.026091e-03  1.187829e-06
    115    113   2   0.50000     0.0300000   -0.4300000   2.691455e-04  1.090642e-07
    115    114   2   0.50000     0.0300000   -0.3300000   2.521103e-04  1.063590e-07
    110    119   2   0.50000     0.2200000    0.2200000   1.015252e-03  1.866303e-06
    113    119   2   0.50000    -0.4300000    0.2200000   1.095425e-03  1.218041e-06
    112    120   2   0.50000     0.5100000   -0.1800000   1.575021e-03  3.561100e-06
    112    121   2   0.50000     0.5100000    0.5100000   2.443423e-03  6.794949e-06
    112    124   2   0.50000     0.5100000    0.0300000   3.869820e-04  3.188634e-07
    114    125   2   0.50000    -0.3300000    0.0600000   2.521103e-04  1.063590e-07
    114    126   2   0.50000    -0.3300000    0.0600000   2.521103e-04  1.063590e-07
    114    127   2   0.50000    -0.3300000    0.0600000   2.521103e-04  1.063590e-07
    121    125   2   0.50000     0.5100000    0.0600000   3.869820e-04  3.188634e-07
    121    126   2   0.50000     0.5100000    0.0600000   3.869820e-04  3.188634e-07
    121    127   2   0.50000     0.5100000    0.0600000   3.869820e-04  3.188634e-07
    124    125   2   0.50000     0.0300000    0.0600000   6.128906e-05  1.496315e-08
    124    126   2   0.50000     0.0300000    0.0600000   6.128906e-05  1.496315e-08
    124    127   2   0.50000     0.0300000    0.0600000   6.128906e-05  1.496315e-08
    114    122   2   0.50000    -0.3300000   -0.4300000   1.107120e-03  7.752354e-07
    114    123   2   0.50000    -0.3300000   -0.3300000   1.037046e-03  7.560067e-07
    120    122   2   0.50000    -0.1800000   -0.4300000   1.095425e-03  1.218041e-06
    120    123   2   0.50000    -0.1800000   -0.3300000   1.026091e-03  1.187829e-06
    124    122   2   0.50000     0.0300000   -0.4300000   2.691455e-04  1.090642e-07
    124    123   2   0.50000     0.0300000   -0.3300000   2.521103e-04  1.063590e-07
    119    128   2   0.50000     0.2200000    0.2200000   1.015252e-03  1.866303e-06
    122    128   2   0.50000    -0.4300000    0.2200000   1.095425e-03  1.218041e-06
    121    129   2   0.50000     0.5100000   -0.1800000   1.575021e-03  3.561100e-06
    121    130   2   0.50000     0.5100000    0.5100000   2.443423e-03  6.794949e-06
    121    133   2   0.50000     0.5100000    0.0300000   3.869820e-04  3.188634e-07
    123    134   2   0.50000    -0.3300000    0.0600000   2.521103e-04  1.063590e-07
    123    135   2   0.50000    -0.3300000    0.0600000   2.521103e-04  1.063590e-07
    123    136   2   0.50000    -0.3300000    0.0600000   2.521103e-04  1.063590e-07
    130    134   2   0.50000     0.5100000    0.0600000   3.869820e-04  3.188634e-07
    130    135   2   0.50000     0.5100000    0.0600000   3.869820e-04  3.188634e-07
    130    136   2   0.50000     0.5100000    0.0600000   3.869820e-04  3.188634e-07
    133    134   2   0.50000     0.0300000    0.0600000   6.128906e-05  1.496315e-08
    133    135   2   0.50000     0.0300000    0.0600000   6.128906e-05  1.496315e-08
    133    136   2   0.50000     0.0300000    0.0600000   6.128906e-05  1.496315e-08
    123    131   2   0.50000    -0.3300000   -0.4300000   1.107120e-03  7.752354e-07
    123    132   2   0.50000    -0.3300000   -0.3300000   1.037046e-03  7.560067e-07
    129    131   2   0.50000    -0.1800000   -0.4300000   1.095425e-03  1.218041e-06
    129    132   2   0.50000    -0.1800000   -0.3300000   1.026091e-03  1.187829e-06
    133    131   2   0.50000     0.0300000   -0.4300000   2.691455e-04  1.090642e-07
    133    132   2   0.50000     0.0300000   -0.3300000   2.521103e-04  1.063590e-07
    128    137   2   0.50000     0.2200000    0.2200000   1.015252e-03  1.866303e-06
    131    137   2   0.50000    -0.4300000    0.2200000   1.095425e-03  1.218041e-06
    130    138   2   0.50000     0.5100000   -0.1800000   1.575021e-03  3.561100e-06
    130    139   2   0.50000     0.5100000    0.5100000   2.443423e-03  6.794949e-06
    130    142   2   0.50000     0.5100000    0.0300000   3.869820e-04  3.188634e-07
    132    143   2   0.50000    -0.3300000    0.0600000   2.521103e-04  1.063590e-07
    132    144   2   0.50000    -0.3300000    0.0600000   2.521103e-04  1.063590e-07
    132    145   2   0.50000    -0.3300000    0.0600000   2.521103e-04  1.063590e-07
    139    143   2   0.50000     0.5100000    0.0600000   3.869820e-04  3.188634e-07
    139    144   2   0.50000     0.5100000    0.0600000   3.869820e-04  3.188634e-07
    139    145   2   0.50000     0.5100000    0.0600000   3.869820e-04  3.188634e-07
    142    143   2   0.50000     0.0300000    0.0600000   6.128906e-05  1.496315e-08
    142    144   2   0.50000     0.0300000    0.0600000   6.128906e-05  1.496315e-08
    142    145   2   0.50000     0.0300000    0.0600000   6.128906e-05  1.496315e-08
    132    140   2   0.50000    -0.3300000   -0.4300000   1.107120e-03  7.752354e-07
    132    141   2   0.50000    -0.3300000   -0.3300000   1.037046e-03  7.560067e-07
    138    140   2   0.50000    -0.1800000   -0.4300000   1.095425e-03  1.218041e-06
    138    141   2   0.50000    -0.1800000   -0.3300000   1.026091e-03  1.187829e-06
    142    140   2   0.50000     0.0300000   -0.4300000   2.691455e-04  1.090642e-07
    142    141   2   0.50000     0.0300000   -0.3300000   2.521103e-04  1.063590e-07
    137    146   2   0.50000     0.2200000    0.2200000   1.015252e-03  1.866303e-06
    140    146   2   0.50000    -0.4300000    0.2200000   1.095425e-03  1.218041e-06
    139    147   2   0.50000     0.5100000   -0.1800000   1.575021e-03  3.561100e-06
    139    148   2   0.50000     0.5100000    0.5100000   2.443423e-03  6.794949e-06
    139    151   2   0.50000     0.5100000    0.0300000   3.869820e-04  3.188634e-07
    141    152   2   0.50000    -0.3300000    0.0600000   2.521103e-04  1.063590e-07
    141    153   2   0.50000    -0.3300000    0.0600000   2.521103e-04  1.063590e-07
    141    154   2   0.50000    -0.3300000    0.0600000   2.521103e-04  1.063590e-07
    148    152   2   0.50000     0.5100000    0.0600000   3.869820e-04  3.188634e-07
    148    153   2   0.50000     0.5100000    0.0600000   3.869820e-04  3.188634e-07
    148    154   2   0.50000     0.5100000    0.0600000   3.869820e-04  3.188634e-07
    151    152   2   0.50000     0.0300000    0.0600000   6.128906e-05  1.496315e-08
    151    153   2   0.50000     0.0300000    0.0600000   6.128906e-05  1.496315e-08
    151    154   2   0.50000     0.0300000    0.0600000   6.128906e-05  1.496315e-08
    141    149   2   0.50000    -0.3300000   -0.4300000   1.107120e-03  7.752354e-07
    141    150   2   0.50000    -0.3300000   -0.3300000   1.037046e-03  7.560067e-07
    147    149   2   0.50000    -0.1800000   -0.4300000   1.095425e-03  1.218041e-06
    147    150   2   0.50000    -0.1800000   -0.3300000   1.026091e-03  1.187829e-06
    151    149   2   0.50000     0.0300000   -0.4300000   2.691455e-04  1.090642e-07
    151    150   2   0.50000     0.0300000   -0.3300000   2.521103e-04  1.063590e-07
    146    155   2   0.50000     0.2200000    0.2200000   1.015252e-03  1.866303e-06
    149    155   2   0.50000    -0.4300000    0.2200000   1.095425e-03  1.218041e-06
    148    156   2   0.50000     0.5100000   -0.1800000   1.575021e-03  3.561100e-06
    148    157   2   0.50000     0.5100000    0.5100000   2.443423e-03  6.794949e-06
    148    160   2   0.50000     0.5100000    0.0300000   3.869820e-04  3.188634e-07
    150    161   2   0.50000    -0.3300000    0.0600000   2.521103e-04  1.063590e-07
    150    162   2   0.50000    -0.3300000    0.0600000   2.521103e-04  1.063590e-07
    150    163   2   0.50000    -0.3300000    0.0600000   2.521103e-04  1.063590e-07
    157    161   2   0.50000     0.5100000    0.0600000   3.869820e-04  3.188634e-07
    157    162   2   0.50000     0.5100000    0.0600000   3.869820e-04  3.188634e-07
    157    163   2   0.50000     0.5100000    0.0600000   3.869820e-04  3.188634e-07
    160    161   2   0.50000     0.0300000    0.0600000   6.128906e-05  1.496315e-08
    160    162   2   0.50000     0.0300000    0.0600000   6.128906e-05  1.496315e-08
    160    163   2   0.50000     0.0300000    0.0600000   6.128906e-05  1.496315e-08
    150    158   2   0.50000    -0.3300000   -0.4300000   1.107120e-03  7.752354e-07
    150    159   2   0.50000    -0.3300000   -0.3300000   1.037046e-03  7.560067e-07
    156    158   2   0.50000    -0.1800000   -0.4300000   1.095425e-03  1.218041e-06
    156    159   2   0.50000    -0.1800000   -0.3300000   1.026091e-03  1.187829e-06
    160    158   2   0.50000     0.0300000   -0.4300000   2.691455e-04  1.090642e-07
    160    159   2   0.50000     0.0300000   -0.3300000   2.521103e-04  1.063590e-07
    155    164   2   0.50000     0.2200000    0.2200000   1.015252e-03  1.866303e-06
    158    164   2   0.50000    -0.4300000    0.2200000   1.095425e-03  1.218041e-06
    157    165   2   0.50000     0.5100000   -0.1800000   1.575021e-03  3.561100e-06
    157    166   2   0.50000     0.5100000    0.5100000   2.443423e-03  6.794949e-06
    157    169   2   0.50000     0.5100000    0.0300000   3.869820e-04  3.188634e-07
    159    170   2   0.50000    -0.3300000    0.0600000   2.521103e-04  1.063590e-07
    159    171   2   0.50000    -0.3300000    0.0600000   2.521103e-04  1.063590e-07
    159    172   2   0.50000    -0.3300000    0.0600000   2.521103e-04  1.063590e-07
    166    170   2   0.50000     0.5100000    0.0600000   3.869820e-04  3.188634e-07
    166    171   2   0.50000     0.5100000    0.0600000   3.869820e-04  3.188634e-07
    166    172   2   0.50000     0.5100000    0.0600000   3.869820e-04  3.188634e-07
    169    170   2   0.50000     0.0300000    0.0600000   6.128906e-05  1.496315e-08
    169    171   2   0.50000     0.0300000    0.0600000   6.128906e-05  1.496315e-08
    169    172   2   0.50000     0.0300000    0.0600000   6.128906e-05  1.496315e-08
    159    167   2   0.50000    -0.3300000   -0.4300000   1.107120e-03  7.752354e-07
    159    168   2   0.50000    -0.3300000   -0.3300000   1.037046e-03  7.560067e-07
    165    167   2   0.50000    -0.1800000   -0.4300000   1.095425e-03  1.218041e-06
    165    168   2   0.50000    -0.1800000   -0.3300000   1.026091e-03  1.187829e-06
    169    167   2   0.50000     0.0300000   -0.4300000   2.691455e-04  1.090642e-07
    169    168   2   0.50000     0.0300000   -0.3300000   2.521103e-04  1.063590e-07
    164    173   2   0.50000     0.2200000    0.2200000   1.015252e-03  1.866303e-06
    167    173   2   0.50000    -0.4300000    0.2200000   1.095425e-03  1.218041e-06
    166    174   2   0.50000     0.5100000   -0.1800000   1.575021e-03  3.561100e-06
    166    175   2   0.50000     0.5100000    0.5200000   2.443423e-03  6.794949e-06
    166    178   2   0.50000     0.5100000    0.0300000   2.482000e-04  1.854991e-07
    168    179   2   0.50000    -0.3300000    0.0600000   2.521103e-04  1.063590e-07
    168    180   2   0.50000    -0.3300000    0.0600000   2.521103e-04  1.063590e-07
    168    181   2   0.50000    -0.3300000    0.0600000   2.521103e-04  1.063590e-07
    175    179   2   0.50000     0.5200000    0.0600000   3.869820e-04  3.188634e-07
    175    180   2   0.50000     0.5200000    0.0600000   3.869820e-04  3.188634e-07
    175    181   2   0.50000     0.5200000    0.0600000   3.869820e-04  3.188634e-07
    178    179   2   0.50000     0.0300000    0.0600000   3.930919e-05  8.704828e-09
    178    180   2   0.50000     0.0300000    0.0600000   3.930919e-05  8.704828e-09
    178    181   2   0.50000     0.0300000    0.0600000   3.930919e-05  8.704828e-09
    168    176   2   0.50000    -0.3300000   -0.4400000   1.107120e-03  7.752354e-07
    168    177   2   0.50000    -0.3300000   -0.5300000   1.037046e-03  7.560067e-07
    174    176   2   0.50000    -0.1800000   -0.4400000   1.095425e-03  1.218041e-06
    174    177   2   0.50000    -0.1800000   -0.5300000   1.026091e-03  1.187829e-06
    178    176   2   0.50000     0.0300000   -0.4400000   1.726228e-04  6.344822e-08
    178    177   2   0.50000     0.0300000   -0.5300000   1.616969e-04  6.187447e-08
    173    182   2   0.50000     0.2200000    0.4500000   1.995577e-06  1.069504e-11
    176    182   2   0.50000    -0.4400000    0.4500000   2.153164e-06  6.980110e-12

[ angles ]
; ai  aj  ak
      2      1      3   1    111.1000    527.1840
      2      1      6   1    110.7000    313.8000
      2      1     10   1    110.7000    313.8000
      3      1      6   1    109.5000    292.8800
      3      1     10   1    109.5000    292.8800
      6      1     10   1    107.8000    276.1440
      1      2      7   1    110.7000    313.8000
      1      2      8   1    110.7000    313.8000
      1      2      9   1    110.7000    313.8000
      7      2      8   1    107.8000    276.1440
      7      2      9   1    107.8000    276.1440
      8      2      9   1    107.8000    276.1440
      1      3      4   1    120.4000    669.4400
      1      3      5   1    111.4000    677.8080
      4      3      5   1    123.4000    694.5440
      3      5     11   1    116.9000    694.5440
      5     11     12   1    109.5000    418.4000
      5     11     13   1    108.7410    753.1200
      5     11     16   1    109.5000    292.8800
     12     11     13   1    111.1000    527.1840
     12     11     16   1    110.7000    313.8000
     13     11     16   1    109.5000    292.8800
     11     12     17   1    110.7000    313.8000
     11     12     18   1    110.7000    313.8000
     11     12     19   1    110.7000    313.8000
     17     12     18   1    107.8000    276.1440
     17     12     19   1    107.8000    276.1440
     18     12     19   1    107.8000    276.1440
     11     13     14   1    120.4000    669.4400
     11     13     15   1    111.4000    677.8080
     14     13     15   1    123.4000    694.5440
     13     15     20   1    116.9000    694.5440
     15     20     21   1    109.5000    418.4000
     15     20     22   1    108.7410    753.1200
     15     20     25   1    109.5000    292.8800
     21     20     22   1    111.1000    527.1840
     21     20     25   1    110.7000    313.8000
     22     20     25   1    109.5000    292.8800
     20     21     26   1    110.7000    313.8000
     20     21     27   1    110.7000    313.8000
     20     21     28   1    110.7000    313.8000
     26     21     27   1    107.8000    276.1440
     26     21     28   1    107.8000    276.1440
     27     21     28   1    107.8000    276.1440
     20     22     23   1    120.4000    669.4400
     20     22     24   1    111.4000    677.8080
     23     22     24   1    123.4000    694.5440
     22     24     29   1    116.9000    694.5440
     24     29     30   1    109.5000    418.4000
     24     29     31   1    108.7410    753.1200
     24     29     34   1    109.5000    292.8800
     30     29     31   1    111.1000    527.1840
     30     29     34   1    110.7000    313.8000
     31     29     34   1    109.5000    292.8800
     29     30     35   1    110.7000    313.8000
     29     30     36   1    110.7000    313.8000
     29     30     37   1    110.7000    313.8000
     35     30     36   1    107.8000    276.1440
     35     30     37   1    107.8000    276.1440
     36     30     37   1    107.8000    276.1440
     29     31     32   1    120.4000    669.4400
     29     31     33   1    111.4000    677.8080
     32     31     33   1    123.4000    694.5440
     31     33     38   1    116.9000    694.5440
     33     38     39   1    109.5000    418.4000
     33     38     40   1    108.7410    753.1200
     33     38     43   1    109.5000    292.8800
     39     38     40   1    111.1000    527.1840
     39     38     43   1    110.7000    313.8000
     40     38     43   1    109.5000    292.8800
     38     39     44   1    110.7000    313.8000
     38     39     45   1    110.7000    313.8000
     38     39     46   1    110.7000    313.8000
     44     39     45   1    107.8000    276.1440
     44     39     46   1    107.8000    276.1440
     45     39     46   1    107.8000    276.1440
     38     40     41   1    120.4000    669.4400
     38     40     42   1    111.4000    677.8080
     41     40     42   1    123.4000    694.5440
     40     42     47   1    116.9000    694.5440
     42     47     48   1    109.5000    418.4000
     42     47     49   1    108.7410    753.1200
     42     47     52   1    109.5000    292.8800
     48     47     49   1    111.1000    527.1840
     48     47     52   1    110.7000    313.8000
     49     47     52   1    109.5000    292.8800
     47     48     53   1    110.7000    313.8000
     47     48     54   1    110.7000    313.8000
     47     48     55   1    110.7000    313.8000
     53     48     54   1    107.8000    276.1440
     53     48     55   1    107.8000    276.1440
     54     48     55   1    107.8000    276.1440
     47     49     50   1    120.4000    669.4400
     47     49     51   1    111.4000    677.8080
     50     49     51   1    123.4000    694.5440
     49     51     56   1    116.9000    694.5440
     51     56     57   1    109.5000    418.4000
     51     56     58   1    108.7410    753.1200
     51     56     61   1    109.5000    292.8800
     57     56     58   1    111.1000    527.1840
     57     56     61   1    110.7000    313.8000
     58     56     61   1    109.5000    292.8800
     56     57     62   1    110.7000    313.8000
     56     57     63   1    110.7000    313.8000
     56     57     64   1    110.7000    313.8000
     62     57     63   1    107.8000    276.1440
     62     57     64   1    107.8000    276.1440
     63     57     64   1    107.8000    276.1440
     56     58     59   1    120.4000    669.4400
     56     58     60   1    111.4000    677.8080
     59     58     60   1    123.4000    694.5440
     58     60     65   1    116.9000    694.5440
     60     65     66   1    109.5000    418.4000
     60     65     67   1    108.7410    753.1200
     60     65     70   1    109.5000    292.8800
     66     65     67   1    111.1000    527.1840
     66     65     70   1    110.7000    313.8000
     67     65     70   1    109.5000    292.8800
     65     66     71   1    110.7000    313.8000
     65     66     72   1    110.7000    313.8000
     65     66     73   1    110.7000    313.8000
     71     66     72   1    107.8000    276.1440
     71     66     73   1    107.8000    276.1440
     72     66     73   1    107.8000    276.1440
     65     67     68   1    120.4000    669.4400
     65     67     69   1    111.4000    677.8080
     68     67     69   1    123.4000    694.5440
     67     69     74   1    116.9000    694.5440
     69     74     75   1    109.5000    418.4000
     69     74     76   1    108.7410    753.1200
     69     74     79   1    109.5000    292.8800
     75     74     76   1    111.1000    527.1840
     75     74     79   1    110.7000    313.8000
     76     74     79   1    109.5000    292.8800
     74     75     80   1    110.7000    313.8000
     74     75     81   1    110.7000    313.8000
     74     75     82   1    110.7000    313.8000
     80     75     81   1    107.8000    276.1440
     80     75     82   1    107.8000    276.1440
     81     75     82   1    107.8000    276.1440
     74     76     77   1    120.4000    669.4400
     74     76     78   1    111.4000    677.8080
     77     76     78   1    123.4000    694.5440
     76     78     83   1    116.9000    694.5440
     78     83     84   1    109.5000    418.4000
     78     83     85   1    108.7410    753.1200
     78     83     88   1    109.5000    292.8800
     84     83     85   1    111.1000    527.1840
     84     83     88   1    110.7000    313.8000
     85     83     88   1    109.5000    292.8800
     83     84     89   1    110.7000    313.8000
     83     84     90   1    110.7000    313.8000
     83     84     91   1    110.7000    313.8000
     89     84     90   1    107.8000    276.1440
     89     84     91   1    107.8000    276.1440
     90     84     91   1    107.8000    276.1440
     83     85     86   1    120.4000    669.4400
     83     85     87   1    111.4000    677.8080
     86     85     87   1    123.4000    694.5440
     85     87     92   1    116.9000    694.5440
     87     92     93   1    109.5000    418.4000
     87     92     94   1    108.7410    753.1200
     87     92     97   1    109.5000    292.8800
     93     92     94   1    111.1000    527.1840
     93     92     97   1    110.7000    313.8000
     94     92     97   1    109.5000    292.8800
     92     93     98   1    110.7000    313.8000
     92     93     99   1    110.7000    313.8000
     92     93    100   1    110.7000    313.8000
     98     93     99   1    107.8000    276.1440
     98     93    100   1    107.8000    276.1440
     99     93    100   1    107.8000    276.1440
     92     94     95   1    120.4000    669.4400
     92     94     96   1    111.4000    677.8080
     95     94     96   1    123.4000    694.5440
     94     96    101   1    116.9000    694.5440
     96    101    102   1    109.5000    418.4000
     96    101    103   1    108.7410    753.1200
     96    101    106   1    109.5000    292.8800
    102    101    103   1    111.1000    527.1840
    102    101    106   1    110.7000    313.8000
    103    101    106   1    109.5000    292.8800
    101    102    107   1    110.7000    313.8000
    101    102    108   1    110.7000    313.8000
    101    102    109   1    110.7000    313.8000
    107    102    108   1    107.8000    276.1440
    107    102    109   1    107.8000    276.1440
    108    102    109   1    107.8000    276.1440
    101    103    104   1    120.4000    669.4400
    101    103    105   1    111.4000    677.8080
    104    103    105   1    123.4000    694.5440
    103    105    110   1    116.9000    694.5440
    105    110    111   1    109.5000    418.4000
    105    110    112   1    108.7410    753.1200
    105    110    115   1    109.5000    292.8800
    111    110    112   1    111.1000    527.1840
    111    110    115   1    110.7000    313.8000
    112    110    115   1    109.5000    292.8800
    110    111    116   1    110.7000    313.8000
    110    111    117   1    110.7000    313.8000
    110    111    118   1    110.7000    313.8000
    116    111    117   1    107.8000    276.1440
    116    111    118   1    107.8000    276.1440
    117    111    118   1    107.8000    276.1440
    110    112    113   1    120.4000    669.4400
    110    112    114   1    111.4000    677.8080
    113    112    114   1    123.4000    694.5440
    112    114    119   1    116.9000    694.5440
    114    119    120   1    109.5000    418.4000
    114    119    121   1    108.7410    753.1200
    114    119    124   1    109.5000    292.8800
    120    119    121   1    111.1000    527.1840
    120    119    124   1    110.7000    313.8000
    121    119    124   1    109.5000    292.8800
    119    120    125   1    110.7000    313.8000
    119    120    126   1    110.7000    313.8000
    119    120    127   1    110.7000    313.8000
    125    120    126   1    107.8000    276.1440
    125    120    127   1    107.8000    276.1440
    126    120    127   1    107.8000    276.1440
    119    121    122   1    120.4000    669.4400
    119    121    123   1    111.4000    677.8080
    122    121    123   1    123.4000    694.5440
    121    123    128   1    116.9000    694.5440
    123    128    129   1    109.5000    418.4000
    123    128    130   1    108.7410    753.1200
    123    128    133   1    109.5000    292.8800
    129    128    130   1    111.1000    527.1840
    129    128    133   1    110.7000    313.8000
    130    128    133   1    109.5000    292.8800
    128    129    134   1    110.7000    313.8000
    128    129    135   1    110.7000    313.8000
    128    129    136   1    110.7000    313.8000
    134    129    135   1    107.8000    276.1440
    134    129    136   1    107.8000    276.1440
    135    129    136   1    107.8000    276.1440
    128    130    131   1    120.4000    669.4400
    128    130    132   1    111.4000    677.8080
    131    130    132   1    123.4000    694.5440
    130    132    137   1    116.9000    694.5440
    132    137    138   1    109.5000    418.4000
    132    137    139   1    108.7410    753.1200
    132    137    142   1    109.5000    292.8800
    138    137    139   1    111.1000    527.1840
    138    137    142   1    110.7000    313.8000
    139    137    142   1    109.5000    292.8800
    137    138    143   1    110.7000    313.8000
    137    138    144   1    110.7000    313.8000
    137    138    145   1    110.7000    313.8000
    143    138    144   1    107.8000    276.1440
    143    138    145   1    107.8000    276.1440
    144    138    145   1    107.8000    276.1440
    137    139    140   1    120.4000    669.4400
    137    139    141   1    111.4000    677.8080
    140    139    141   1    123.4000    694.5440
    139    141    146   1    116.9000    694.5440
    141    146    147   1    109.5000    418.4000
    141    146    148   1    108.7410    753.1200
    141    146    151   1    109.5000    292.8800
    147    146    148   1    111.1000    527.1840
    147    146    151   1    110.7000    313.8000
    148    146    151   1    109.5000    292.8800
    146    147    152   1    110.7000    313.8000
    146    147    153   1    110.7000    313.8000
    146    147    154   1    110.7000    313.8000
    152    147    153   1    107.8000    276.1440
    152    147    154   1    107.8000    276.1440
    153    147    154   1    107.8000    276.1440
    146    148    149   1    120.4000    669.4400
    146    148    150   1    111.4000    677.8080
    149    148    150   1    123.4000    694.5440
    148    150    155   1    116.9000    694.5440
    150    155    156   1    109.5000    418.4000
    150    155    157   1    108.7410    753.1200
    150    155    160   1    109.5000    292.8800
    156    155    157   1    111.1000    527.1840
    156    155    160   1    110.7000    313.8000
    157    155    160   1    109.5000    292.8800
    155    156    161   1    110.7000    313.8000
    155    156    162   1    110.7000    313.8000
    155    156    163   1    110.7000    313.8000
    161    156    162   1    107.8000    276.1440
    161    156    163   1    107.8000    276.1440
    162    156    163   1    107.8000    276.1440
    155    157    158   1    120.4000    669.4400
    155    157    159   1    111.4000    677.8080
    158    157    159   1    123.4000    694.5440
    157    159    164   1    116.9000    694.5440
    159    164    165   1    109.5000    418.4000
    159    164    166   1    108.7410    753.1200
    159    164    169   1    109.5000    292.8800
    165    164    166   1    111.1000    527.1840
    165    164    169   1    110.7000    313.8000
    166    164    169   1    109.5000    292.8800
    164    165    170   1    110.7000    313.8000
    164    165    171   1    110.7000    313.8000
    164    165    172   1    110.7000    313.8000
    170    165    171   1    107.8000    276.1440
    170    165    172   1    107.8000    276.1440
    171    165    172   1    107.8000    276.1440
    164    166    167   1    120.4000    669.4400
    164    166    168   1    111.4000    677.8080
    167    166    168   1    123.4000    694.5440
    166    168    173   1    116.9000    694.5440
    168    173    174   1    109.5000    418.4000
    168    173    175   1    108.5560    753.1200
    168    173    178   1    109.5000    292.8800
    174    173    175   1    111.1000    527.1840
    174    173    178   1    110.7000    313.8000
    175    173    178   1    109.5000    292.8800
    173    174    179   1    110.7000    313.8000
    173    174    180   1    110.7000    313.8000
    173    174    181   1    110.7000    313.8000
    179    174    180   1    107.8000    276.1440
    179    174    181   1    107.8000    276.1440
    180    174    181   1    107.8000    276.1440
    173    175    176   1    120.4000    669.4400
    173    175    177   1    108.0000    585.7600
    176    175    177   1    123.3200    836.8000
    175    177    182   1    113.0000    292.8800

[ dihedrals ]
; Proper dihedrals
      3      1      2      7   5     0.00000     0.00000    -0.94140  0.0
      3      1      2      8   5     0.00000     0.00000    -0.94140  0.0
      3      1      2      9   5     0.00000     0.00000    -0.94140  0.0
      6      1      2      7   5     0.00000     0.00000     1.25520  0.0
      6      1      2      8   5     0.00000     0.00000     1.25520  0.0
      6      1      2      9   5     0.00000     0.00000     1.25520  0.0
     10      1      2      7   5     0.00000     0.00000     1.25520  0.0
     10      1      2      8   5     0.00000     0.00000     1.25520  0.0
     10      1      2      9   5     0.00000     0.00000     1.25520  0.0
      2      1      3      4   5     0.00000     2.52295     0.00000  0.0
      2      1      3      5   5     0.00000     0.00000     3.07524  0.0
      6      1      3      4   5     0.00000     0.00000     0.00000  0.0
      6      1      3      5   5     0.00000     0.00000     0.00000  0.0
     10      1      3      4   5     0.00000     0.00000     0.00000  0.0
     10      1      3      5   5     0.00000     0.00000     0.00000  0.0
      1      3      5     11   5    13.65239    24.43456     0.00000  0.0
      4      3      5     11   5     0.00000    25.10400     0.00000  0.0
      3      5     11     12   5    -2.16731    -3.93296     0.98324  0.0
      3      5     11     13   5   -15.11679     5.34715     0.30543  0.0
      3      5     11     16   5     0.00000     0.00000     0.67362  0.0
      5     11     12     17   5     0.00000     0.00000     1.95811  0.0
      5     11     12     18   5     0.00000     0.00000     1.95811  0.0
      5     11     12     19   5     0.00000     0.00000     1.95811  0.0
     13     11     12     17   5     0.00000     0.00000    -0.94140  0.0
     13     11     12     18   5     0.00000     0.00000    -0.94140  0.0
     13     11     12     19   5     0.00000     0.00000    -0.94140  0.0
     16     11     12     17   5     0.00000     0.00000     1.25520  0.0
     16     11     12     18   5     0.00000     0.00000     1.25520  0.0
     16     11     12     19   5     0.00000     0.00000     1.25520  0.0
      5     11     13     14   5     0.00000     2.52295     0.00000  0.0
      5     11     13     15   5     0.00000     0.00000     3.34720  0.0
     12     11     13     14   5     0.00000     2.52295     0.00000  0.0
     12     11     13     15   5     0.00000     0.00000     3.07524  0.0
     16     11     13     14   5     0.00000     0.00000     0.00000  0.0
     16     11     13     15   5     0.00000     0.00000     0.00000  0.0
     11     13     15     20   5    13.65239    24.43456     0.00000  0.0
     14     13     15     20   5     0.00000    25.10400     0.00000  0.0
     13     15     20     21   5    -2.16731    -3.93296     0.98324  0.0
     13     15     20     22   5   -15.11679     5.34715     0.30543  0.0
     13     15     20     25   5     0.00000     0.00000     0.67362  0.0
     15     20     21     26   5     0.00000     0.00000     1.95811  0.0
     15     20     21     27   5     0.00000     0.00000     1.95811  0.0
     15     20     21     28   5     0.00000     0.00000     1.95811  0.0
     22     20     21     26   5     0.00000     0.00000    -0.94140  0.0
     22     20     21     27   5     0.00000     0.00000    -0.94140  0.0
     22     20     21     28   5     0.00000     0.00000    -0.94140  0.0
     25     20     21     26   5     0.00000     0.00000     1.25520  0.0
     25     20     21     27   5     0.00000     0.00000     1.25520  0.0
     25     20     21     28   5     0.00000     0.00000     1.25520  0.0
     15     20     22     23   5     0.00000     2.52295     0.00000  0.0
     15     20     22     24   5     0.00000     0.00000     3.34720  0.0
     21     20     22     23   5     0.00000     2.52295     0.00000  0.0
     21     20     22     24   5     0.00000     0.00000     3.07524  0.0
     25     20     22     23   5     0.00000     0.00000     0.00000  0.0
     25     20     22     24   5     0.00000     0.00000     0.00000  0.0
     20     22     24     29   5    13.65239    24.43456     0.00000  0.0
     23     22     24     29   5     0.00000    25.10400     0.00000  0.0
     22     24     29     30   5    -2.16731    -3.93296     0.98324  0.0
     22     24     29     31   5   -15.11679     5.34715     0.30543  0.0
     22     24     29     34   5     0.00000     0.00000     0.67362  0.0
     24     29     30     35   5     0.00000     0.00000     1.95811  0.0
     24     29     30     36   5     0.00000     0.00000     1.95811  0.0
     24     29     30     37   5     0.00000     0.00000     1.95811  0.0
     31     29     30     35   5     0.00000     0.00000    -0.94140  0.0
     31     29     30     36   5     0.00000     0.00000    -0.94140  0.0
     31     29     30     37   5     0.00000     0.00000    -0.94140  0.0
     34     29     30     35   5     0.00000     0.00000     1.25520  0.0
     34     29     30     36   5     0.00000     0.00000     1.25520  0.0
     34     29     30     37   5     0.00000     0.00000     1.25520  0.0
     24     29     31     32   5     0.00000     2.52295     0.00000  0.0
     24     29     31     33   5     0.00000     0.00000     3.34720  0.0
     30     29     31     32   5     0.00000     2.52295     0.00000  0.0
     30     29     31     33   5     0.00000     0.00000     3.07524  0.0
     34     29     31     32   5     0.00000     0.00000     0.00000  0.0
     34     29     31     33   5     0.00000     0.00000     0.00000  0.0
     29     31     33     38   5    13.65239    24.43456     0.00000  0.0
     32     31     33     38   5     0.00000    25.10400     0.00000  0.0
     31     33     38     39   5    -2.16731    -3.93296     0.98324  0.0
     31     33     38     40   5   -15.11679     5.34715     0.30543  0.0
     31     33     38     43   5     0.00000     0.00000     0.67362  0.0
     33     38     39     44   5     0.00000     0.00000     1.95811  0.0
     33     38     39     45   5     0.00000     0.00000     1.95811  0.0
     33     38     39     46   5     0.00000     0.00000     1.95811  0.0
     40     38     39     44   5     0.00000     0.00000    -0.94140  0.0
     40     38     39     45   5     0.00000     0.00000    -0.94140  0.0
     40     38     39     46   5     0.00000     0.00000    -0.94140  0.0
     43     38     39     44   5     0.00000     0.00000     1.25520  0.0
     43     38     39     45   5     0.00000     0.00000     1.25520  0.0
     43     38     39     46   5     0.00000     0.00000     1.25520  0.0
     33     38     40     41   5     0.00000     2.52295     0.00000  0.0
     33     38     40     42   5     0.00000     0.00000     3.34720  0.0
     39     38     40     41   5     0.00000     2.52295     0.00000  0.0
     39     38     40     42   5     0.00000     0.00000     3.07524  0.0
     43     38     40     41   5     0.00000     0.00000     0.00000  0.0
     43     38     40     42   5     0.00000     0.00000     0.00000  0.0
     38     40     42     47   5    13.65239    24.43456     0.00000  0.0
     41     40     42     47   5     0.00000    25.10400     0.00000  0.0
     40     42     47     48   5    -2.16731    -3.93296     0.98324  0.0
     40     42     47     49   5   -15.11679     5.34715     0.30543  0.0
     40     42     47     52   5     0.00000     0.00000     0.67362  0.0
     42     47     48     53   5     0.00000     0.00000     1.95811  0.0
     42     47     48     54   5     0.00000     0.00000     1.95811  0.0
     42     47     48     55   5     0.00000     0.00000     1.95811  0.0
     49     47     48     53   5     0.00000     0.00000    -0.94140  0.0
     49     47     48     54   5     0.00000     0.00000    -0.94140  0.0
     49     47     48     55   5     0.00000     0.00000    -0.94140  0.0
     52     47     48     53   5     0.00000     0.00000     1.25520  0.0
     52     47     48     54   5     0.00000     0.00000     1.25520  0.0
     52     47     48     55   5     0.00000     0.00000     1.25520  0.0
     42     47     49     50   5     0.00000     2.52295     0.00000  0.0
     42     47     49     51   5     0.00000     0.00000     3.34720  0.0
     48     47     49     50   5     0.00000     2.52295     0.00000  0.0
     48     47     49     51   5     0.00000     0.00000     3.07524  0.0
     52     47     49     50   5     0.00000     0.00000     0.00000  0.0
     52     47     49     51   5     0.00000     0.00000     0.00000  0.0
     47     49     51     56   5    13.65239    24.43456     0.00000  0.0
     50     49     51     56   5     0.00000    25.10400     0.00000  0.0
     49     51     56     57   5    -2.16731    -3.93296     0.98324  0.0
     49     51     56     58   5   -15.11679     5.34715     0.30543  0.0
     49     51     56     61   5     0.00000     0.00000     0.67362  0.0
     51     56     57     62   5     0.00000     0.00000     1.95811  0.0
     51     56     57     63   5     0.00000     0.00000     1.95811  0.0
     51     56     57     64   5     0.00000     0.00000     1.95811  0.0
     58     56     57     62   5     0.00000     0.00000    -0.94140  0.0
     58     56     57     63   5     0.00000     0.00000    -0.94140  0.0
     58     56     57     64   5     0.00000     0.00000    -0.94140  0.0
     61     56     57     62   5     0.00000     0.00000     1.25520  0.0
     61     56     57     63   5     0.00000     0.00000     1.25520  0.0
     61     56     57     64   5     0.00000     0.00000     1.25520  0.0
     51     56     58     59   5     0.00000     2.52295     0.00000  0.0
     51     56     58     60   5     0.00000     0.00000     3.34720  0.0
     57     56     58     59   5     0.00000     2.52295     0.00000  0.0
     57     56     58     60   5     0.00000     0.00000     3.07524  0.0
     61     56     58     59   5     0.00000     0.00000     0.00000  0.0
     61     56     58     60   5     0.00000     0.00000     0.00000  0.0
     56     58     60     65   5    13.65239    24.43456     0.00000  0.0
     59     58     60     65   5     0.00000    25.10400     0.00000  0.0
     58     60     65     66   5    -2.16731    -3.93296     0.98324  0.0
     58     60     65     67   5   -15.11679     5.34715     0.30543  0.0
     58     60     65     70   5     0.00000     0.00000     0.67362  0.0
     60     65     66     71   5     0.00000     0.00000     1.95811  0.0
     60     65     66     72   5     0.00000     0.00000     1.95811  0.0
     60     65     66     73   5     0.00000     0.00000     1.95811  0.0
     67     65     66     71   5     0.00000     0.00000    -0.94140  0.0
     67     65     66     72   5     0.00000     0.00000    -0.94140  0.0
     67     65     66     73   5     0.00000     0.00000    -0.94140  0.0
     70     65     66     71   5     0.00000     0.00000     1.25520  0.0
     70     65     66     72   5     0.00000     0.00000     1.25520  0.0
     70     65     66     73   5     0.00000     0.00000     1.25520  0.0
     60     65     67     68   5     0.00000     2.52295     0.00000  0.0
     60     65     67     69   5     0.00000     0.00000     3.34720  0.0
     66     65     67     68   5     0.00000     2.52295     0.00000  0.0
     66     65     67     69   5     0.00000     0.00000     3.07524  0.0
     70     65     67     68   5     0.00000     0.00000     0.00000  0.0
     70     65     67     69   5     0.00000     0.00000     0.00000  0.0
     65     67     69     74   5    13.65239    24.43456     0.00000  0.0
     68     67     69     74   5     0.00000    25.10400     0.00000  0.0
     67     69     74     75   5    -2.16731    -3.93296     0.98324  0.0
     67     69     74     76   5   -15.11679     5.34715     0.30543  0.0
     67     69     74     79   5     0.00000     0.00000     0.67362  0.0
     69     74     75     80   5     0.00000     0.00000     1.95811  0.0
     69     74     75     81   5     0.00000     0.00000     1.95811  0.0
     69     74     75     82   5     0.00000     0.00000     1.95811  0.0
     76     74     75     80   5     0.00000     0.00000    -0.94140  0.0
     76     74     75     81   5     0.00000     0.00000    -0.94140  0.0
     76     74     75     82   5     0.00000     0.00000    -0.94140  0.0
     79     74     75     80   5     0.00000     0.00000     1.25520  0.0
     79     74     75     81   5     0.00000     0.00000     1.25520  0.0
     79     74     75     82   5     0.00000     0.00000     1.25520  0.0
     69     74     76     77   5     0.00000     2.52295     0.00000  0.0
     69     74     76     78   5     0.00000     0.00000     3.34720  0.0
     75     74     76     77   5     0.00000     2.52295     0.00000  0.0
     75     74     76     78   5     0.00000     0.00000     3.07524  0.0
     79     74     76     77   5     0.00000     0.00000     0.00000  0.0
     79     74     76     78   5     0.00000     0.00000     0.00000  0.0
     74     76     78     83   5    13.65239    24.43456     0.00000  0.0
     77     76     78     83   5     0.00000    25.10400     0.00000  0.0
     76     78     83     84   5    -2.16731    -3.93296     0.98324  0.0
     76     78     83     85   5   -15.11679     5.34715     0.30543  0.0
     76     78     83     88   5     0.00000     0.00000     0.67362  0.0
     78     83     84     89   5     0.00000     0.00000     1.95811  0.0
     78     83     84     90   5     0.00000     0.00000     1.95811  0.0
     78     83     84     91   5     0.00000     0.00000     1.95811  0.0
     85     83     84     89   5     0.00000     0.00000    -0.94140  0.0
     85     83     84     90   5     0.00000     0.00000    -0.94140  0.0
     85     83     84     91   5     0.00000     0.00000    -0.94140  0.0
     88     83     84     89   5     0.00000     0.00000     1.25520  0.0
     88     83     84     90   5     0.00000     0.00000     1.25520  0.0
     88     83     84     91   5     0.00000     0.00000     1.25520  0.0
     78     83     85     86   5     0.00000     2.52295     0.00000  0.0
     78     83     85     87   5     0.00000     0.00000     3.34720  0.0
     84     83     85     86   5     0.00000     2.52295     0.00000  0.0
     84     83     85     87   5     0.00000     0.00000     3.07524  0.0
     88     83     85     86   5     0.00000     0.00000     0.00000  0.0
     88     83     85     87   5     0.00000     0.00000     0.00000  0.0
     83     85     87     92   5    13.65239    24.43456     0.00000  0.0
     86     85     87     92   5     0.00000    25.10400     0.00000  0.0
     85     87     92     93   5    -2.16731    -3.93296     0.98324  0.0
     85     87     92     94   5   -15.11679     5.34715     0.30543  0.0
     85     87     92     97   5     0.00000     0.00000     0.67362  0.0
     87     92     93     98   5     0.00000     0.00000     1.95811  0.0
     87     92     93     99   5     0.00000     0.00000     1.95811  0.0
     87     92     93    100   5     0.00000     0.00000     1.95811  0.0
     94     92     93     98   5     0.00000     0.00000    -0.94140  0.0
     94     92     93     99   5     0.00000     0.00000    -0.94140  0.0
     94     92     93    100   5     0.00000     0.00000    -0.94140  0.0
     97     92     93     98   5     0.00000     0.00000     1.25520  0.0
     97     92     93     99   5     0.00000     0.00000     1.25520  0.0
     97     92     93    100   5     0.00000     0.00000     1.25520  0.0
     87     92     94     95   5     0.00000     2.52295     0.00000  0.0
     87     92     94     96   5     0.00000     0.00000     3.34720  0.0
     93     92     94     95   5     0.00000     2.52295     0.00000  0.0
     93     92     94     96   5     0.00000     0.00000     3.07524  0.0
     97     92     94     95   5     0.00000     0.00000     0.00000  0.0
     97     92     94     96   5     0.00000     0.00000     0.00000  0.0
     92     94     96    101   5    13.65239    24.43456     0.00000  0.0
     95     94     96    101   5     0.00000    25.10400     0.00000  0.0
     94     96    101    102   5    -2.16731    -3.93296     0.98324  0.0
     94     96    101    103   5   -15.11679     5.34715     0.30543  0.0
     94     96    101    106   5     0.00000     0.00000     0.67362  0.0
     96    101    102    107   5     0.00000     0.00000     1.95811  0.0
     96    101    102    108   5     0.00000     0.00000     1.95811  0.0
     96    101    102    109   5     0.00000     0.00000     1.95811  0.0
    103    101    102    107   5     0.00000     0.00000    -0.94140  0.0
    103    101    102    108   5     0.00000     0.00000    -0.94140  0.0
    103    101    102    109   5     0.00000     0.00000    -0.94140  0.0
    106    101    102    107   5     0.00000     0.00000     1.25520  0.0
    106    101    102    108   5     0.00000     0.00000     1.25520  0.0
    106    101    102    109   5     0.00000     0.00000     1.25520  0.0
     96    101    103    104   5     0.00000     2.52295     0.00000  0.0
     96    101    103    105   5     0.00000     0.00000     3.34720  0.0
    102    101    103    104   5     0.00000     2.52295     0.00000  0.0
    102    101    103    105   5     0.00000     0.00000     3.07524  0.0
    106    101    103    104   5     0.00000     0.00000     0.00000  0.0
    106    101    103    105   5     0.00000     0.00000     0.00000  0.0
    101    103    105    110   5    13.65239    24.43456     0.00000  0.0
    104    103    105    110   5     0.00000    25.10400     0.00000  0.0
    103    105    110    111   5    -2.16731    -3.93296     0.98324  0.0
    103    105    110    112   5   -15.11679     5.34715     0.30543  0.0
    103    105    110    115   5     0.00000     0.00000     0.67362  0.0
    105    110    111    116   5     0.00000     0.00000     1.95811  0.0
    105    110    111    117   5     0.00000     0.00000     1.95811  0.0
    105    110    111    118   5     0.00000     0.00000     1.95811  0.0
    112    110    111    116   5     0.00000     0.00000    -0.94140  0.0
    112    110    111    117   5     0.00000     0.00000    -0.94140  0.0
    112    110    111    118   5     0.00000     0.00000    -0.94140  0.0
    115    110    111    116   5     0.00000     0.00000     1.25520  0.0
    115    110    111    117   5     0.00000     0.00000     1.25520  0.0
    115    110    111    118   5     0.00000     0.00000     1.25520  0.0
    105    110    112    113   5     0.00000     2.52295     0.00000  0.0
    105    110    112    114   5     0.00000     0.00000     3.34720  0.0
    111    110    112    113   5     0.00000     2.52295     0.00000  0.0
    111    110    112    114   5     0.00000     0.00000     3.07524  0.0
    115    110    112    113   5     0.00000     0.00000     0.00000  0.0
    115    110    112    114   5     0.00000     0.00000     0.00000  0.0
    110    112    114    119   5    13.65239    24.43456     0.00000  0.0
    113    112    114    119   5     0.00000    25.10400     0.00000  0.0
    112    114    119    120   5    -2.16731    -3.93296     0.98324  0.0
    112    114    119    121   5   -15.11679     5.34715     0.30543  0.0
    112    114    119    124   5     0.00000     0.00000     0.67362  0.0
    114    119    120    125   5     0.00000     0.00000     1.95811  0.0
    114    119    120    126   5     0.00000     0.00000     1.95811  0.0
    114    119    120    127   5     0.00000     0.00000     1.95811  0.0
    121    119    120    125   5     0.00000     0.00000    -0.94140  0.0
    121    119    120    126   5     0.00000     0.00000    -0.94140  0.0
    121    119    120    127   5     0.00000     0.00000    -0.94140  0.0
    124    119    120    125   5     0.00000     0.00000     1.25520  0.0
    124    119    120    126   5     0.00000     0.00000     1.25520  0.0
    124    119    120    127   5     0.00000     0.00000     1.25520  0.0
    114    119    121    122   5     0.00000     2.52295     0.00000  0.0
    114    119    121    123   5     0.00000     0.00000     3.34720  0.0
    120    119    121    122   5     0.00000     2.52295     0.00000  0.0
    120    119    121    123   5     0.00000     0.00000     3.07524  0.0
    124    119    121    122   5     0.00000     0.00000     0.00000  0.0
    124    119    121    123   5     0.00000     0.00000     0.00000  0.0
    119    121    123    128   5    13.65239    24.43456     0.00000  0.0
    122    121    123    128   5     0.00000    25.10400     0.00000  0.0
    121    123    128    129   5    -2.16731    -3.93296     0.98324  0.0
    121    123    128    130   5   -15.11679     5.34715     0.30543  0.0
    121    123    128    133   5     0.00000     0.00000     0.67362  0.0
    123    128    129    134   5     0.00000     0.00000     1.95811  0.0
    123    128    129    135   5     0.00000     0.00000     1.95811  0.0
    123    128    129    136   5     0.00000     0.00000     1.95811  0.0
    130    128    129    134   5     0.00000     0.00000    -0.94140  0.0
    130    128    129    135   5     0.00000     0.00000    -0.94140  0.0
    130    128    129    136   5     0.00000     0.00000    -0.94140  0.0
    133    128    129    134   5     0.00000     0.00000     1.25520  0.0
    133    128    129    135   5     0.00000     0.00000     1.25520  0.0
    133    128    129    136   5     0.00000     0.00000     1.25520  0.0
    123    128    130    131   5     0.00000     2.52295     0.00000  0.0
    123    128    130    132   5     0.00000     0.00000     3.34720  0.0
    129    128    130    131   5     0.00000     2.52295     0.00000  0.0
    129    128    130    132   5     0.00000     0.00000     3.07524  0.0
    133    128    130    131   5     0.00000     0.00000     0.00000  0.0
    133    128    130    132   5     0.00000     0.00000     0.00000  0.0
    128    130    132    137   5    13.65239    24.43456     0.00000  0.0
    131    130    132    137   5     0.00000    25.10400     0.00000  0.0
    130    132    137    138   5    -2.16731    -3.93296     0.98324  0.0
    130    132    137    139   5   -15.11679     5.34715     0.30543  0.0
    130    132    137    142   5     0.00000     0.00000     0.67362  0.0
    132    137    138    143   5     0.00000     0.00000     1.95811  0.0
    132    137    138    144   5     0.00000     0.00000     1.95811  0.0
    132    137    138    145   5     0.00000     0.00000     1.95811  0.0
    139    137    138    143   5     0.00000     0.00000    -0.94140  0.0
    139    137    138    144   5     0.00000     0.00000    -0.94140  0.0
    139    137    138    145   5     0.00000     0.00000    -0.94140  0.0
    142    137    138    143   5     0.00000     0.00000     1.25520  0.0
    142    137    138    144   5     0.00000     0.00000     1.25520  0.0
    142    137    138    145   5     0.00000     0.00000     1.25520  0.0
    132    137    139    140   5     0.00000     2.52295     0.00000  0.0
    132    137    139    141   5     0.00000     0.00000     3.34720  0.0
    138    137    139    140   5     0.00000     2.52295     0.00000  0.0
    138    137    139    141   5     0.00000     0.00000     3.07524  0.0
    142    137    139    140   5     0.00000     0.00000     0.00000  0.0
    142    137    139    141   5     0.00000     0.00000     0.00000  0.0
    137    139    141    146   5    13.65239    24.43456     0.00000  0.0
    140    139    141    146   5     0.00000    25.10400     0.00000  0.0
    139    141    146    147   5    -2.16731    -3.93296     0.98324  0.0
    139    141    146    148   5   -15.11679     5.34715     0.30543  0.0
    139    141    146    151   5     0.00000     0.00000     0.67362  0.0
    141    146    147    152   5     0.00000     0.00000     1.95811  0.0
    141    146    147    153   5     0.00000     0.00000     1.95811  0.0
    141    146    147    154   5     0.00000     0.00000     1.95811  0.0
    148    146    147    152   5     0.00000     0.00000    -0.94140  0.0
    148    146    147    153   5     0.00000     0.00000    -0.94140  0.0
    148    146    147    154   5     0.00000     0.00000    -0.94140  0.0
    151    146    147    152   5     0.00000     0.00000     1.25520  0.0
    151    146    147    153   5     0.00000     0.00000     1.25520  0.0
    151    146    147    154   5     0.00000     0.00000     1.25520  0.0
    141    146    148    149   5     0.00000     2.52295     0.00000  0.0
    141    146    148    150   5     0.00000     0.00000     3.34720  0.0
    147    146    148    149   5     0.00000     2.52295     0.00000  0.0
    147    146    148    150   5     0.00000     0.00000     3.07524  0.0
    151    146    148    149   5     0.00000     0.00000     0.00000  0.0
    151    146    148    150   5     0.00000     0.00000     0.00000  0.0
    146    148    150    155   5    13.65239    24.43456     0.00000  0.0
    149    148    150    155   5     0.00000    25.10400     0.00000  0.0
    148    150    155    156   5    -2.16731    -3.93296     0.98324  0.0
    148    150    155    157   5   -15.11679     5.34715     0.30543  0.0
    148    150    155    160   5     0.00000     0.00000     0.67362  0.0
    150    155    156    161   5     0.00000     0.00000     1.95811  0.0
    150    155    156    162   5     0.00000     0.00000     1.95811  0.0
    150    155    156    163   5     0.00000     0.00000     1.95811  0.0
    157    155    156    161   5     0.00000     0.00000    -0.94140  0.0
    157    155    156    162   5     0.00000     0.00000    -0.94140  0.0
    157    155    156    163   5     0.00000     0.00000    -0.94140  0.0
    160    155    156    161   5     0.00000     0.00000     1.25520  0.0
    160    155    156    162   5     0.00000     0.00000     1.25520  0.0
    160    155    156    163   5     0.00000     0.00000     1.25520  0.0
    150    155    157    158   5     0.00000     2.52295     0.00000  0.0
    150    155    157    159   5     0.00000     0.00000     3.34720  0.0
    156    155    157    158   5     0.00000     2.52295     0.00000  0.0
    156    155    157    159   5     0.00000     0.00000     3.07524  0.0
    160    155    157    158   5     0.00000     0.00000     0.00000  0.0
    160    155    157    159   5     0.00000     0.00000     0.00000  0.0
    155    157    159    164   5    13.65239    24.43456     0.00000  0.0
    158    157    159    164   5     0.00000    25.10400     0.00000  0.0
    157    159    164    165   5    -2.16731    -3.93296     0.98324  0.0
    157    159    164    166   5   -15.11679     5.34715     0.30543  0.0
    157    159    164    169   5     0.00000     0.00000     0.67362  0.0
    159    164    165    170   5     0.00000     0.00000     1.95811  0.0
    159    164    165    171   5     0.00000     0.00000     1.95811  0.0
    159    164    165    172   5     0.00000     0.00000     1.95811  0.0
    166    164    165    170   5     0.00000     0.00000    -0.94140  0.0
    166    164    165    171   5     0.00000     0.00000    -0.94140  0.0
    166    164    165    172   5     0.00000     0.00000    -0.94140  0.0
    169    164    165    170   5     0.00000     0.00000     1.25520  0.0
    169    164    165    171   5     0.00000     0.00000     1.25520  0.0
    169    164    165    172   5     0.00000     0.00000     1.25520  0.0
    159    164    166    167   5     0.00000     2.52295     0.00000  0.0
    159    164    166    168   5     0.00000     0.00000     3.34720  0.0
    165    164    166    167   5     0.00000     2.52295     0.00000  0.0
    165    164    166    168   5     0.00000     0.00000     3.07524  0.0
    169    164    166    167   5     0.00000     0.00000     0.00000  0.0
    169    164    166    168   5     0.00000     0.00000     0.00000  0.0
    164    166    168    173   5    13.65239    24.43456     0.00000  0.0
    167    166    168    173   5     0.00000    25.10400     0.00000  0.0
    166    168    173    174   5    -2.16731    -3.93296     0.98324  0.0
    166    168    173    175   5   -15.11679     5.34715     0.30543  0.0
    166    168    173    178   5     0.00000     0.00000     0.67362  0.0
    168    173    174    179   5     0.00000     0.00000     1.95811  0.0
    168    173    174    180   5     0.00000     0.00000     1.95811  0.0
    168    173    174    181   5     0.00000     0.00000     1.95811  0.0
    175    173    174    179   5     0.00000     0.00000    -0.94140  0.0
    175    173    174    180   5     0.00000     0.00000    -0.94140  0.0
    175    173    174    181   5     0.00000     0.00000    -0.94140  0.0
    178    173    174    179   5     0.00000     0.00000     1.25520  0.0
    178    173    174    180   5     0.00000     0.00000     1.25520  0.0
    178    173    174    181   5     0.00000     0.00000     1.25520  0.0
    168    173    175    176   5     0.00000     2.52295     0.00000  0.0
    168    173    175    177   5     0.00000     0.00000    33.47200  0.0
    174    173    175    176   5     0.00000     2.52295     0.00000  0.0
    174    173    175    177   5     4.18400     2.28446     1.88280  0.0
    178    173    175    176   5     0.00000     0.00000     0.00000  0.0
    178    173    175    177   5     0.00000     0.00000     0.00000  0.0
    173    175    177    182   5    12.55200    20.50160     0.00000  0.0
    176    175    177    182   5     7.71530    31.30469     0.00000  0.0

[ dihedrals ]
; Improper dihedrals
; h   i   j   k   funct
      1      4      3      5   5     0.00000    87.86400     0.00000  0.0
     11     14     13     15   5     0.00000    87.86400     0.00000  0.0
     20     23     22     24   5     0.00000    87.86400     0.00000  0.0
     29     32     31     33   5     0.00000    87.86400     0.00000  0.0
     38     41     40     42   5     0.00000    87.86400     0.00000  0.0
     47     50     49     51   5     0.00000    87.86400     0.00000  0.0
     56     59     58     60   5     0.00000    87.86400     0.00000  0.0
     65     68     67     69   5     0.00000    87.86400     0.00000  0.0
     74     77     76     78   5     0.00000    87.86400     0.00000  0.0
     83     86     85     87   5     0.00000    87.86400     0.00000  0.0
     92     95     94     96   5     0.00000    87.86400     0.00000  0.0
    101    104    103    105   5     0.00000    87.86400     0.00000  0.0
    110    113    112    114   5     0.00000    87.86400     0.00000  0.0
    119    122    121    123   5     0.00000    87.86400     0.00000  0.0
    128    131    130    132   5     0.00000    87.86400     0.00000  0.0
    137    140    139    141   5     0.00000    87.86400     0.00000  0.0
    146    149    148    150   5     0.00000    87.86400     0.00000  0.0
    155    158    157    159   5     0.00000    87.86400     0.00000  0.0
    164    167    166    168   5     0.00000    87.86400     0.00000  0.0
    173    176    175    177   5     0.00000    87.86400     0.00000  0.0
