Control file title. For DL_FIELD 4.10
49852
    1MOL     O1    1   4.103   5.709   0.755  0.3484  0.1002 -0.2587
    1MOL     C2    2   4.002   5.795   0.705  0.0503 -0.4351  0.1720
    1MOL     C3    3   4.059   5.927   0.654  0.2602  0.8092  0.1782
    1MOL     C4    4   3.917   5.725   0.591 -0.0670 -0.5149  0.7822
    1MOL     C5    5   3.778   5.778   0.556  0.1818  0.1281 -0.2897
    1MOL     O6    6   3.711   5.848   0.636 -0.1397 -0.0785  0.7766
    1MOL     H7    7   3.934   5.818   0.787 -1.5213 -0.6940 -1.0182
    1MOL     H8    8   4.136   5.971   0.718  0.8549 -0.8413  0.6091
    1MOL     H9    9   3.978   6.000   0.649  0.2420  0.7900  0.1895
    1MOL    H10   10   4.100   5.905   0.556  1.6657 -2.6264  1.4734
    1MOL    H11   11   3.891   5.626   0.627 -2.0445  0.3323  1.8034
    1MOL    H12   12   3.984   5.710   0.506 -0.6084  2.7205 -0.2858
    1MOL    H13   13   4.066   5.623   0.769 -2.6375  1.5526  1.4654
    1MOL    O14   14   3.742   5.766   0.429  0.1147 -0.4205  0.5396
    1MOL    C15   15   3.629   5.830   0.369  0.3355 -0.7466  0.6075
    1MOL    C16   16   3.682   5.882   0.238  0.2159 -0.0900  0.4927
    1MOL    C17   17   3.513   5.720   0.364  0.2830 -0.9622 -0.0243
    1MOL    C18   18   3.389   5.763   0.291  0.2799 -0.5342  0.6219
    1MOL    O19   19   3.384   5.769   0.168  0.0872 -0.0521 -0.7648
    1MOL    H20   20   3.596   5.912   0.432  3.1167  1.4102 -0.6551
    1MOL    H21   21   3.780   5.927   0.248  0.7109 -0.7140 -1.4260
    1MOL    H22   22   3.603   5.948   0.201  1.3710  1.3351  0.5414
    1MOL    H23   23   3.691   5.801   0.165  0.5400  0.4393 -0.0528
    1MOL    H24   24   3.478   5.685   0.461  0.2205 -4.2987 -1.2006
    1MOL    H25   25   3.562   5.638   0.311 -1.4515  0.5710 -4.1758
    1MOL    O26   26   3.303   5.810   0.369  0.3966 -0.3066  0.2491
    1MOL    C27   27   3.187   5.873   0.319  0.1207  0.6428 -1.0006
    1MOL    C28   28   3.070   5.772   0.323  0.3289 -0.3467  0.1761
    1MOL    C29   29   3.166   6.001   0.400 -0.1522 -0.1084  0.0005
    1MOL    C30   30   3.060   6.093   0.339 -0.0279  0.8000  0.5554
    1MOL    O31   31   2.958   6.133   0.394  0.0503 -1.2551  0.1127
    1MOL    H32   32   3.197   5.903   0.214 -1.9312  1.1458 -1.0819
    1MOL    H33   33   2.983   5.829   0.287  0.5707 -0.6233 -0.8643
    1MOL    H34   34   3.047   5.738   0.424 -0.3017  0.2490  0.2434
    1MOL    H35   35   3.085   5.696   0.247  0.4482 -2.6159  2.4102
    1MOL    H36   36   3.258   6.059   0.401 -0.1337 -0.1403  0.3537
    1MOL    H37   37   3.138   5.972   0.502 -1.9404 -1.0920 -0.7401
    1MOL    O38   38   3.081   6.119   0.210 -0.2063  0.1959 -0.0127
    1MOL    C39   39   2.978   6.185   0.130  0.0809 -0.5217  0.0638
    1MOL    C40   40   3.053   6.279   0.036 -0.0718 -0.5183  0.2144
    1MOL    C41   41   2.887   6.084   0.060 -0.3004  0.4757  0.2479
    1MOL    C42   42   2.759   6.144   0.000  0.3612  0.4737  0.0825
    1MOL    O43   43   2.763   6.239   7.899  0.0919 -1.0225 -0.1033
    1MOL    H44   44   2.929   6.254   0.199  0.0700 -1.2243  0.7648
    1MOL    H45   45   3.138   6.323   0.089 -0.3903  2.0417 -1.3560
    1MOL    H46   46   2.981   6.353   0.004  2.1901  0.7343 -2.1468
    1MOL    H47   47   3.086   6.227   7.926 -1.6605  2.0400 -1.8968
    1MOL    H48   48   2.864   5.994   0.117 -0.2953 -0.4158 -1.1357
    1MOL    H49   49   2.954   6.041   7.965  0.9093  0.2696  1.4231
    1MOL    O50   50   2.645   6.088   0.048  0.9638 -0.0252  0.0487
    1MOL    C51   51   2.514   6.125   7.979  0.3707 -0.5291  0.2581
    1MOL    C52   52   2.475   6.038   7.855 -0.0184  0.2208 -0.1551
    1MOL    C53   53   2.418   6.125   0.114 -0.1702 -0.2432 -0.3895
    1MOL    C54   54   2.389   5.993   0.183  0.8255 -0.2531 -0.0163
    1MOL    O55   55   2.282   5.938   0.179  0.0233  0.4410 -0.4617
    1MOL    H56   56   2.512   6.226   7.938  2.7224 -0.2196  0.8366
    1MOL    H57   57   2.488   5.931   7.870 -0.9496  0.0767 -0.3937
    1MOL    H58   58   2.533   6.065   7.767 -0.2329  0.1690 -0.3116
    1MOL    H59   59   2.371   6.049   7.825  0.1785 -1.1620 -1.3717
    1MOL    H60   60   2.317   6.160   0.093  0.7609  2.9724  0.2444
    1MOL    H61   61   2.456   6.192   0.191 -2.6360 -0.5947  1.1961
    1MOL    O62   62   2.486   5.967   0.282 -0.3930 -0.1701  0.3665
    1MOL    C63   63   2.496   5.837   0.340 -0.0257  0.8817  0.7480
    1MOL    C64   64   2.636   5.770   0.329  0.5553  0.3803 -0.1206
    1MOL    C65   65   2.446   5.836   0.484 -0.1337 -0.7796  0.5597
    1MOL    C66   66   2.534   5.927   0.567  0.0474  0.4260  0.8544
    1MOL    O67   67   2.627   5.885   0.622  0.5368 -0.6177 -0.5840
    1MOL    H68   68   2.429   5.768   0.289  0.0140 -0.1582  2.0721
    1MOL    H69   69   2.665   5.730   0.232  1.1418  2.2249 -0.7050
    1MOL    H70   70   2.632   5.694   0.408  0.3872  1.2654  0.7285
    1MOL    H71   71   2.717   5.836   0.358 -1.2593  2.3637  0.5737
    1MOL    H72   72   2.455   5.735   0.523  2.5539 -0.6239  0.4451
    1MOL    H73   73   2.340   5.863   0.491  0.0908 -0.3610  2.5530
    1MOL    O74   74   2.505   6.059   0.559 -1.0206 -0.7804 -0.2535
    1MOL    C75   75   2.568   6.167   0.633  0.2637 -0.5289 -0.3344
    1MOL    C76   76   2.697   6.187   0.569  0.2392  0.7320  0.3970
    1MOL    C77   77   2.477   6.293   0.621  0.1188  0.1765  0.1129
    1MOL    C78   78   2.524   6.393   0.729  0.6125  0.3422 -0.4028
    1MOL    O79   79   2.575   6.353   0.838  0.4601 -0.8709  0.2158
    1MOL    H80   80   2.576   6.138   0.738  1.9156  0.3848 -0.1848
    1MOL    H81   81   2.753   6.095   0.552  0.0502  0.9059 -1.2555
    1MOL    H82   82   2.775   6.234   0.629  0.9298  1.0362 -0.7305
    1MOL    H83   83   2.682   6.233   0.471  0.6040 -0.5302 -0.2565
    1MOL    H84   84   2.376   6.257   0.642  0.4001  0.1410  1.4505
    1MOL    H85   85   2.475   6.341   0.524  2.0126  0.3825  0.1682
    1MOL    O86   86   2.506   6.524   0.702  0.2090  0.4037 -0.4784
    1MOL    C87   87   2.520   6.626   0.805  0.2871  0.1591  0.2287
    1MOL    C88   88   2.639   6.718   0.779  0.5139  0.0304  0.3138
    1MOL    C89   89   2.390   6.697   0.799 -0.5825  0.6062  0.3431
    1MOL    C90   90   2.351   6.770   0.931 -1.2740  0.9402  0.2422
    1MOL    O91   91   2.370   6.888   0.953 -0.1291 -0.1560  0.1667
    1MOL    H92   92   2.532   6.586   0.906  0.6703  1.6868  0.8012
    1MOL    H93   93   2.640   6.755   0.677 -1.3251 -0.1662  0.1958
    1MOL    H94   94   2.724   6.653   0.796  0.0169 -1.2384 -1.9089
    1MOL    H95   95   2.650   6.802   0.847  0.4038 -1.3324  2.0733
    1MOL    H96   96   2.310   6.623   0.795 -0.9414  1.0602 -1.0150
    1MOL    H97   97   2.370   6.756   0.710 -1.1910 -0.5128 -0.2710
    1MOL    O98   98   2.287   6.688   1.017  0.4026  0.2720  0.2120
    1MOL    C99   99   2.271   6.718   1.150  0.0270 -0.2116 -0.3787
    1MOL   C100  100   2.132   6.672   1.196 -0.0068  0.1200 -0.1052
    1MOL   C101  101   2.380   6.640   1.228 -0.1254 -0.8899 -0.5897
    1MOL   C102  102   2.406   6.686   1.373  0.5971 -0.4971  0.4711
    1MOL   O103  103   2.362   6.789   1.418  0.0082  0.5444 -0.7435
    1MOL   H104  104   2.270   6.823   1.177  0.1684 -0.2075 -0.3907
    1MOL   H105  105   2.109   6.568   1.174  0.0359 -0.0902  0.8147
    1MOL   H106  106   2.056   6.732   1.145 -0.5091 -1.1429 -0.8594
    1MOL   H107  107   2.116   6.673   1.304 -1.2951 -0.3026 -0.2812
    1MOL   H108  108   2.474   6.652   1.175 -0.9995  1.4780 -1.6629
    1MOL   H109  109   2.359   6.533   1.217 -0.5274 -0.6699 -2.1656
    1MOL   O110  110   2.482   6.602   1.442 -0.1176  0.1013  0.1463
    1MOL   C111  111   2.546   6.641   1.565  0.0837  0.1426 -0.1414
    1MOL   C112  112   2.599   6.521   1.641 -0.6696 -0.2868  0.2352
    1MOL   C113  113   2.649   6.762   1.556  0.4348  0.0347  0.4802
    1MOL   C114  114   2.793   6.724   1.492  0.3384  1.0826 -0.2335
    1MOL   O115  115   2.810   6.644   1.402 -0.3553  0.2760  0.2057
    1MOL   H116  116   2.457   6.674   1.619  0.3710 -0.3941  0.6707
    1MOL   H117  117   2.667   6.465   1.577 -2.6677 -0.6373 -1.6504
    1MOL   H118  118   2.517   6.456   1.672 -1.6601  0.5952 -0.4882
    1MOL   H119  119   2.657   6.546   1.730 -1.8515  1.3396  0.5700
    1MOL   H120  120   2.666   6.797   1.658 -0.2892 -1.2330  1.0436
    1MOL   H121  121   2.607   6.847   1.502  0.9097  1.6612  2.6207
    1MOL   O122  122   2.894   6.778   1.558 -0.1947 -0.6712  0.3804
    1MOL   C123  123   3.032   6.750   1.513  0.4286  0.1118 -0.9064
    1MOL   C124  124   3.089   6.878   1.446  0.0237  0.3936 -0.1396
    1MOL   C125  125   3.115   6.714   1.638 -0.3967  0.5241  0.2907
    1MOL   C126  126   3.109   6.561   1.682  0.0258  0.4102  0.6053
    1MOL   O127  127   3.190   6.514   1.752  0.2175 -0.3868 -0.5160
    1MOL   H128  128   3.041   6.665   1.446  2.0227 -0.6595  0.2524
    1MOL   H129  129   3.180   6.847   1.395 -0.6349 -3.0749  0.6469
    1MOL   H130  130   3.094   6.953   1.525 -1.0329  0.6645 -0.3189
    1MOL   H131  131   3.017   6.919   1.376  2.1410  1.7377 -1.5706
    1MOL   H132  132   3.083   6.767   1.728  0.0053 -0.7905  1.2260
    1MOL   H133  133   3.220   6.737   1.622 -0.9285  3.2017  0.4699
    1MOL   O134  134   3.019   6.483   1.616 -0.4857 -0.2558  0.4430
    1MOL   C135  135   3.002   6.346   1.642 -0.7349 -0.4791 -0.1271
    1MOL   C136  136   2.930   6.314   1.776 -0.2368  0.3027 -0.6040
    1MOL   C137  137   2.948   6.283   1.517  0.1555  0.4450  0.2333
    1MOL   C138  138   2.991   6.141   1.508 -0.1693  0.4194 -0.2387
    1MOL   O139  139   3.057   6.083   1.592  0.1094  0.6076 -0.0907
    1MOL   H140  140   3.104   6.310   1.650 -0.5075  0.3580  0.8441
    1MOL   H141  141   2.825   6.334   1.759  0.0164  0.1979 -2.4484
    1MOL   H142  142   2.973   6.361   1.865  0.0009 -0.5243 -0.2788
    1MOL   H143  143   2.938   6.208   1.802  1.8170  0.6866  0.4823
    1MOL   H144  144   2.990   6.332   1.429  1.1265  0.0438  0.4665
    1MOL   H145  145   2.839   6.284   1.518  0.1576  0.7771  1.4538
    1MOL   O146  146   2.933   6.084   1.402 -0.2339 -0.4753  0.1649
    1MOL   C147  147   2.951   5.941   1.376 -0.1105  0.4932  0.5235
    1MOL   C148  148   2.827   5.874   1.436 -0.5386 -0.3366 -0.0263
    1MOL   C149  149   2.970   5.916   1.223 -0.2072  0.8791  0.0879
    1MOL   C150  150   2.964   5.767   1.176 -0.4019  0.5211 -0.1592
    1MOL   O151  151   2.861   5.716   1.126 -0.1884  0.1286 -0.0588
    1MOL   H152  152   3.045   5.909   1.421  0.5945  4.8623  2.4252
    1MOL   H153  153   2.850   5.768   1.442 -1.0298 -0.4537 -0.2283
    1MOL   H154  154   2.737   5.888   1.378  0.2921 -2.2870 -1.8281
    1MOL   H155  155   2.790   5.905   1.534 -1.4286 -2.1849  0.2303
    1MOL   H156  156   3.063   5.962   1.191  1.1757  0.3320  3.1030
    1MOL   H157  157   2.889   5.965   1.169 -1.2615  0.9155  1.6573
    1MOL   O158  158   3.080   5.703   1.198 -0.1845 -0.2363 -0.2361
    1MOL   C159  159   3.100   5.561   1.170 -0.3119  0.5746  0.0834
    1MOL   C160  160   3.224   5.548   1.084  0.2557  0.3365  0.9191
    1MOL   C161  161   3.107   5.488   1.306 -0.8665 -0.1696 -0.2674
    1MOL   C162  162   2.979   5.472   1.386  0.2276 -0.5164  0.1087
    1MOL   O163  163   2.986   5.467   1.507 -0.4447 -0.4506 -0.7214
    1MOL   H164  164   3.018   5.530   1.105 -2.3890  0.5484  2.6582
    1MOL   H165  165   3.246   5.452   1.037  2.5305  0.8293  0.9467
    1MOL   H166  166   3.313   5.580   1.137 -1.0744  2.0013  2.2159
    1MOL   H167  167   3.225   5.612   0.995 -0.0579  1.3597  1.6383
    1MOL   H168  168   3.184   5.527   1.372 -1.0860  1.1707 -0.7836
    1MOL   H169  169   3.137   5.384   1.291  1.0220  0.2351  0.6336
    1MOL   O170  170   2.869   5.462   1.306  0.0225  0.2521  0.2922
    1MOL   C171  171   2.752   5.417   1.378  0.4867  0.2182  0.2651
    1MOL   C172  172   2.646   5.516   1.331  0.2705  0.5935 -0.1965
    1MOL   C173  173   2.732   5.272   1.353  0.9255  0.9217  0.0467
    1MOL   C174  174   2.600   5.201   1.410 -0.4057  0.4745  0.1444
    1MOL   O175  175   2.602   5.088   1.452 -0.5283 -0.1447 -0.4149
    1MOL   H176  176   2.763   5.427   1.486 -0.3548 -1.1836  0.4947
    1MOL   H177  177   2.627   5.507   1.224 -0.7142  0.7770 -0.0432
    1MOL   H178  178   2.674   5.619   1.354 -0.5199  0.5475  1.0383
    1MOL   H179  179   2.550   5.503   1.382  0.7656  0.8848  0.8158
    1MOL   H180  180   2.810   5.220   1.408  0.4388  0.4714  0.3235
    1MOL   H181  181   2.747   5.230   1.253  1.6242 -3.5909  1.8991
    1MOL   O182  182   2.490   5.277   1.398 -0.5266 -0.1478 -0.4101
    1MOL   C183  183   2.356   5.234   1.430 -0.0467  0.1808  0.5883
    1MOL   C184  184   2.296   5.302   1.561  0.9044 -0.0411  0.4552
    1MOL   C185  185   2.257   5.271   1.310  0.2163  0.4462  0.7183
    1MOL   C186  186   2.275   5.182   1.185  0.1102  0.0534 -0.0464
    1MOL   O187  187   2.214   5.204   1.076  0.2679  0.7992 -0.4728
    1MOL   H188  188   2.356   5.128   1.455  1.5885  0.1683  0.5761
    1MOL   H189  189   2.215   5.237   1.595 -0.5238  1.9889  1.0187
    1MOL   H190  190   2.254   5.402   1.554  0.5366 -0.2203  0.1090
    1MOL   H191  191   2.372   5.313   1.638  2.7288  1.0290 -1.4537
    1MOL   H192  192   2.279   5.377   1.294  0.6827  0.2023 -0.3127
    1MOL   H193  193   2.150   5.261   1.329 -0.1915  0.2878 -1.5293
    1MOL   O194  194   2.382   5.094   1.196  0.0267 -0.0206 -0.7353
    1MOL   C195  195   2.409   4.992   1.102 -0.4338  0.1021 -0.6325
    1MOL   C196  196   2.544   4.995   1.040 -0.1974  0.2242  0.3991
    1MOL   C197  197   2.409   4.866   1.188 -0.5619  0.0498  0.7002
    1MOL   C198  198   2.275   4.831   1.244 -0.3068 -0.0024  0.6198
    1MOL   O199  199   2.179   4.813   1.168 -0.2777  0.0710  0.0224
    1MOL   H200  200   2.327   4.985   1.031  0.8309 -2.6482 -1.9112
    1MOL   H201  201   2.614   5.012   1.122  0.5614  0.3259 -0.2668
    1MOL   H202  202   2.556   5.072   0.964  0.2046 -1.0451 -0.8418
    1MOL   H203  203   2.554   4.899   0.989 -2.6715  0.5367 -0.7477
    1MOL   H204  204   2.470   4.878   1.277 -1.5087 -0.1289  1.3849
    1MOL   H205  205   2.437   4.786   1.119 -2.0466 -1.0066  1.2902
    1MOL   O206  206   2.279   4.836   1.377 -0.2930  0.0349  0.3671
    1MOL   C207  207   2.165   4.805   1.461  0.7933  0.7559  0.2640
    1MOL   C208  208   2.205   4.726   1.589 -0.2688 -0.6551 -0.0891
    1MOL   C209  209   2.090   4.938   1.491 -0.1112 -0.4838 -0.3195
    1MOL   C210  210   1.965   4.961   1.403  0.0255  0.1485  0.0088
    1MOL   O211  211   1.860   4.899   1.429 -0.1976  0.1737 -0.3271
    1MOL   H212  212   2.103   4.739   1.401 -2.0625  2.2386  1.4772
    1MOL   H213  213   2.278   4.646   1.575  0.4720  0.3812 -2.4122
    1MOL   H214  214   2.130   4.675   1.648 -2.6259  1.9860 -0.7029
    1MOL   H215  215   2.263   4.799   1.645  0.6439 -0.9541 -0.6249
    1MOL   H216  216   2.159   5.022   1.499  0.7499 -1.0930 -1.2542
    1MOL   H217  217   2.048   4.943   1.592 -0.4476  0.7860 -0.5101
    1MOL   O218  218   1.989   5.036   1.296  0.4143  0.6244  0.4052
    1MOL   C219  219   1.893   5.072   1.195 -0.3566  0.4686 -0.7699
    1MOL   C220  220   1.875   5.223   1.213 -0.7864 -0.2745 -0.4202
    1MOL   C221  221   1.954   5.027   1.059 -0.1773 -0.3549  0.1585
    1MOL   C222  222   1.909   4.887   1.013 -0.0123 -0.4558 -0.0049
    1MOL   O223  223   1.811   4.827   1.062 -0.1413 -0.1350  0.4336
    1MOL   H224  224   1.793   5.030   1.208 -0.3795  0.4601 -0.9721
    1MOL   H225  225   1.793   5.262   1.152 -2.0885  0.8257  1.9526
    1MOL   H226  226   1.964   5.263   1.165 -0.0971 -0.6972  0.4976
    1MOL   H227  227   1.862   5.264   1.313  1.3753 -1.9541  0.5802
    1MOL   H228  228   2.063   5.028   1.055 -0.1838  2.6979 -0.7082
    1MOL   H229  229   1.918   5.100   0.986  2.5296  1.2937  0.3696
    1MOL   O230  230   1.991   4.832   0.927  0.0029  0.7004  0.2926
    1MOL   C231  231   1.987   4.697   0.874 -0.3625 -0.1190 -0.1488
    1MOL   C232  232   1.946   4.689   0.726  0.0653  0.0694  0.0588
    1MOL   C233  233   2.120   4.627   0.901 -0.4725 -0.1817  0.3464
    1MOL   C234  234   2.239   4.696   0.833  0.4271  0.1452  0.4640
    1MOL   O235  235   2.355   4.681   0.871  0.9105  0.0855  0.0962
    1MOL   H236  236   1.924   4.649   0.948  0.3749  0.7060  1.0359
    1MOL   H237  237   1.948   4.587   0.687  1.9707 -0.2757  0.9763
    1MOL   H238  238   2.014   4.747   0.662  0.0615  0.6405  0.5623
    1MOL   H239  239   1.845   4.728   0.726 -0.3648 -0.9814  1.9943
    1MOL   H240  240   2.112   4.528   0.854  0.0442 -0.9539  1.8616
    1MOL   H241  241   2.148   4.601   1.003  0.2422 -1.5132 -0.1660
    1MOL   H242  242   2.212   4.755   0.746 -0.1687 -1.1289 -0.2339
    2MOL     O1  243   0.302   4.365   1.388 -0.6217  0.0973 -0.4067
    2MOL     C2  244   0.327   4.476   1.302  0.1168 -0.1644  0.1926
    2MOL     C3  245   0.203   4.571   1.322 -0.1927 -0.2057 -0.1973
    2MOL     C4  246   0.462   4.544   1.344  0.5258  0.1663 -0.3694
    2MOL     C5  247   0.507   4.654   1.247 -0.2078  0.2341 -0.0946
    2MOL     O6  248   0.467   4.771   1.263  0.4566 -0.2701 -0.0581
    2MOL     H7  249   0.338   4.445   1.198 -1.8293  1.9228 -0.6695
    2MOL     H8  250   0.153   4.549   1.416  1.3195  0.6675  0.8346
    2MOL     H9  251   0.127   4.563   1.245 -2.8646  0.2469  2.3015
    2MOL    H10  252   0.231   4.676   1.323  0.0463 -0.2747  1.9395
    2MOL    H11  253   0.543   4.473   1.327 -0.5433 -1.3590  0.8032
    2MOL    H12  254   0.459   4.585   1.445 -0.9190 -0.3526 -0.1909
    2MOL    H13  255   0.370   4.304   1.364 -0.2483  1.0808 -1.9493
    2MOL    O14  256   0.590   4.617   1.154  0.2125  0.1333  0.1177
    2MOL    C15  257   0.644   4.706   1.059 -0.2969 -0.9619 -0.3574
    2MOL    C16  258   0.788   4.673   1.038 -0.0867  0.5812 -0.1573
    2MOL    C17  259   0.559   4.726   0.931  0.5626 -0.5869  0.0266
    2MOL    C18  260   0.500   4.600   0.870  0.3976 -0.2628  0.8666
    2MOL    O19  261   0.508   4.488   0.923  0.3260 -0.0204 -0.2675
    2MOL    H20  262   0.649   4.803   1.109 -2.4849  0.1464 -2.2104
    2MOL    H21  263   0.804   4.575   0.994  2.5273  2.6364 -4.1240
    2MOL    H22  264   0.843   4.679   1.132  0.1862 -2.2640 -0.1007
    2MOL    H23  265   0.822   4.751   0.969  2.3017  4.3131  4.9020
    2MOL    H24  266   0.607   4.783   0.852 -0.6313  0.8779  0.3289
    2MOL    H25  267   0.473   4.785   0.963  0.1431 -2.0213  1.6149
    2MOL    O26  268   0.438   4.629   0.754 -0.1418 -0.5681 -0.1155
    2MOL    C27  269   0.386   4.530   0.668 -0.4535 -0.6220  0.1482
    2MOL    C28  270   0.243   4.503   0.710 -0.1768 -0.1885 -0.0851
    2MOL    C29  271   0.394   4.580   0.520  0.4469  0.3579  0.1374
    2MOL    C30  272   0.369   4.466   0.416 -0.0285  0.6023  0.6360
    2MOL    O31  273   0.271   4.389   0.425 -0.0406 -0.5304  0.2801
    2MOL    H32  274   0.450   4.444   0.682 -0.4921 -0.4909  1.1107
    2MOL    H33  275   0.234   4.492   0.818 -1.1754 -0.3355 -0.1806
    2MOL    H34  276   0.211   4.409   0.664 -3.6757  1.6104 -1.5365
    2MOL    H35  277   0.176   4.584   0.681 -1.8211 -1.3019  0.5201
    2MOL    H36  278   0.491   4.627   0.502 -1.1175  3.5284 -0.5104
    2MOL    H37  279   0.316   4.656   0.514  2.4666  2.3884 -1.3427
    2MOL    O38  280   0.464   4.467   0.319 -0.3185  0.1250  0.8218
    2MOL    C39  281   0.464   4.379   0.205 -0.0152 -0.6503 -0.0290
    2MOL    C40  282   0.529   4.454   0.088 -1.1122 -0.0995 -0.1434
    2MOL    C41  283   0.529   4.251   0.263 -0.6997 -0.5555 -0.6587
    2MOL    C42  284   0.565   4.147   0.153  0.4184  0.9157  0.3207
    2MOL    O43  285   0.675   4.100   0.142 -0.5731 -0.8918  0.1824
    2MOL    H44  286   0.364   4.345   0.179  0.3846 -2.6107  0.8478
    2MOL    H45  287   0.638   4.447   0.084 -1.2361 -0.8079 -3.0416
    2MOL    H46  288   0.504   4.559   0.106 -2.3999 -0.5733  0.8680
    2MOL    H47  289   0.490   4.426   7.970 -1.4125 -0.6917  0.1474
    2MOL    H48  290   0.485   4.212   0.355  1.4126 -0.0230  0.5902
    2MOL    H49  291   0.627   4.289   0.290 -0.6612 -0.5906 -0.7500
    2MOL    O50  292   0.459   4.128   0.066 -0.0754 -0.0319 -0.2236
    2MOL    C51  293   0.466   4.032   7.944 -0.3188 -0.4610 -0.8436
    2MOL    C52  294   0.330   3.970   7.927 -0.1436 -0.1167 -0.0713
    2MOL    C53  295   0.526   4.097   7.812 -0.6093 -0.8766 -0.0203
    2MOL    C54  296   0.435   4.183   7.719 -0.4439  0.0881  0.8790
    2MOL    O55  297   0.422   4.153   7.600  0.2903 -0.2287 -0.6231
    2MOL    H56  298   0.536   3.951   7.968  0.4386 -0.8229 -4.0314
    2MOL    H57  299   0.297   3.938   0.046  2.1215  2.2093  1.4879
    2MOL    H58  300   0.325   3.877   7.870 -0.0368 -0.4944  0.5312
    2MOL    H59  301   0.261   4.051   7.903 -0.0449 -0.1530 -0.4735
    2MOL    H60  302   0.573   4.022   7.748  1.9861  1.1873 -0.6334
    2MOL    H61  303   0.607   4.164   7.843 -2.5673  1.2904  0.5806
    2MOL    O62  304   0.388   4.286   7.787 -0.5565 -0.0984 -0.4444
    2MOL    C63  305   0.282   4.369   7.737 -0.2559  0.1168 -0.1123
    2MOL    C64  306   0.207   4.437   7.856  0.1896 -0.1284 -0.2716
    2MOL    C65  307   0.340   4.475   7.637 -0.1916 -0.2386  0.3347
    2MOL    C66  308   0.242   4.553   7.542 -0.0442  0.2511  0.0374
    2MOL    O67  309   0.254   4.558   7.419 -0.3548  0.2620 -0.0355
    2MOL    H68  310   0.213   4.300   7.688  1.2192  0.5324 -2.9165
    2MOL    H69  311   0.288   4.501   7.891 -0.2360  2.2598 -3.4393
    2MOL    H70  312   0.168   4.372   7.934 -0.9795  0.3704 -0.4283
    2MOL    H71  313   0.116   4.492   7.831 -0.9002 -0.7813  2.1556
    2MOL    H72  314   0.411   4.420   7.576 -0.1952  0.9402 -0.7336
    2MOL    H73  315   0.409   4.545   7.684  1.2272 -2.0363  0.9914
    2MOL    O74  316   0.135   4.604   7.606 -0.0763  0.0199 -0.0972
    2MOL    C75  317   0.046   4.688   7.541 -0.6458  0.8241 -0.0386
    2MOL    C76  318   7.884   4.661   7.593 -0.8318 -0.0307  0.9149
    2MOL    C77  319   0.081   4.835   7.565 -0.3617 -0.4665  1.2313
    2MOL    C78  320   0.005   4.938   7.483  0.0158 -0.2612 -0.7512
    2MOL    O79  321   7.867   4.968   7.500 -0.0011  0.1373 -0.1241
    2MOL    H80  322   0.054   4.676   7.433 -1.7404 -1.1961  0.0864
    2MOL    H81  323   7.807   4.730   7.558  0.7569 -0.1146 -3.0774
    2MOL    H82  324   7.882   4.672   7.701 -1.7597  1.3019  0.7734
    2MOL    H83  325   7.850   4.560   7.571  2.3051 -1.3938  1.9512
    2MOL    H84  326   0.187   4.837   7.537 -0.8132  0.3733 -0.5027
    2MOL    H85  327   0.068   4.880   7.663 -1.4191  4.1033 -0.8645
    2MOL    O86  328   0.081   4.989   7.382 -0.1532 -0.2188 -0.1166
    2MOL    C87  329   0.048   5.100   7.307  0.0569  0.1131  0.5502
    2MOL    C88  330   0.162   5.200   7.294  0.3537 -0.0810  0.7634
    2MOL    C89  331   0.005   5.049   7.165 -0.6252 -0.0178 -0.5026
    2MOL    C90  332   7.840   5.076   7.149  0.2137  0.2444  1.3785
    2MOL    O91  333   7.792   5.186   7.165  0.1576 -0.2000 -0.0299
    2MOL    H92  334   7.949   5.153   7.360  2.4665  2.3098  2.0829
    2MOL    H93  335   0.196   5.235   7.392  1.8613 -1.5989  0.8068
    2MOL    H94  336   0.139   5.286   7.231  0.3212  0.4593  1.5001
    2MOL    H95  337   0.253   5.152   7.259 -0.8024 -2.7333  1.2834
    2MOL    H96  338   0.033   4.944   7.155  1.9748  0.4292  1.6737
    2MOL    H97  339   0.068   5.097   7.089  0.9731 -0.6403  0.3992
    2MOL    O98  340   7.770   4.978   7.091  0.6475  0.1092  0.1970
    2MOL    C99  341   7.628   4.982   7.087  0.1897  0.0404 -0.8418
    2MOL   C100  342   7.578   4.885   6.977 -0.1346 -1.2966 -0.1085
    2MOL   C101  343   7.570   4.955   7.228 -0.3936 -1.2022 -0.4282
    2MOL   C102  344   7.572   4.813   7.270 -0.0196  0.1834  0.1722
    2MOL   O103  345   7.675   4.744   7.292  0.1073  0.3620  0.0309
    2MOL   H104  346   7.602   5.082   7.054  0.4572  0.7063  0.8899
    2MOL   H105  347   7.611   4.783   7.000  1.2417 -0.1114  3.4302
    2MOL   H106  348   7.624   4.918   6.884 -2.6171  1.0746 -0.5180
    2MOL   H107  349   7.471   4.868   6.975 -1.2468  4.0801  3.6566
    2MOL   H108  350   7.464   4.979   7.221 -0.0708  0.7942  1.1712
    2MOL   H109  351   7.626   5.018   7.297 -1.8992 -1.6358  1.2046
    2MOL   O110  352   7.445   4.768   7.297 -0.2620  0.2801  1.0644
    2MOL   C111  353   7.419   4.638   7.349 -0.1903 -0.1077  0.4006
    2MOL   C112  354   7.342   4.639   7.483 -0.3797 -0.3029  0.0523
    2MOL   C113  355   7.362   4.551   7.238  0.0681  0.7754  0.2664
    2MOL   C114  356   7.213   4.556   7.214  0.6339 -0.2267 -0.4075
    2MOL   O115  357   7.167   4.582   7.108  0.3916 -0.1239  0.4743
    2MOL   H116  358   7.513   4.586   7.367  1.0284  1.6569 -0.7137
    2MOL   H117  359   7.350   4.548   7.543  3.0473 -1.2407 -1.7053
    2MOL   H118  360   7.240   4.674   7.466  1.1722  3.6499 -1.9542
    2MOL   H119  361   7.379   4.707   7.559  0.2183  0.7155 -1.1330
    2MOL   H120  362   7.389   4.447   7.257  1.3101  1.0482  0.0398
    2MOL   H121  363   7.417   4.566   7.145  1.0526 -1.2937  0.5047
    2MOL   O122  364   7.134   4.510   7.320  0.0891  0.6573  0.2312
    2MOL   C123  365   7.000   4.468   7.310  0.1761  0.1906 -0.9207
    2MOL   C124  366   6.991   4.317   7.328 -0.0153  0.0767 -0.7193
    2MOL   C125  367   6.919   4.555   7.406 -0.6122  0.7793  0.0333
    2MOL   C126  368   6.914   4.710   7.374 -0.3624  0.8339 -0.6731
    2MOL   O127  369   6.902   4.782   7.475 -0.1038  0.0218  0.0072
    2MOL   H128  370   6.950   4.478   7.213 -1.1673 -4.5256 -0.8697
    2MOL   H129  371   7.057   4.267   7.257 -0.7272 -0.6694 -0.8677
    2MOL   H130  372   6.892   4.274   7.314  0.1157 -0.1979 -0.8011
    2MOL   H131  373   7.036   4.304   7.426 -0.9498  1.4238 -0.1070
    2MOL   H132  374   6.967   4.549   7.505  1.6946 -0.1751 -1.0963
    2MOL   H133  375   6.815   4.525   7.414 -0.2866 -0.0113  1.6790
    2MOL   O134  376   6.905   4.738   7.242  0.2428  0.1581  0.3115
    2MOL   C135  377   6.873   4.871   7.205  0.2791 -0.1775 -0.6175
    2MOL   C136  378   6.997   4.940   7.155 -0.0198  0.2903  0.5974
    2MOL   C137  379   6.753   4.863   7.116 -0.0255  0.6184 -0.1493
    2MOL   C138  380   6.683   4.991   7.090 -0.9728  0.2553 -0.1008
    2MOL   O139  381   6.718   5.066   7.003 -0.1579 -0.1256 -0.0707
    2MOL   H140  382   6.844   4.922   7.297 -2.9392 -0.3561 -1.4901
    2MOL   H141  383   6.984   5.042   7.119 -0.4697  0.3816  1.0173
    2MOL   H142  384   7.037   4.884   7.071 -2.4003  0.8766 -0.9578
    2MOL   H143  385   7.062   4.933   7.243  0.7427 -1.8565 -0.1112
    2MOL   H144  386   6.684   4.790   7.158  0.3030 -0.1926 -1.0021
    2MOL   H145  387   6.788   4.837   7.016 -0.0030 -1.4239  0.3711
    2MOL   O146  388   6.574   5.001   7.172 -0.5850 -1.4010  0.2074
    2MOL   C147  389   6.491   5.115   7.170  0.3008  0.9867  0.3556
    2MOL   C148  390   6.380   5.099   7.059  0.2415 -0.7132 -0.1302
    2MOL   C149  391   6.443   5.124   7.317 -0.0882 -0.2444 -0.4195
    2MOL   C150  392   6.368   5.249   7.361  0.5621  0.6303 -0.5104
    2MOL   O151  393   6.301   5.249   7.460 -0.2033 -0.3334 -0.5552
    2MOL   H152  394   6.558   5.196   7.141  1.9094 -1.2410 -2.4576
    2MOL   H153  395   6.322   5.009   7.081 -1.6898  1.0342  2.1679
    2MOL   H154  396   6.417   5.109   6.957 -0.0082  2.5363  0.0725
    2MOL   H155  397   6.314   5.185   7.063  0.0094 -0.9134  0.4115
    2MOL   H156  398   6.527   5.110   7.385  0.3039  0.5922 -0.7282
    2MOL   H157  399   6.379   5.036   7.326 -0.8902  0.3438 -0.2940
    2MOL   O158  400   6.390   5.358   7.286  0.4607  0.3987 -0.2962
    2MOL   C159  401   6.315   5.485   7.306 -0.3175 -0.0406 -0.5975
    2MOL   C160  402   6.392   5.613   7.251 -0.6850 -1.0591  0.7622
    2MOL   C161  403   6.178   5.487   7.236  0.0849 -0.0460  0.1277
    2MOL   C162  404   6.073   5.554   7.320  0.0767  0.4948 -0.0951
    2MOL   O163  405   6.012   5.649   7.285 -0.5053  0.1678  0.3269
    2MOL   H164  406   6.312   5.489   7.415  1.4698 -0.9189 -0.4920
    2MOL   H165  407   6.342   5.710   7.243  2.3517  0.5807  0.4429
    2MOL   H166  408   6.419   5.580   7.151 -2.1545  0.4351 -0.1485
    2MOL   H167  409   6.485   5.628   7.307 -1.1420  2.6427  0.7079
    2MOL   H168  410   6.141   5.386   7.216 -2.6038  0.3792  2.6030
    2MOL   H169  411   6.171   5.554   7.150  2.3365  1.8813  1.3966
    2MOL   O170  412   6.058   5.498   7.433  0.0175 -0.9589 -0.5298
    2MOL   C171  413   5.957   5.530   7.534 -0.1455  0.3636 -0.3974
    2MOL   C172  414   5.960   5.412   7.635 -0.8106  0.2563  0.1034
    2MOL   C173  415   6.001   5.653   7.614 -0.1856  0.2454  0.6638
    2MOL   C174  416   5.901   5.700   7.722 -0.4461  0.4795  0.0799
    2MOL   O175  417   5.930   5.700   7.843 -0.0557 -0.1861  0.2484
    2MOL   H176  418   5.864   5.544   7.478  0.1276  0.9178 -0.7162
    2MOL   H177  419   5.878   5.410   7.706  0.7631  1.5955  2.0128
    2MOL   H178  420   6.042   5.424   7.706 -0.5982 -0.4074 -0.0219
    2MOL   H179  421   5.972   5.314   7.590  2.2849  0.3854  0.5588
    2MOL   H180  422   6.010   5.745   7.556 -0.6252 -0.7080 -0.9515
    2MOL   H181  423   6.100   5.628   7.652 -0.4988  0.2570  1.4960
    2MOL   O182  424   5.785   5.736   7.670 -0.0647 -0.2674 -0.2428
    2MOL   C183  425   5.693   5.793   7.759  0.0584  0.2895 -0.0776
    2MOL   C184  426   5.589   5.880   7.677  0.6429 -0.3408 -1.0136
    2MOL   C185  427   5.632   5.679   7.846  0.5193 -0.5841 -0.7290
    2MOL   C186  428   5.536   5.584   7.768  0.7217 -0.4604 -0.0642
    2MOL   O187  429   5.419   5.561   7.817  0.1228  0.1299  0.1122
    2MOL   H188  430   5.753   5.862   7.818  0.3518  1.6879 -1.9731
    2MOL   H189  431   5.529   5.827   7.603  0.0005 -0.4086 -0.4449
    2MOL   H190  432   5.648   5.951   7.618  1.6738 -1.0832 -0.8822
    2MOL   H191  433   5.529   5.938   7.747  0.4555 -2.1386  0.3273
    2MOL   H192  434   5.570   5.721   7.925  0.2136  0.5953 -1.5811
    2MOL   H193  435   5.718   5.632   7.892  0.2905  0.8944  1.2489
    2MOL   O194  436   5.595   5.523   7.658 -0.9746  0.3205 -0.0066
    2MOL   C195  437   5.514   5.432   7.587 -1.0239  0.0014 -0.5122
    2MOL   C196  438   5.422   5.493   7.478 -0.2929 -0.1872 -0.3466
    2MOL   C197  439   5.613   5.338   7.523  0.0809  0.6386 -0.0277
    2MOL   C198  440   5.659   5.225   7.616  0.4304 -1.3705 -0.4017
    2MOL   O199  441   5.694   5.116   7.577 -0.3476  0.7538 -0.1158
    2MOL   H200  442   5.449   5.369   7.647 -0.4689 -1.7751 -1.7422
    2MOL   H201  443   5.480   5.565   7.420 -1.9713  0.8163 -0.8179
    2MOL   H202  444   5.340   5.549   7.523 -0.7229 -0.8695 -0.2818
    2MOL   H203  445   5.378   5.421   7.409 -0.5385 -1.1461  0.7946
    2MOL   H204  446   5.697   5.399   7.488 -2.1662  1.2693 -4.7287
    2MOL   H205  447   5.567   5.289   7.437  0.1900 -1.2776  0.9713
    2MOL   O206  448   5.655   5.260   7.741 -0.1530 -0.2246 -0.3847
    2MOL   C207  449   5.674   5.162   7.843  0.5216  0.2027 -0.6980
    2MOL   C208  450   5.719   5.234   7.969 -0.0667 -0.2025 -0.0987
    2MOL   C209  451   5.548   5.077   7.858 -0.0875  0.8736  0.3149
    2MOL   C210  452   5.554   4.952   7.948  0.0341 -0.0631  0.1435
    2MOL   O211  453   5.478   4.933   0.057 -0.0121  0.1641  0.0846
    2MOL   H212  454   5.753   5.100   7.801  0.3139 -0.4795 -0.1080
    2MOL   H213  455   5.781   5.318   7.941 -1.3880  0.6541 -0.5007
    2MOL   H214  456   5.779   5.164   0.049  0.1189 -0.2149 -0.3013
    2MOL   H215  457   5.640   5.261   0.059 -1.2159 -2.6028 -0.4128
    2MOL   H216  458   5.528   5.048   7.755  0.8213  1.6189 -0.0816
    2MOL   H217  459   5.461   5.138   7.883 -0.7383 -0.4152  1.2887
    2MOL   O218  460   5.663   4.876   7.919 -0.7473  0.1578  0.2212
    2MOL   C219  461   5.694   4.762   0.021  0.1529 -0.4743  0.4198
    2MOL   C220  462   5.803   4.691   7.926  0.1367  0.2056  0.2223
    2MOL   C221  463   5.744   4.808   0.161 -0.2592 -0.4493  0.2995
    2MOL   C222  464   5.735   4.711   0.276  1.1636 -0.0877 -0.1403
    2MOL   O223  465   5.756   4.594   0.253 -0.0029 -0.2639  0.1032
    2MOL   H224  466   5.604   4.700   0.024 -0.0522 -0.2217 -0.2177
    2MOL   H225  467   5.765   4.657   7.830  0.1109  2.1508 -0.4779
    2MOL   H226  468   5.844   4.608   0.003  1.6406  1.6302  1.2721
    2MOL   H227  469   5.880   4.766   7.907 -0.9071  1.5425  1.1768
    2MOL   H228  470   5.702   4.904   0.192  0.7565  0.9034 -2.2686
    2MOL   H229  471   5.852   4.822   0.151  0.2907 -4.2224  0.3894
    2MOL   O230  472   5.701   4.765   0.400  0.3351  0.3149  0.8225
    2MOL   C231  473   5.705   4.689   0.517 -0.0282 -0.2625 -0.4319
    2MOL   C232  474   5.858   4.683   0.565 -0.1816  0.8552  0.1047
    2MOL   C233  475   5.611   4.742   0.624  0.1107 -0.2087  0.8275
    2MOL   C234  476   5.608   4.653   0.753  0.1394  0.4510  0.3686
    2MOL   O235  477   5.506   4.647   0.819  0.3376  0.1389  0.7252
    2MOL   H236  478   5.677   4.587   0.490 -1.3496 -0.2641  0.8606
    2MOL   H237  479   5.872   4.618   0.651  3.1031  1.1666 -0.1360
    2MOL   H238  480   5.908   4.778   0.582  2.7955 -0.8160  1.1356
    2MOL   H239  481   5.914   4.632   0.486  0.8235  1.1468  0.6142
    2MOL   H240  482   5.508   4.762   0.597 -0.2487 -0.8512  1.6996
    2MOL   H241  483   5.640   4.838   0.667 -1.1591  0.9829 -0.9213
    2MOL   H242  484   5.703   4.606   0.777  0.1372 -0.2513 -0.9245
    3MOL     O1  485   6.935   4.653   6.929 -0.2433  0.2027 -0.4253
    3MOL     C2  486   6.980   4.613   6.796 -0.2288 -0.4776 -0.1953
    3MOL     C3  487   7.054   4.485   6.808  0.5459  0.1685 -0.2858
    3MOL     C4  488   6.861   4.622   6.708  0.3846 -0.7762  0.0778
    3MOL     C5  489   6.886   4.619   6.561  0.0525  0.4719 -0.2675
    3MOL     O6  490   7.001   4.612   6.514 -0.5518 -0.0682 -0.2147
    3MOL     H7  491   7.055   4.686   6.767 -1.0452 -0.3117 -2.0111
    3MOL     H8  492   6.988   4.399   6.821  0.0346  0.3411 -1.7286
    3MOL     H9  493   7.128   4.492   6.888 -0.6460  1.7376  0.6845
    3MOL    H10  494   7.119   4.475   6.721 -0.6584 -0.0726 -1.1692
    3MOL    H11  495   6.789   4.702   6.723  0.3043 -0.9153  0.4399
    3MOL    H12  496   6.811   4.533   6.744 -0.3593  0.2160  1.5077
    3MOL    H13  497   7.003   4.636   6.993  0.1742  1.5204 -0.4901
    3MOL    O14  498   6.777   4.636   6.482  0.1250  0.1196  0.2091
    3MOL    C15  499   6.789   4.676   6.341  0.4541 -0.2734 -0.3856
    3MOL    C16  500   6.734   4.555   6.258  0.1743  0.7769  0.6313
    3MOL    C17  501   6.731   4.815   6.312 -0.5277  0.4280  0.0683
    3MOL    C18  502   6.817   4.928   6.361 -0.8360 -0.3394  0.0081
    3MOL    O19  503   6.941   4.920   6.360  0.0442 -0.2915 -0.2650
    3MOL    H20  504   6.891   4.680   6.302 -0.4621 -2.7037 -3.2246
    3MOL    H21  505   6.633   4.522   6.281 -0.3157  1.0991 -0.9452
    3MOL    H22  506   6.795   4.465   6.269  0.2987  0.7150 -0.4592
    3MOL    H23  507   6.739   4.580   6.152 -0.8868  1.8054  0.8135
    3MOL    H24  508   6.640   4.824   6.373 -1.9088  0.7157 -1.9908
    3MOL    H25  509   6.697   4.814   6.209  1.4252 -1.9756 -0.6153
    3MOL    O26  510   6.746   5.029   6.419  0.6333  0.6421  0.5090
    3MOL    C27  511   6.815   5.124   6.494 -0.1742 -0.0304  0.3757
    3MOL    C28  512   6.741   5.259   6.520 -0.4635 -0.3985 -0.0132
    3MOL    C29  513   6.834   5.063   6.638 -0.1193  0.3858  0.2953
    3MOL    C30  514   6.963   5.114   6.704  0.5990  0.1598 -0.9141
    3MOL    O31  515   6.955   5.226   6.763 -0.4013  0.1648 -0.0726
    3MOL    H32  516   6.916   5.133   6.455  0.4662  1.6990  2.3734
    3MOL    H33  517   6.655   5.232   6.582 -0.0734 -0.3761  0.5411
    3MOL    H34  518   6.699   5.285   6.424 -1.7197 -3.9503 -0.5018
    3MOL    H35  519   6.799   5.339   6.565 -0.1128 -0.2018 -0.8142
    3MOL    H36  520   6.850   4.955   6.631 -1.4938  0.1502  0.8384
    3MOL    H37  521   6.741   5.078   6.692  0.0491 -0.8876  0.9480
    3MOL    O38  522   7.065   5.025   6.702 -0.4021  0.1581  0.1845
    3MOL    C39  523   7.194   5.074   6.730 -0.1581  0.2181  0.0291
    3MOL    C40  524   7.232   4.969   6.837  0.8393 -0.0626  0.0394
    3MOL    C41  525   7.274   5.058   6.601  0.5609  0.6162 -0.1313
    3MOL    C42  526   7.404   5.130   6.592  0.8330 -0.1301 -0.0066
    3MOL    O43  527   7.440   5.210   6.677  0.2290  0.1294 -0.4271
    3MOL    H44  528   7.189   5.178   6.761  2.7289  0.8157 -1.2648
    3MOL    H45  529   7.314   4.993   6.904  0.3352 -2.6593  1.6871
    3MOL    H46  530   7.266   4.874   6.795 -1.8164 -1.2605  0.4802
    3MOL    H47  531   7.148   4.943   6.902  2.1107 -2.5586  0.7703
    3MOL    H48  532   7.212   5.095   6.519  1.3606 -0.3618 -1.2052
    3MOL    H49  533   7.284   4.951   6.579 -0.8106  0.5685 -0.5501
    3MOL    O50  534   7.476   5.095   6.483  0.3392 -0.1528  0.4720
    3MOL    C51  535   7.615   5.135   6.468  0.1460 -0.2462  0.2739
    3MOL    C52  536   7.700   5.031   6.391  0.4105  0.1068  0.1302
    3MOL    C53  537   7.631   5.272   6.402  0.6127 -0.3381 -0.1443
    3MOL    C54  538   7.557   5.300   6.272  0.8359  0.6972 -0.1407
    3MOL    O55  539   7.512   5.210   6.197 -0.0986 -0.0679  0.1670
    3MOL    H56  540   7.665   5.148   6.563 -1.7392 -0.4317  1.3199
    3MOL    H57  541   7.662   5.023   6.289 -1.1021 -0.7557  0.7552
    3MOL    H58  542   7.712   4.930   6.432  2.8129 -1.1085 -3.2888
    3MOL    H59  543   7.805   5.062   6.397  0.4627  0.0834 -0.5597
    3MOL    H60  544   7.733   5.305   6.385  0.2837 -0.3567 -2.2561
    3MOL    H61  545   7.581   5.332   6.479 -1.1826 -0.8969 -0.8397
    3MOL    O62  546   7.553   5.436   6.253  0.0761  0.4576  0.3926
    3MOL    C63  547   7.496   5.488   6.131 -0.2466  0.0698  0.1045
    3MOL    C64  548   7.376   5.574   6.168 -0.1253 -0.2009  0.0435
    3MOL    C65  549   7.609   5.564   6.054 -0.1814 -0.1963 -0.7581
    3MOL    C66  550   7.671   5.688   6.128  0.2552 -0.3663 -0.1956
    3MOL    O67  551   7.607   5.793   6.141 -0.1561 -0.9620  0.6872
    3MOL    H68  552   7.460   5.400   6.079  0.3628 -0.9667  1.4178
    3MOL    H69  553   7.403   5.661   6.228  0.4812 -0.9837  0.9101
    3MOL    H70  554   7.302   5.522   6.229 -1.2390  1.4120  0.1062
    3MOL    H71  555   7.323   5.617   6.082  1.0794 -2.7215 -2.0271
    3MOL    H72  556   7.563   5.600   5.962  0.1286 -1.7079 -1.5051
    3MOL    H73  557   7.685   5.497   6.013 -0.9428  0.4845 -3.3576
    3MOL    O74  558   7.790   5.658   6.180  0.5766  0.6444 -0.0124
    3MOL    C75  559   7.856   5.758   6.257  0.2514 -0.0938 -0.6705
    3MOL    C76  560   7.966   5.688   6.342 -0.5265  0.3455  0.5018
    3MOL    C77  561   7.927   5.864   6.167  0.1596 -0.2123  0.2335
    3MOL    C78  562   0.007   5.994   6.220  0.5680  0.2820  0.1954
    3MOL    O79  563   0.122   6.003   6.262  0.5280  0.0257 -0.1103
    3MOL    H80  564   7.790   5.801   6.333 -1.1072 -2.0229 -0.7204
    3MOL    H81  565   7.973   5.718   6.447  2.6393 -3.0687  1.3560
    3MOL    H82  566   0.082   5.724   6.305  0.0618 -1.6786 -0.0249
    3MOL    H83  567   7.961   5.579   6.344  1.2163  0.2534  0.4727
    3MOL    H84  568   7.870   5.894   6.079  0.9635  0.3350 -0.1086
    3MOL    H85  569   0.031   5.811   6.123  0.5568 -0.3540  1.1431
    3MOL    O86  570   7.910   6.100   6.194 -0.4897 -0.1574  0.1453
    3MOL    C87  571   7.948   6.227   6.242 -0.2036 -0.5757  0.1448
    3MOL    C88  572   7.926   6.321   6.128  0.2143  0.3856 -0.1116
    3MOL    C89  573   7.864   6.252   6.369 -0.1035 -0.0684  0.1677
    3MOL    C90  574   7.888   6.389   6.436 -0.6330 -0.9077  0.4691
    3MOL    O91  575   7.794   6.464   6.464 -0.0665  0.1488 -0.6120
    3MOL    H92  576   0.074   6.225   6.268 -0.0162 -0.4776 -0.5950
    3MOL    H93  577   0.007   6.293   6.042 -0.0224 -0.7151  0.0740
    3MOL    H94  578   7.942   6.429   6.135 -0.0781  0.2339  3.2483
    3MOL    H95  579   7.823   6.308   6.097 -0.0181  1.2348  0.2974
    3MOL    H96  580   7.889   6.179   6.445 -2.4471  1.0647  2.0985
    3MOL    H97  581   7.758   6.239   6.345  0.0596  1.2230 -1.3928
    3MOL    O98  582   0.033   6.404   6.474  0.2670  0.3649  0.5626
    3MOL    C99  583   0.076   6.527   6.525  0.0577  0.0200 -0.3502
    3MOL   C100  584   0.184   6.525   6.627 -0.1127  0.0025 -0.2803
    3MOL   C101  585   0.110   6.627   6.412 -0.1262  0.2762  0.0331
    3MOL   C102  586   0.220   6.586   6.309 -0.1986  0.2085 -0.1108
    3MOL   O103  587   0.277   6.479   6.304  0.1042 -0.2795  0.5466
    3MOL   H104  588   7.973   6.573   6.580  1.9926  3.8374 -0.4589
    3MOL   H105  589   0.257   6.456   6.585 -0.5403  0.5917 -2.0423
    3MOL   H106  590   0.146   6.487   6.722  2.2142 -0.3634  0.5347
    3MOL   H107  591   0.227   6.622   6.651  0.7065  0.2596 -2.6235
    3MOL   H108  592   0.137   6.726   6.446  1.9695  0.1848 -1.2804
    3MOL   H109  593   0.015   6.643   6.360 -0.5676 -0.9327  0.4485
    3MOL   O110  594   0.236   6.686   6.227  0.3867  0.2096 -0.2838
    3MOL   C111  595   0.348   6.690   6.138 -0.4636 -0.8356  0.9890
    3MOL   C112  596   0.304   6.674   5.996  0.2820 -0.2105  0.0888
    3MOL   C113  597   0.415   6.823   6.167 -0.3233  0.0249  0.1028
    3MOL   C114  598   0.321   6.937   6.164  0.7391 -0.7959 -0.2240
    3MOL   O115  599   0.273   6.986   6.060 -0.7947 -0.2174 -0.0237
    3MOL   H116  600   0.419   6.610   6.157  0.6835 -0.0689  0.0054
    3MOL   H117  601   0.268   6.572   5.989 -1.3732  0.3526  0.2311
    3MOL   H118  602   0.380   6.684   5.917  1.7727  0.7135  1.6093
    3MOL   H119  603   0.228   6.749   5.970 -0.7917 -1.4120 -0.2658
    3MOL   H120  604   0.494   6.848   6.096 -0.6287 -2.3274 -1.1054
    3MOL   H121  605   0.467   6.824   6.263  0.1806  3.0712 -0.1528
    3MOL   O122  606   0.299   6.991   6.285 -0.1791 -0.5253  0.1024
    3MOL   C123  607   0.225   7.111   6.314 -0.7697 -0.9761 -0.1903
    3MOL   C124  608   0.073   7.079   6.322  0.3058 -0.1969  0.3055
    3MOL   C125  609   0.276   7.177   6.439  0.5996  0.1803 -0.3273
    3MOL   C126  610   0.398   7.258   6.422  0.3625 -0.1073 -0.1659
    3MOL   O127  611   0.470   7.250   6.322 -0.1256 -0.0992  0.2336
    3MOL   H128  612   0.247   7.179   6.231  1.8956 -1.5458  0.0148
    3MOL   H129  613   0.055   6.999   6.394  1.1350 -0.6408  0.0181
    3MOL   H130  614   0.030   7.054   6.225  2.5679 -1.4227 -0.4088
    3MOL   H131  615   0.010   7.164   6.349 -1.0788 -1.4173  0.9687
    3MOL   H132  616   0.287   7.104   6.519  3.0518 -2.2489 -2.7633
    3MOL   H133  617   0.197   7.248   6.464  0.5392  0.5263 -1.4908
    3MOL   O134  618   0.407   7.346   6.521  0.1063 -0.7100 -0.1318
    3MOL   C135  619   0.498   7.448   6.524 -0.7206 -0.3564 -0.0944
    3MOL   C136  620   0.424   7.570   6.568  0.3682  0.4168 -0.3358
    3MOL   C137  621   0.616   7.406   6.610 -0.8137 -0.2225 -0.3547
    3MOL   C138  622   0.595   7.387   6.760 -0.1994  0.4424 -0.3495
    3MOL   O139  623   0.628   7.470   6.845 -0.0817 -0.0798  0.0980
    3MOL   H140  624   0.538   7.465   6.424  2.2023  2.2656  1.4482
    3MOL   H141  625   0.497   7.642   6.605  0.1808  1.3279 -1.7371
    3MOL   H142  626   0.336   7.562   6.632 -0.5048  1.1486 -1.4341
    3MOL   H143  627   0.390   7.619   6.477  0.4443  0.3600 -0.3953
    3MOL   H144  628   0.699   7.474   6.594 -0.4402 -0.3684  0.8561
    3MOL   H145  629   0.649   7.311   6.567  1.4733  0.4561 -0.1603
    3MOL   O146  630   0.555   7.257   6.787 -0.3227 -0.0584 -0.4897
    3MOL   C147  631   0.558   7.207   6.925 -0.3831 -0.3267  0.5547
    3MOL   C148  632   0.415   7.203   6.978  0.2717  0.1097 -0.4161
    3MOL   C149  633   0.644   7.081   6.932  0.4174 -0.0657  0.3094
    3MOL   C150  634   0.789   7.097   6.896 -0.1115  0.0499 -0.2229
    3MOL   O151  635   0.844   7.027   6.809 -0.2927 -0.2769 -0.1919
    3MOL   H152  636   0.609   7.288   6.979 -0.0053 -1.3121  1.6939
    3MOL   H153  637   0.363   7.296   6.999  2.9335  1.0900  2.2709
    3MOL   H154  638   0.413   7.151   7.074 -0.4070 -0.5672 -0.7900
    3MOL   H155  639   0.356   7.144   6.908 -0.0399  1.1619 -1.0491
    3MOL   H156  640   0.604   7.008   6.863 -0.1745  0.2792  0.2836
    3MOL   H157  641   0.625   7.041   7.032  0.3512 -0.1403  0.2667
    3MOL   O158  642   0.847   7.194   6.973  0.0200  0.0432 -0.0062
    3MOL   C159  643   0.982   7.226   6.977 -0.1474 -0.1058  0.2548
    3MOL   C160  644   0.997   7.364   6.918  0.9559 -0.2968 -0.2587
    3MOL   C161  645   1.050   7.206   7.110  0.5456 -0.1304 -0.4467
    3MOL   C162  646   1.009   7.301   7.217 -0.2095 -0.3512 -0.4222
    3MOL   O163  647   1.084   7.385   7.261 -0.4287 -0.2747  0.2105
    3MOL   H164  648   1.031   7.161   6.904 -1.0165 -0.5462  0.0569
    3MOL   H165  649   1.098   7.401   6.934  0.9913 -0.2187 -0.6683
    3MOL   H166  650   0.936   7.441   6.966  2.1150  0.9176 -0.7137
    3MOL   H167  651   0.991   7.381   6.811  0.1077 -0.5130 -0.2530
    3MOL   H168  652   1.155   7.233   7.100  0.6522  0.1242  1.1419
    3MOL   H169  653   1.052   7.104   7.148 -1.4810 -1.0041 -2.5802
    3MOL   O170  654   0.883   7.281   7.261  0.1618  0.5184 -0.1305
    3MOL   C171  655   0.815   7.378   7.351 -0.6556  0.2037  0.5746
    3MOL   C172  656   0.764   7.506   7.269  0.2335 -0.6263  0.1428
    3MOL   C173  657   0.702   7.291   7.418 -0.2612  0.0518  0.4771
    3MOL   C174  658   0.598   7.373   7.488 -0.7290  0.6497 -0.0152
    3MOL   O175  659   0.481   7.345   7.469  0.0324 -0.1373 -0.3829
    3MOL   H176  660   0.886   7.404   7.430 -2.3313  2.6867  1.3274
    3MOL   H177  661   0.701   7.492   7.181 -0.8219  4.0893  0.0057
    3MOL   H178  662   0.857   7.553   7.237 -2.1029  3.2934 -1.1639
    3MOL   H179  663   0.708   7.569   7.338  1.1679 -0.9667  1.2309
    3MOL   H180  664   0.736   7.215   7.489 -1.0626  0.0828  0.9027
    3MOL   H181  665   0.643   7.242   7.340 -0.5900 -0.3357  0.9701
    3MOL   O182  666   0.645   7.465   7.578  0.5754  0.4164 -0.5512
    3MOL   C183  667   0.562   7.535   7.670 -0.2417  0.1933 -0.2133
    3MOL   C184  668   0.666   7.575   7.781 -0.1275 -0.1165 -0.0506
    3MOL   C185  669   0.506   7.658   7.591 -0.4162 -0.8040  0.3564
    3MOL   C186  670   0.423   7.761   7.665  0.0228 -0.4364 -0.0287
    3MOL   O187  671   0.464   7.872   7.692 -0.0956 -0.5013  0.5297
    3MOL   H188  672   0.489   7.468   7.715 -0.5321  0.5638 -0.1286
    3MOL   H189  673   0.728   7.494   7.819 -0.4968  1.3162  3.8374
    3MOL   H190  674   0.619   7.632   7.861 -0.0298  0.3217 -0.3043
    3MOL   H191  675   0.737   7.647   7.740 -1.4962  0.5625 -1.2486
    3MOL   H192  676   0.440   7.622   7.512 -0.1224  1.2120 -0.8245
    3MOL   H193  677   0.590   7.704   7.540 -0.4287  0.7224  1.6725
    3MOL   O194  678   0.308   7.711   7.718 -0.2724  0.3898  0.0968
    3MOL   C195  679   0.225   7.791   7.793  0.5541 -0.1590  0.5824
    3MOL   C196  680   0.086   7.723   7.791  0.8862  0.0783  0.0866
    3MOL   C197  681   0.285   7.813   7.936  0.2452 -0.1269 -0.6149
    3MOL   C198  682   0.301   7.682   0.042 -0.7735 -0.0557  0.0304
    3MOL   O199  683   0.300   7.568   7.974  0.9482  0.2468  0.3438
    3MOL   H200  684   0.216   7.890   7.748  0.3180  1.6103  4.2528
    3MOL   H201  685   0.072   7.671   7.696 -0.3815  0.8433 -0.1572
    3MOL   H202  686   0.006   7.796   7.793  0.5063 -0.3675  2.0020
    3MOL   H203  687   0.070   7.661   7.879  0.2572  0.2010  0.0575
    3MOL   H204  688   0.223   7.884   0.010  0.8650 -0.5465  0.6666
    3MOL   H205  689   0.385   7.856   7.932 -0.7538  2.5866  1.8671
    3MOL   O206  690   0.343   7.707   0.158 -0.0708  0.1060  0.3102
    3MOL   C207  691   0.376   7.599   0.243 -0.1562  0.6317 -1.1361
    3MOL   C208  692   0.530   7.600   0.270  0.0200  0.3732 -0.0608
    3MOL   C209  693   0.294   7.616   0.380 -0.0980  0.7471 -0.2439
    3MOL   C210  694   0.289   7.484   0.450 -0.5362 -0.0049  0.1937
    3MOL   O211  695   0.386   7.444   0.520  0.2072 -0.2687  1.0987
    3MOL   H212  696   0.354   7.504   0.194 -0.4402  0.4665 -0.6852
    3MOL   H213  697   0.575   7.568   0.176  0.6952 -1.7754  0.9569
    3MOL   H214  698   0.560   7.530   0.347 -0.6979  0.1099 -0.0188
    3MOL   H215  699   0.556   7.701   0.303  2.2595 -0.4433  0.7460
    3MOL   H216  700   0.192   7.651   0.362 -0.5408 -1.2490 -1.8076
    3MOL   H217  701   0.335   7.696   0.441 -1.4205  0.5274  0.9718
    3MOL   O218  702   0.167   7.431   0.430  0.0840  0.2049 -0.3044
    3MOL   C219  703   0.142   7.295   0.477  0.7201  0.7105 -0.6405
    3MOL   C220  704   7.977   7.292   0.546 -0.1355  0.5286  0.2104
    3MOL   C221  705   0.135   7.200   0.352  0.0019 -0.2279  0.9555
    3MOL   C222  706   0.168   7.054   0.380 -0.5904 -0.4149 -0.6872
    3MOL   O223  707   0.159   6.994   0.488 -0.2373  0.5885 -0.3868
    3MOL   H224  708   0.222   7.262   0.543  0.9562  0.6570 -0.9578
    3MOL   H225  709   7.909   7.335   0.473 -1.4073 -1.5096  0.1578
    3MOL   H226  710   7.973   7.352   0.637  2.8158 -0.9530  1.3800
    3MOL   H227  711   7.941   7.191   0.567 -0.3715  0.4336 -0.6251
    3MOL   H228  712   0.201   7.230   0.270 -2.5114  1.1015 -0.6575
    3MOL   H229  713   0.035   7.209   0.310  1.1352  0.0837 -1.8444
    3MOL   O230  714   0.207   6.990   0.268  0.0345  0.0217  0.0136
    3MOL   C231  715   0.216   6.850   0.274  0.2364 -0.4145 -0.1893
    3MOL   C232  716   0.081   6.779   0.257  0.1327  0.0734 -0.1998
    3MOL   C233  717   0.308   6.799   0.163 -0.2387  0.1176 -0.1225
    3MOL   C234  718   0.455   6.792   0.198 -0.0438 -0.5252  0.0112
    3MOL   O235  719   0.496   6.745   0.302 -0.4161 -0.3003  0.2545
    3MOL   H236  720   0.260   6.827   0.371 -0.5958 -1.2264  0.0135
    3MOL   H237  721   0.086   6.670   0.255 -2.2315 -0.1735  3.5491
    3MOL   H238  722   0.023   6.810   0.170  1.1765 -2.0554 -1.7002
    3MOL   H239  723   0.007   6.803   0.333 -0.3522 -0.5512 -0.4699
    3MOL   H240  724   0.304   6.852   0.068 -1.5994 -0.3689 -0.3571
    3MOL   H241  725   0.272   6.701   0.130 -2.2259  1.1805 -1.2118
    3MOL   H242  726   0.519   6.826   0.117  0.2305  2.1617  1.2967
    4MOL     O1  727   3.946   4.850   6.142 -0.3272 -0.7909  0.3296
    4MOL     C2  728   3.818   4.894   6.204  0.2180 -0.3352  0.2615
    4MOL     C3  729   3.757   4.765   6.244  1.2021  0.4004  0.2127
    4MOL     C4  730   3.857   4.984   6.331  0.6293 -0.5383 -0.7122
    4MOL     C5  731   3.750   5.074   6.389 -0.1064  0.4376 -0.7926
    4MOL     O6  732   3.624   5.053   6.372 -0.3954 -0.3214  0.0953
    4MOL     H7  733   3.765   4.959   6.133 -1.7102 -0.7652  1.2867
    4MOL     H8  734   3.660   4.784   6.290  2.3406 -0.6448  3.1551
    4MOL     H9  735   3.815   4.707   6.316  1.0809 -1.8059 -1.4014
    4MOL    H10  736   3.735   4.705   6.156  2.4229 -0.6952  0.6362
    4MOL    H11  737   3.943   5.041   6.297  1.2421  0.7084  2.7113
    4MOL    H12  738   3.904   4.921   6.406  0.8865 -0.9986 -1.2549
    4MOL    H13  739   3.927   4.797   6.065  1.6815 -0.7984 -0.1819
    4MOL    O14  740   3.805   5.173   6.465 -0.1678 -0.0435 -0.5470
    4MOL    C15  741   3.724   5.245   6.560  0.2509  0.0284 -0.3096
    4MOL    C16  742   3.802   5.254   6.697 -0.3786  0.1675 -0.1639
    4MOL    C17  743   3.672   5.378   6.504 -0.7299  0.5919  0.1622
    4MOL    C18  744   3.570   5.443   6.595  0.4990  0.1414  0.5055
    4MOL    O19  745   3.489   5.367   6.654  0.3205  0.0793  0.0102
    4MOL    H20  746   3.637   5.183   6.580  0.0555  0.2974 -0.3214
    4MOL    H21  747   3.904   5.288   6.681  0.9574 -2.0543  3.1337
    4MOL    H22  748   3.811   5.153   6.736 -3.0800 -1.0922 -2.6025
    4MOL    H23  749   3.760   5.311   6.780 -0.5922  0.4750 -0.4796
    4MOL    H24  750   3.626   5.365   6.406  0.8980 -3.3776 -0.1992
    4MOL    H25  751   3.755   5.444   6.483 -0.0425 -0.3775 -0.2144
    4MOL    O26  752   3.568   5.583   6.601 -0.1355 -0.0774  0.0521
    4MOL    C27  753   3.478   5.656   6.689 -0.1451  0.6671 -0.2328
    4MOL    C28  754   3.545   5.780   6.751  0.3559  0.1404 -0.0979
    4MOL    C29  755   3.340   5.671   6.613  0.6255  0.0951  0.0218
    4MOL    C30  756   3.340   5.798   6.534  0.4604  0.2236  0.1616
    4MOL    O31  757   3.352   5.804   6.411  0.3871 -0.2399 -0.2002
    4MOL    H32  758   3.460   5.593   6.776  1.3901 -1.0109 -1.0875
    4MOL    H33  759   3.473   5.834   6.813 -0.5813 -0.6113 -0.5203
    4MOL    H34  760   3.583   5.850   6.676 -0.7851  1.3253  0.4066
    4MOL    H35  761   3.623   5.749   6.820  1.0847 -0.7572 -1.2941
    4MOL    H36  762   3.252   5.686   6.677  0.8056  1.6585 -0.0779
    4MOL    H37  763   3.322   5.590   6.543  0.0467  0.2793 -0.0527
    4MOL    O38  764   3.321   5.896   6.615  0.2411 -0.3827 -0.5707
    4MOL    C39  765   3.313   6.032   6.559  0.0655 -0.3589 -0.1948
    4MOL    C40  766   3.180   6.045   6.492  0.3972  0.1433 -0.0700
    4MOL    C41  767   3.333   6.136   6.668 -0.4547 -0.5680 -0.8364
    4MOL    C42  768   3.476   6.184   6.662 -0.1224  0.2312  0.3241
    4MOL    O43  769   3.509   6.294   6.623  0.6878  0.2379 -0.9340
    4MOL    H44  770   3.382   6.037   6.474 -0.2916 -1.8327 -0.5748
    4MOL    H45  771   3.171   5.966   6.418  1.6080  0.3856 -0.4731
    4MOL    H46  772   3.178   6.144   6.446  1.8535  0.2754  0.1434
    4MOL    H47  773   3.098   6.022   6.561  0.2365 -0.2924 -0.4061
    4MOL    H48  774   3.301   6.106   6.768  2.0317  2.4860  0.9962
    4MOL    H49  775   3.267   6.221   6.652 -1.2255 -0.6323  1.7791
    4MOL    O50  776   3.565   6.089   6.698  0.1655  0.0819 -0.0420
    4MOL    C51  777   3.710   6.113   6.682 -0.1987  0.2595 -0.0958
    4MOL    C52  778   3.779   6.077   6.817  0.0065 -0.0027  0.5113
    4MOL    C53  779   3.758   6.037   6.558  0.2223  0.5627  0.3249
    4MOL    C54  780   3.885   6.082   6.489 -0.0335  1.0241 -0.4984
    4MOL    O55  781   3.898   6.086   6.373 -0.1112  0.2658  0.4755
    4MOL    H56  782   3.718   6.220   6.666 -1.2569  0.9504  3.4547
    4MOL    H57  783   3.887   6.093   6.822  0.4661 -2.3274 -0.9897
    4MOL    H58  784   3.770   5.972   6.844 -1.0758 -0.2156 -0.6205
    4MOL    H59  785   3.730   6.122   6.903 -2.2998  1.3453 -1.4421
    4MOL    H60  786   3.674   6.036   6.488 -0.5107  0.9094  1.1843
    4MOL    H61  787   3.769   5.932   6.587 -0.0537  0.8986  1.7199
    4MOL    O62  788   3.982   6.102   6.582  0.4414  0.3271  0.1255
    4MOL    C63  789   4.091   6.182   6.550  0.4095 -0.4918  0.5449
    4MOL    C64  790   4.135   6.257   6.672 -0.6720 -0.0300  0.1969
    4MOL    C65  791   4.199   6.085   6.484  0.0924 -0.0691 -0.1813
    4MOL    C66  792   4.324   6.160   6.431  0.0726  0.0247  0.5788
    4MOL    O67  793   4.324   6.280   6.418 -0.7246 -0.2158  0.5942
    4MOL    H68  794   4.061   6.253   6.473  1.1971 -0.4793  0.2372
    4MOL    H69  795   4.052   6.296   6.731 -0.0819  3.1565 -0.9752
    4MOL    H70  796   4.187   6.348   6.642  1.8850 -1.0658  1.3555
    4MOL    H71  797   4.195   6.193   6.737  0.9666 -1.0689 -2.2801
    4MOL    H72  798   4.153   6.035   6.399 -0.9163 -1.7959  1.3370
    4MOL    H73  799   4.225   6.002   6.550 -1.3417 -1.3519 -1.2153
    4MOL    O74  800   4.419   6.073   6.392  0.2712 -0.3491 -0.3228
    4MOL    C75  801   4.515   6.111   6.291 -0.2403 -0.5766  0.1313
    4MOL    C76  802   4.656   6.126   6.337 -0.2264  0.1577 -0.7032
    4MOL    C77  803   4.494   6.007   6.179 -0.5289 -0.6099 -0.0001
    4MOL    C78  804   4.384   6.049   6.089 -0.7695 -0.1074  0.1467
    4MOL    O79  805   4.405   6.070   5.969  0.2798  0.6902 -0.3035
    4MOL    H80  806   4.500   6.206   6.240  4.4930  0.7523  0.9349
    4MOL    H81  807   4.664   6.202   6.415 -2.5349  0.7273 -0.9900
    4MOL    H82  808   4.725   6.146   6.255  0.5681 -3.0926 -0.8751
    4MOL    H83  809   4.682   6.033   6.388  0.8570 -1.0449 -3.3637
    4MOL    H84  810   4.478   5.906   6.216 -0.2995 -0.3864  0.7062
    4MOL    H85  811   4.586   5.999   6.121 -1.0362  0.0519 -0.9129
    4MOL    O86  812   4.261   6.038   6.148  0.0868  0.0705 -0.0290
    4MOL    C87  813   4.149   6.049   6.063 -0.5645  0.0013 -0.0861
    4MOL    C88  814   4.063   5.928   6.102  0.0008 -0.3766 -0.8066
    4MOL    C89  815   4.093   6.193   6.080  0.6324  0.3478  0.0170
    4MOL    C90  816   3.984   6.229   5.981 -0.1558 -0.5534  0.4545
    4MOL    O91  817   3.946   6.149   5.894  0.3985 -0.0416 -0.0172
    4MOL    H92  818   4.181   6.042   5.959  0.1507 -2.5712  0.2736
    4MOL    H93  819   4.109   5.833   6.076 -0.3991 -0.8360  0.1378
    4MOL    H94  820   3.971   5.935   6.044  0.5691  1.6358 -1.5121
    4MOL    H95  821   4.047   5.934   6.210  0.4059 -0.5088 -0.7359
    4MOL    H96  822   4.163   6.275   6.063  1.8925 -1.1990 -2.6792
    4MOL    H97  823   4.051   6.195   6.180 -2.6987  1.5521 -1.3394
    4MOL    O98  824   3.944   6.354   5.998 -0.0945 -0.0563 -1.3156
    4MOL    C99  825   3.848   6.417   5.914 -0.4411  0.2911  0.9107
    4MOL   C100  826   3.868   6.413   5.764  0.3100  0.5916 -0.0750
    4MOL   C101  827   3.707   6.372   5.942  0.6311 -0.3156 -0.8858
    4MOL   C102  828   3.640   6.442   6.067  0.8611  0.3553  0.1475
    4MOL   O103  829   3.517   6.458   6.068 -0.2094 -0.1231 -0.1638
    4MOL   H104  830   3.867   6.518   5.950  2.6408  0.4781 -1.0826
    4MOL   H105  831   3.967   6.453   5.746  0.0520  0.9346 -0.7544
    4MOL   H106  832   3.799   6.464   5.696 -0.0669 -0.5344 -0.5633
    4MOL   H107  833   3.882   6.310   5.730  0.9824  1.4139 -2.3305
    4MOL   H108  834   3.697   6.264   5.941  1.9651 -0.4530  0.0714
    4MOL   H109  835   3.647   6.407   5.858  0.0398 -0.3973 -0.5014
    4MOL   O110  836   3.724   6.480   6.164  0.0236 -0.9125 -0.7296
    4MOL   C111  837   3.678   6.517   6.293  0.0803  0.5099  0.1577
    4MOL   C112  838   3.733   6.408   6.383  0.3880 -0.2257  0.4646
    4MOL   C113  839   3.734   6.657   6.340 -0.3223  0.2407  0.0834
    4MOL   C114  840   3.619   6.743   6.392  0.0652  0.3721 -0.1066
    4MOL   O115  841   3.546   6.811   6.323 -0.6119 -0.6625  0.0558
    4MOL   H116  842   3.569   6.518   6.295  0.0655 -0.8411  0.0351
    4MOL   H117  843   3.842   6.402   6.386  0.4742  0.4464 -0.8746
    4MOL   H118  844   3.703   6.308   6.353 -2.3609  0.3238  1.2924
    4MOL   H119  845   3.716   6.420   6.490  0.1101  0.0743  0.3869
    4MOL   H120  846   3.794   6.715   6.270 -1.0403  0.8216 -0.0582
    4MOL   H121  847   3.805   6.632   6.418 -1.4675 -1.5137  0.6141
    4MOL   O122  848   3.613   6.738   6.527 -0.2238 -0.6223  0.8918
    4MOL   C123  849   3.515   6.811   6.593  0.4597  0.3026  0.8810
    4MOL   C124  850   3.437   6.698   6.682 -0.7284 -0.4160 -0.0061
    4MOL   C125  851   3.579   6.934   6.664 -0.0082 -0.6017 -0.2935
    4MOL   C126  852   3.470   7.032   6.700  0.0287 -0.3883  0.5184
    4MOL   O127  853   3.382   7.063   6.619  0.0240 -0.9279 -0.0356
    4MOL   H128  854   3.436   6.844   6.526 -1.9232 -1.3552  2.7586
    4MOL   H129  855   3.391   6.619   6.623 -0.2473 -0.5130 -0.2533
    4MOL   H130  856   3.361   6.742   6.746 -0.0428  3.8329 -1.9778
    4MOL   H131  857   3.504   6.648   6.752  1.4195  0.5328 -1.3439
    4MOL   H132  858   3.647   6.996   6.606 -1.5957  1.7845  0.3446
    4MOL   H133  859   3.630   6.904   6.756  1.6902  1.3830 -0.5646
    4MOL   O134  860   3.493   7.084   6.824 -0.1859 -0.2257 -0.3888
    4MOL   C135  861   3.411   7.184   6.874  0.4082 -0.2086 -0.1130
    4MOL   C136  862   3.282   7.124   6.948  0.3627 -0.8570 -0.1506
    4MOL   C137  863   3.497   7.278   6.960  0.8509 -0.1832 -0.2394
    4MOL   C138  864   3.449   7.425   6.972  0.1341  0.3520  0.5384
    4MOL   O139  865   3.367   7.475   6.897  0.5912 -0.2312 -0.4608
    4MOL   H140  866   3.374   7.252   6.798 -2.5942 -0.5256  0.9743
    4MOL   H141  867   3.217   7.071   6.879 -4.1553  1.9049  1.7782
    4MOL   H142  868   3.221   7.201   6.996  1.1049 -1.4518  1.8077
    4MOL   H143  869   3.312   7.059   7.031  1.5169  0.2419  0.3213
    4MOL   H144  870   3.592   7.291   6.909  1.1405 -1.4028 -0.0385
    4MOL   H145  871   3.504   7.240   7.062 -0.1695  0.9450  0.2580
    4MOL   O146  872   3.504   7.491   7.078 -0.3566 -0.1117 -0.8054
    4MOL   C147  873   3.477   7.624   7.095  0.3844  0.2423 -0.1940
    4MOL   C148  874   3.345   7.639   7.174 -0.2493  0.0642  0.5385
    4MOL   C149  875   3.605   7.681   7.162 -0.3879 -0.2417 -0.1742
    4MOL   C150  876   3.597   7.827   7.198 -0.4371  0.5834  0.0549
    4MOL   O151  877   3.585   7.865   7.313  0.2674  0.0957 -0.1462
    4MOL   H152  878   3.470   7.661   6.993 -1.3066  0.1603 -0.1192
    4MOL   H153  879   3.369   7.608   7.275 -0.5568  3.0429  1.5838
    4MOL   H154  880   3.268   7.571   7.137 -1.2003  1.8869 -0.9288
    4MOL   H155  881   3.303   7.739   7.175 -0.5157 -0.0526  0.9414
    4MOL   H156  882   3.687   7.661   7.094  0.1520 -2.7219  1.1581
    4MOL   H157  883   3.650   7.628   7.246  1.0462  2.4967  0.8627
    4MOL   O158  884   3.608   7.913   7.090  0.5712  0.0698  0.1586
    4MOL   C159  885   3.589   0.076   7.104  0.5355  0.3910  0.1038
    4MOL   C160  886   3.442   0.101   7.131 -0.0292 -0.0695 -0.1755
    4MOL   C161  887   3.691   0.164   7.194  0.0313  0.1282 -0.4342
    4MOL   C162  888   3.668   0.311   7.175 -0.0885 -0.4879  0.0792
    4MOL   O163  889   3.739   0.372   7.090 -0.1502 -0.6531  0.0238
    4MOL   H164  890   3.599   0.117   7.003 -1.8155  2.7047  0.7518
    4MOL   H165  891   3.389   0.061   7.217  0.6181  1.4389  0.9344
    4MOL   H166  892   3.391   0.051   7.049  0.6509 -0.1301 -0.5648
    4MOL   H167  893   3.414   0.206   7.127 -0.0799  0.0215  1.9826
    4MOL   H168  894   3.794   0.158   7.160  0.7614  0.1592  1.7086
    4MOL   H169  895   3.685   0.142   7.301  3.4289  0.0714 -0.2195
    4MOL   O170  896   3.570   0.362   7.255  0.6109 -0.4817  0.9156
    4MOL   C171  897   3.551   0.499   7.262 -0.3724  0.1129 -0.0959
    4MOL   C172  898   3.429   0.541   7.353 -0.2741 -0.0734 -0.4163
    4MOL   C173  899   3.684   0.575   7.303  0.6558 -0.5514 -0.0410
    4MOL   C174  900   3.738   0.548   7.445  0.2344 -0.3035  0.1452
    4MOL   O175  901   3.769   0.435   7.480 -0.0877  0.3087  0.2512
    4MOL   H176  902   3.532   0.539   7.162 -0.4671  1.2014  0.3523
    4MOL   H177  903   3.342   0.482   7.322 -1.8515  2.0372 -0.1382
    4MOL   H178  904   3.408   0.646   7.336 -1.3414 -0.2161 -0.0373
    4MOL   H179  905   3.453   0.521   7.457  2.1048 -0.9839 -1.1004
    4MOL   H180  906   3.665   0.682   7.298  2.7846 -0.1248  0.2027
    4MOL   H181  907   3.764   0.562   7.230  1.9273  0.5556  1.1314
    4MOL   O182  908   3.727   0.656   7.526  0.0366 -0.0853 -0.3763
    4MOL   C183  909   3.752   0.652   7.665 -0.3637  0.8909  0.9260
    4MOL   C184  910   3.858   0.760   7.681  0.4500 -0.2448 -0.0882
    4MOL   C185  911   3.618   0.686   7.742  0.3501  0.0699 -0.1170
    4MOL   C186  912   3.626   0.683   7.893 -0.5983  0.3302 -0.2356
    4MOL   O187  913   3.583   0.778   7.948 -0.0017  0.5676 -0.0678
    4MOL   H188  914   3.797   0.560   7.701 -3.5966 -1.2118 -0.1807
    4MOL   H189  915   3.815   0.858   7.659 -2.9703 -1.5781  0.4038
    4MOL   H190  916   3.934   0.728   7.609 -0.3320 -0.8073 -0.6702
    4MOL   H191  917   3.900   0.762   7.781  0.8272  3.0901 -0.2608
    4MOL   H192  918   3.536   0.622   7.709  0.7395 -0.7759  0.5279
    4MOL   H193  919   3.590   0.786   7.710 -0.7057  0.2845  1.4032
    4MOL   O194  920   3.698   0.573   7.947 -0.1311  0.1829 -0.2044
    4MOL   C195  921   3.735   0.574   0.102 -0.1723 -0.1197 -0.0879
    4MOL   C196  922   3.745   0.427   0.140 -0.4540  0.6768  0.1012
    4MOL   C197  923   3.861   0.658   0.146  0.5591  0.0436 -0.4350
    4MOL   C198  924   3.992   0.580   0.120  0.1972 -0.1519  0.0066
    4MOL   O199  925   4.066   0.555   0.221  0.4358  0.0225 -0.0371
    4MOL   H200  926   3.652   0.604   0.165  1.5159  2.5706  0.9359
    4MOL   H201  927   3.770   0.417   0.245 -1.1889 -0.0146  0.2088
    4MOL   H202  928   3.824   0.379   0.082 -0.5725  1.1968 -0.4906
    4MOL   H203  929   3.656   0.369   0.117 -0.1743  0.2134  0.1945
    4MOL   H204  930   3.859   0.685   0.252  0.2340 -1.1439 -0.1286
    4MOL   H205  931   3.869   0.747   0.083  1.1346 -0.6029 -1.2692
    4MOL   O206  932   4.015   0.531   7.967  0.4105 -0.4295 -0.1452
    4MOL   C207  933   4.136   0.470   7.935 -0.1057  0.1967 -0.2179
    4MOL   C208  934   4.132   0.317   7.942  0.0268 -0.6646 -0.0573
    4MOL   C209  935   4.174   0.527   7.794 -0.6960  0.0084  0.0330
    4MOL   C210  936   4.261   0.650   7.803  0.5944  0.0040 -0.1701
    4MOL   O211  937   4.225   0.731   7.885 -0.0992 -0.1873 -0.2272
    4MOL   H212  938   4.221   0.495   0.020  1.3393  0.0256 -1.9985
    4MOL   H213  939   4.226   0.277   7.905  1.6495  1.3190  1.7760
    4MOL   H214  940   4.051   0.279   7.879  0.8566 -1.9339 -0.3795
    4MOL   H215  941   4.111   0.279   0.062 -3.4524 -1.0297 -0.8408
    4MOL   H216  942   4.083   0.554   7.740  0.5007  0.8525 -1.5952
    4MOL   H217  943   4.222   0.454   7.729  0.8149 -1.2665  2.4898
    4MOL   O218  944   4.372   0.666   7.728  0.2691 -0.0201  0.9346
    4MOL   C219  945   4.461   0.770   7.752 -0.7103  0.6583  0.3050
    4MOL   C220  946   4.579   0.697   7.821  0.3516  0.2961 -0.0028
    4MOL   C221  947   4.504   0.854   7.626  0.1162 -0.2012 -0.2130
    4MOL   C222  948   4.403   0.947   7.562  0.4407 -0.1265 -0.4829
    4MOL   O223  949   4.397   1.067   7.600  0.5291  0.0918 -0.7620
    4MOL   H224  950   4.425   0.836   7.831  1.0274  1.1252  0.7222
    4MOL   H225  951   4.623   0.628   7.749  1.1911  0.7605  0.0550
    4MOL   H226  952   4.546   0.653   7.915  0.9918  1.4191  0.7609
    4MOL   H227  953   4.658   0.769   7.843 -0.1397  1.4209 -1.8755
    4MOL   H228  954   4.550   0.795   7.548  0.7396 -0.6488  0.4816
    4MOL   H229  955   4.576   0.930   7.657  1.7240 -0.4219 -3.3214
    4MOL   O230  956   4.333   0.880   7.466  0.3600  0.1853  0.9463
    4MOL   C231  957   4.278   0.950   7.357 -0.5182 -0.8561  0.0291
    4MOL   C232  958   4.333   0.876   7.232 -0.0211 -0.2713  0.1524
    4MOL   C233  959   4.127   0.943   7.368  0.0353 -0.1393  0.0509
    4MOL   C234  960   4.064   1.028   7.477  0.6062  0.4768  0.1082
    4MOL   O235  961   3.946   1.000   7.506  0.1069  0.0484 -0.0679
    4MOL   H236  962   4.298   1.057   7.359 -0.0130 -0.9423 -0.3118
    4MOL   H237  963   4.270   0.896   7.146 -1.1622  0.5698  1.1774
    4MOL   H238  964   4.341   0.769   7.253 -0.7607  0.0857  2.3349
    4MOL   H239  965   4.440   0.897   7.222  0.2050 -1.1636  0.6362
    4MOL   H240  966   4.102   0.838   7.379  1.6381 -1.0480 -4.1198
    4MOL   H241  967   4.083   0.981   7.275  0.6784  1.7973  0.5110
    4MOL   H242  968   4.116   1.106   7.533 -0.2822  0.3824  1.0925
    5MOL     O1  969   2.197   4.732   7.367 -0.1469 -0.0955  0.2119
    5MOL     C2  970   2.259   4.619   7.428  0.0966 -0.1306  0.0152
    5MOL     C3  971   2.295   4.526   7.319 -0.3504 -0.0785  0.1831
    5MOL     C4  972   2.397   4.680   7.479  0.9232 -0.4216  0.3853
    5MOL     C5  973   2.477   4.593   7.576 -0.0382 -0.3104  0.4282
    5MOL     O6  974   2.598   4.567   7.562  0.4227 -0.0264  0.0497
    5MOL     H7  975   2.195   4.578   7.506  1.7000 -0.3048  1.2826
    5MOL     H8  976   2.386   4.559   7.268  0.8585 -1.8311  1.1538
    5MOL     H9  977   2.217   4.513   7.243  2.0802 -1.9483 -2.1029
    5MOL    H10  978   2.318   4.426   7.355  2.0793  0.6586  0.7486
    5MOL    H11  979   2.377   4.769   7.538 -0.8706 -0.5382 -0.0256
    5MOL    H12  980   2.457   4.720   7.397 -0.6216  0.7770 -0.1741
    5MOL    H13  981   2.111   4.710   7.335  0.3933  0.5414 -1.6954
    5MOL    O14  982   2.396   4.541   7.671 -0.4056  0.2104 -0.3946
    5MOL    C15  983   2.446   4.456   7.775 -1.0844 -0.2463  0.4467
    5MOL    C16  984   2.379   4.488   7.905  0.6344  0.3388  0.2050
    5MOL    C17  985   2.428   4.316   7.721 -0.2421 -0.4727  0.2831
    5MOL    C18  986   2.525   4.251   7.629  0.1089 -0.5979  0.3208
    5MOL    O19  987   2.628   4.209   7.676  0.4407 -0.2965 -0.0656
    5MOL    H20  988   2.554   4.459   7.786 -1.0389  5.1771 -0.4232
    5MOL    H21  989   2.271   4.475   7.901  0.8699 -2.4489  1.7094
    5MOL    H22  990   2.412   4.587   7.936  0.7355 -0.0153  1.2164
    5MOL    H23  991   2.421   4.426   0.005 -3.5556 -1.9489  0.7596
    5MOL    H24  992   2.326   4.316   7.681 -0.1446 -1.2474  0.0141
    5MOL    H25  993   2.425   4.242   7.801  1.7172 -1.1101 -0.2189
    5MOL    O26  994   2.502   4.251   7.500 -0.7353 -0.7729 -0.3101
    5MOL    C27  995   2.600   4.183   7.412 -0.0089  0.2888  0.3994
    5MOL    C28  996   2.524   4.111   7.307  0.0968  0.5587  0.1279
    5MOL    C29  997   2.723   4.270   7.375  0.6478 -0.1650  0.0803
    5MOL    C30  998   2.839   4.204   7.300 -0.0389  0.5924  0.0695
    5MOL    O31  999   2.836   4.088   7.267 -0.0848  0.1014 -0.1128
    5MOL    H32 1000   2.651   4.110   7.473  0.6010  0.4249  0.0541
    5MOL    H33 1001   2.473   4.185   7.246  0.4995  1.6861  1.1628
    5MOL    H34 1002   2.466   4.037   7.362 -2.5932  2.3390 -0.2034
    5MOL    H35 1003   2.591   4.057   7.239 -1.2242 -1.4140  0.3663
    5MOL    H36 1004   2.762   4.321   7.463 -1.5788 -0.2615  1.1648
    5MOL    H37 1005   2.686   4.357   7.319 -1.8152 -1.2042  0.0260
    5MOL    O38 1006   2.937   4.296   7.276  0.0055 -0.0688  0.3604
    5MOL    C39 1007   3.071   4.258   7.239 -0.5231 -0.5691  0.3726
    5MOL    C40 1008   3.105   4.304   7.092 -0.4888  0.6519 -0.4015
    5MOL    C41 1009   3.163   4.305   7.351  1.1167 -0.0697 -0.1835
    5MOL    C42 1010   3.176   4.453   7.372 -0.5034  0.8548  0.7362
    5MOL    O43 1011   3.193   4.495   7.484 -0.0787  0.1137 -0.6034
    5MOL    H44 1012   3.071   4.149   7.247 -3.9117 -0.5439  1.3913
    5MOL    H45 1013   3.060   4.230   7.026  0.2279  0.9298 -1.2168
    5MOL    H46 1014   3.212   4.305   7.069  0.1419 -0.7289  2.2440
    5MOL    H47 1015   3.063   4.404   7.080  1.1232  1.4939  0.6357
    5MOL    H48 1016   3.262   4.263   7.335  0.9257 -1.0221  1.0503
    5MOL    H49 1017   3.137   4.259   7.447 -1.3081  0.5515 -0.5150
    5MOL    O50 1018   3.193   4.531   7.256 -0.3329 -0.1292 -0.0872
    5MOL    C51 1019   3.192   4.668   7.257  0.2370 -0.1990  0.1234
    5MOL    C52 1020   3.339   4.714   7.273  0.0462 -0.1557 -0.6723
    5MOL    C53 1021   3.136   4.723   7.127  0.2162  0.4630  0.4634
    5MOL    C54 1022   2.994   4.685   7.109 -0.2783 -0.1389  0.7880
    5MOL    O55 1023   2.951   4.623   7.010  0.0492 -0.0610  0.0568
    5MOL    H56 1024   3.146   4.718   7.343  1.0230 -1.0604  1.0480
    5MOL    H57 1025   3.400   4.716   7.183  2.7013  1.1436  1.0799
    5MOL    H58 1026   3.386   4.675   7.363 -2.2449 -0.3434  0.4767
    5MOL    H59 1027   3.323   4.819   7.295  1.1240  0.2935 -1.9342
    5MOL    H60 1028   3.188   4.704   7.033  0.3897 -0.3327  0.7159
    5MOL    H61 1029   3.142   4.832   7.132 -3.8199  0.8110 -1.0137
    5MOL    O62 1030   2.919   4.733   7.202  0.7642  0.0588  0.3714
    5MOL    C63 1031   2.780   4.737   7.198 -0.0056 -0.0205 -0.4592
    5MOL    C64 1032   2.723   4.613   7.251 -0.6401 -0.3976 -0.3226
    5MOL    C65 1033   2.729   4.861   7.266 -0.6605 -0.0396  0.2461
    5MOL    C66 1034   2.777   4.999   7.239  0.0581 -0.1833  0.0292
    5MOL    O67 1035   2.709   5.097   7.278  0.1327 -0.7236  0.0564
    5MOL    H68 1036   2.745   4.737   7.095 -0.2801 -0.3332 -0.3656
    5MOL    H69 1037   2.784   4.600   7.340 -2.1455  1.2304  0.9864
    5MOL    H70 1038   2.719   4.533   7.177 -3.3937  0.2675 -0.9571
    5MOL    H71 1039   2.617   4.617   7.276 -0.8284 -1.3522 -0.9511
    5MOL    H72 1040   2.736   4.846   7.374  1.2321  0.2099  0.1845
    5MOL    H73 1041   2.621   4.875   7.268 -0.2672  3.1713  2.2354
    5MOL    O74 1042   2.893   5.015   7.177 -0.1552 -0.4832 -0.2309
    5MOL    C75 1043   2.943   5.141   7.144  0.4525 -0.4445 -0.1111
    5MOL    C76 1044   3.099   5.147   7.166 -0.8003  0.2656 -0.0597
    5MOL    C77 1045   2.905   5.176   6.999  0.0278 -0.2164 -0.1180
    5MOL    C78 1046   2.920   5.316   6.936  0.0400 -0.1710 -0.1626
    5MOL    O79 1047   2.980   5.408   6.998  0.0387 -0.8453  0.1242
    5MOL    H80 1048   2.894   5.209   7.213 -0.1193  0.1138 -1.0541
    5MOL    H81 1049   3.152   5.069   7.113 -1.6438  0.2527 -0.8770
    5MOL    H82 1050   3.125   5.140   7.272  0.3151  2.2797 -0.1639
    5MOL    H83 1051   3.140   5.247   7.149  0.2133  0.0577  1.0594
    5MOL    H84 1052   2.796   5.162   7.001 -0.1768  1.1348 -1.2200
    5MOL    H85 1053   2.949   5.105   6.929  1.7028 -0.2959  0.9943
    5MOL    O86 1054   2.858   5.325   6.815  0.0892 -0.7407 -0.3158
    5MOL    C87 1055   2.873   5.438   6.728 -0.2022 -0.1524 -0.6148
    5MOL    C88 1056   3.012   5.465   6.683  0.4417  0.0747  0.1418
    5MOL    C89 1057   2.772   5.436   6.620 -0.2320  0.1069 -0.2393
    5MOL    C90 1058   2.723   5.566   6.544  0.1065 -0.3016  0.2086
    5MOL    O91 1059   2.718   5.573   6.420 -0.2948  0.2843  0.1857
    5MOL    H92 1060   2.845   5.517   6.797  0.1618 -1.8148  1.4855
    5MOL    H93 1061   3.067   5.514   6.764  1.7074  0.3838 -0.8834
    5MOL    H94 1062   3.015   5.545   6.609  0.3174 -0.1291 -0.0849
    5MOL    H95 1063   3.060   5.378   6.638 -0.6618  0.8992 -2.7360
    5MOL    H96 1064   2.681   5.395   6.664 -0.0710  0.0867  0.0726
    5MOL    H97 1065   2.811   5.362   6.549  0.0531  1.2303 -1.2697
    5MOL    O98 1066   2.670   5.653   6.631  0.2476  0.0113  0.0565
    5MOL    C99 1067   2.647   5.794   6.593 -0.2324  0.8021 -0.1219
    5MOL   C100 1068   2.497   5.824   6.563  0.9152 -0.2313  0.1268
    5MOL   C101 1069   2.701   5.872   6.706 -0.4494 -0.0698 -0.2054
    5MOL   C102 1070   2.707   6.023   6.689 -0.2054 -0.1022  0.4671
    5MOL   O103 1071   2.707   6.074   6.572 -0.0967 -0.3687 -0.6137
    5MOL   H104 1072   2.708   5.807   6.504 -1.1619 -0.3652 -0.9363
    5MOL   H105 1073   2.455   5.748   6.497 -0.1128  1.9035 -1.7363
    5MOL   H106 1074   2.481   5.923   6.521 -0.6767  0.1642  1.5729
    5MOL   H107 1075   2.435   5.832   6.653 -2.4778  2.8582 -2.3402
    5MOL   H108 1076   2.804   5.841   6.720 -1.4767 -3.2825  0.6065
    5MOL   H109 1077   2.645   5.848   6.796 -2.2081 -0.1417 -1.2931
    5MOL   O110 1078   2.730   6.087   6.804  0.3910 -0.8892 -0.6060
    5MOL   C111 1079   2.776   6.222   6.809 -0.1885 -0.4576 -0.1096
    5MOL   C112 1080   2.740   6.289   6.940  1.2241 -0.0907 -0.3254
    5MOL   C113 1081   2.928   6.217   6.787 -0.2109 -0.4890  0.0527
    5MOL   C114 1082   3.008   6.158   6.897 -0.1948  0.4013 -0.1577
    5MOL   O115 1083   3.050   6.218   6.995 -0.1444  0.1758  0.0865
    5MOL   H116 1084   2.732   6.289   6.735 -1.3684 -0.6012  0.4575
    5MOL   H117 1085   2.632   6.306   6.945  1.1814 -0.3604 -0.3438
    5MOL   H118 1086   2.796   6.382   6.940  1.4462 -0.1920 -2.4735
    5MOL   H119 1087   2.767   6.220   7.020 -2.2542  0.3412  1.3240
    5MOL   H120 1088   2.957   6.322   6.785 -0.0145 -0.5265  0.8596
    5MOL   H121 1089   2.960   6.179   6.690 -0.7582 -1.8773  0.4025
    5MOL   O122 1090   3.005   6.028   6.879 -0.4208 -0.4755 -0.8325
    5MOL   C123 1091   3.049   5.932   6.974 -1.0720 -0.4489 -0.7023
    5MOL   C124 1092   2.924   5.880   7.050 -0.0050 -0.1813 -0.0829
    5MOL   C125 1093   3.134   5.821   6.897 -0.4309  0.5114 -0.6935
    5MOL   C126 1094   3.216   5.737   7.003 -0.0076  0.4811  0.0691
    5MOL   O127 1095   3.331   5.700   6.975 -0.0015  0.1955  0.1903
    5MOL   H128 1096   3.111   5.984   7.048 -1.5418 -0.3651 -0.3576
    5MOL   H129 1097   2.948   5.818   7.135 -1.3065  0.5210  0.8090
    5MOL   H130 1098   2.858   5.817   6.990 -2.2634  1.0935  0.9903
    5MOL   H131 1099   2.867   5.969   7.077  0.4836  0.8847 -2.3874
    5MOL   H132 1100   3.212   5.864   6.834 -0.9199  3.0792  0.3942
    5MOL   H133 1101   3.079   5.763   6.824 -2.4811  0.8520  0.5520
    5MOL   O134 1102   3.150   5.705   7.125 -0.2547  0.1271 -0.0133
    5MOL   C135 1103   3.231   5.661   7.237  0.3225  0.5970 -0.0111
    5MOL   C136 1104   3.168   5.731   7.355 -0.3892  0.0557  0.3523
    5MOL   C137 1105   3.219   5.499   7.250  0.1685 -0.4576  0.6346
    5MOL   C138 1106   3.339   5.440   7.325  0.6376  0.0011 -0.2693
    5MOL   O139 1107   3.409   5.513   7.401  0.2539  0.2438 -0.0485
    5MOL   H140 1108   3.332   5.696   7.219 -0.2074  2.7742  1.0588
    5MOL   H141 1109   3.165   5.839   7.343 -2.1267 -0.2515 -2.5105
    5MOL   H142 1110   3.221   5.709   7.447 -1.2640  1.0266  1.0970
    5MOL   H143 1111   3.063   5.711   7.373 -0.4949  0.8344  0.5903
    5MOL   H144 1112   3.207   5.442   7.158 -2.0109  0.6687  0.1843
    5MOL   H145 1113   3.131   5.476   7.308 -0.5000 -1.2655 -0.6762
    5MOL   O146 1114   3.360   5.308   7.303 -0.2699  1.0205 -0.1670
    5MOL   C147 1115   3.421   5.222   7.403  0.3765  0.3382 -0.0520
    5MOL   C148 1116   3.351   5.219   7.534 -0.7287  0.2409 -1.2328
    5MOL   C149 1117   3.443   5.078   7.357 -0.9643  0.7040 -0.4450
    5MOL   C150 1118   3.540   5.071   7.241  0.1235  0.1810  0.4871
    5MOL   O151 1119   3.656   5.114   7.246  0.3809 -0.4102  0.3317
    5MOL   H152 1120   3.517   5.267   7.428  0.1787  1.3517 -1.0497
    5MOL   H153 1121   3.389   5.149   7.609  2.3785 -0.0221 -2.9861
    5MOL   H154 1122   3.249   5.182   7.519 -1.6127  1.4350  1.4540
    5MOL   H155 1123   3.345   5.316   7.584 -1.9372 -1.1618  1.4311
    5MOL   H156 1124   3.348   5.032   7.328  0.0090 -1.4697 -0.2927
    5MOL   H157 1125   3.485   5.021   7.440 -0.8071  1.1454 -0.2163
    5MOL   O158 1126   3.489   5.017   7.134  0.0169 -0.1282 -0.2032
    5MOL   C159 1127   3.548   5.020   7.003 -0.7213 -0.0400  0.6819
    5MOL   C160 1128   3.502   4.886   6.947 -0.2433 -0.6533 -0.1274
    5MOL   C161 1129   3.515   5.139   6.920  0.1250 -0.1544  0.1210
    5MOL   C162 1130   3.373   5.162   6.862  0.5034 -0.2353  0.3476
    5MOL   O163 1131   3.287   5.224   6.924  0.1477  0.5649  0.5689
    5MOL   H164 1132   3.655   5.010   7.021 -0.9333  0.7490  2.5922
    5MOL   H165 1133   3.529   4.890   6.842  3.0730 -0.7379  0.6597
    5MOL   H166 1134   3.397   4.856   6.945 -0.2188 -0.6959 -0.7233
    5MOL   H167 1135   3.567   4.807   6.984  1.2474  0.0139 -1.2951
    5MOL   H168 1136   3.592   5.146   6.843 -1.2380 -0.9682 -1.3438
    5MOL   H169 1137   3.525   5.229   6.980  0.1326 -0.2624  0.2807
    5MOL   O170 1138   3.359   5.107   6.734 -0.7658  0.7027  0.5144
    5MOL   C171 1139   3.243   5.110   6.663  0.3328  0.5557  0.5728
    5MOL   C172 1140   3.276   5.110   6.513  0.0557  0.5589  0.6170
    5MOL   C173 1141   3.149   4.989   6.691 -0.3406 -0.5908 -0.6179
    5MOL   C174 1142   2.997   5.012   6.665 -0.4256 -0.6910 -0.1050
    5MOL   O175 1143   2.960   5.107   6.595 -0.8103 -0.3942  0.2181
    5MOL   H176 1144   3.184   5.199   6.687  0.1728  1.0635 -1.6017
    5MOL   H177 1145   3.351   5.186   6.489  2.4707 -1.3852  1.7278
    5MOL   H178 1146   3.187   5.140   6.458 -0.2791  0.5217  1.1319
    5MOL   H179 1147   3.310   5.012   6.479  0.1416  0.4702  0.9556
    5MOL   H180 1148   3.160   4.967   6.797 -1.8451 -0.3144 -0.3988
    5MOL   H181 1149   3.186   4.898   6.643  2.0895  0.4930 -0.8411
    5MOL   O182 1150   2.917   4.929   6.725  0.0684 -0.5400  0.5186
    5MOL   C183 1151   2.772   4.919   6.702  0.4653 -0.7106 -0.0384
    5MOL   C184 1152   2.737   4.857   6.569  0.1998  0.4922 -0.6588
    5MOL   C185 1153   2.707   4.850   6.825 -0.2447  0.3503 -0.0150
    5MOL   C186 1154   2.563   4.905   6.835 -0.3530 -0.4490  0.1889
    5MOL   O187 1155   2.522   4.985   6.755 -0.0515  0.1813 -0.0087
    5MOL   H188 1156   2.744   5.024   6.703 -1.1355 -1.1323  0.9134
    5MOL   H189 1157   2.784   4.760   6.551 -0.5833  0.0368 -0.3181
    5MOL   H190 1158   2.762   4.927   6.490 -0.4147  1.0790 -0.3329
    5MOL   H191 1159   2.628   4.850   6.569  0.1932  0.0668  2.0775
    5MOL   H192 1160   2.766   4.890   6.908 -2.5001 -1.9863  2.8542
    5MOL   H193 1161   2.712   4.741   6.822  1.2907  0.4224 -0.5398
    5MOL   O194 1162   2.509   4.874   6.955  0.2565 -0.0492 -0.1450
    5MOL   C195 1163   2.384   4.932   6.997 -0.0852  0.0945 -0.7054
    5MOL   C196 1164   2.299   4.810   7.036  0.0189 -0.0779  0.4795
    5MOL   C197 1165   2.410   5.030   7.115  0.3192  0.5989  0.5877
    5MOL   C198 1166   2.298   5.121   7.170 -0.2918  0.8814  0.1665
    5MOL   O199 1167   2.194   5.141   7.105  0.7007  0.4692  0.1563
    5MOL   H200 1168   2.321   4.981   6.923  1.3272  2.2518 -0.5102
    5MOL   H201 1169   2.359   4.744   7.099  2.4331  0.4904 -1.1623
    5MOL   H202 1170   2.273   4.736   6.961  1.1787 -1.1922  1.1559
    5MOL   H203 1171   2.207   4.839   7.088  0.8632  0.0346  1.9387
    5MOL   H204 1172   2.497   5.090   7.088  1.3965 -0.7461  0.9437
    5MOL   H205 1173   2.448   4.961   7.191  0.0126  1.1347  1.2298
    5MOL   O206 1174   2.323   5.182   7.289  0.0861  0.0357  0.0607
    5MOL   C207 1175   2.239   5.284   7.338 -0.3852 -0.9312 -0.5350
    5MOL   C208 1176   2.138   5.219   7.437  0.6760 -0.0642  0.2328
    5MOL   C209 1177   2.319   5.401   7.396  0.1821  0.1676 -0.6683
    5MOL   C210 1178   2.408   5.483   7.301 -0.9321  0.5868 -0.1852
    5MOL   O211 1179   2.467   5.585   7.333 -0.3504 -0.3933  0.7495
    5MOL   H212 1180   2.180   5.327   7.256 -1.0265  1.9573  1.3776
    5MOL   H213 1181   2.072   5.300   7.469  0.8921  0.4082 -0.4991
    5MOL   H214 1182   2.165   5.160   7.524 -3.2321 -1.1354  0.8384
    5MOL   H215 1183   2.075   5.147   7.384 -0.6877  0.6592  0.8420
    5MOL   H216 1184   2.382   5.353   7.471  0.1593 -0.3045 -0.9493
    5MOL   H217 1185   2.244   5.468   7.438  1.4996  0.4958  1.1789
    5MOL   O218 1186   2.406   5.439   7.178  0.5755 -0.0004 -0.0649
    5MOL   C219 1187   2.486   5.501   7.077  0.2846  0.2068 -0.7606
    5MOL   C220 1188   2.538   5.395   6.973 -0.6351 -0.4761  0.5038
    5MOL   C221 1189   2.413   5.622   7.016 -0.4979  0.0091 -0.7512
    5MOL   C222 1190   2.316   5.581   6.909 -0.3126 -0.0938 -0.4988
    5MOL   O223 1191   2.336   5.607   6.790 -0.0868  0.0217 -0.1184
    5MOL   H224 1192   2.576   5.540   7.126 -0.9083  0.8585  0.9457
    5MOL   H225 1193   2.618   5.443   6.917 -1.2210  0.2911  0.3136
    5MOL   H226 1194   2.453   5.357   6.917 -0.4623  2.0419 -1.5526
    5MOL   H227 1195   2.569   5.304   7.025  1.6448  0.1231  0.2344
    5MOL   H228 1196   2.496   5.670   6.963 -0.2571 -1.9767 -2.2683
    5MOL   H229 1197   2.369   5.684   7.093 -0.7519 -0.4857 -0.4934
    5MOL   O230 1198   2.215   5.492   6.943 -0.2189 -0.2078  0.5024
    5MOL   C231 1199   2.124   5.446   6.834  0.6552  0.2811 -0.3407
    5MOL   C232 1200   2.168   5.300   6.801  0.0869 -0.3740  0.1044
    5MOL   C233 1201   1.980   5.452   6.874 -0.4160  0.3749 -0.6133
    5MOL   C234 1202   1.938   5.357   6.986 -0.3666  0.2002 -0.7369
    5MOL   O235 1203   1.828   5.305   6.976  0.1232 -0.7666  0.2632
    5MOL   H236 1204   2.124   5.506   6.743  1.8039  1.0589  0.1681
    5MOL   H237 1205   2.222   5.249   6.881  1.4380  1.4960  0.4308
    5MOL   H238 1206   2.232   5.304   6.713  1.1315  0.7385  0.8987
    5MOL   H239 1207   2.076   5.244   6.788  0.6780 -1.1690 -0.7550
    5MOL   H240 1208   1.935   5.450   6.775  1.1266  3.7487 -1.4359
    5MOL   H241 1209   1.963   5.551   6.915 -1.0818  0.5802 -1.3688
    5MOL   H242 1210   2.011   5.339   7.064 -0.1400 -0.2347 -1.0494
    6MOL     O1 1211   3.427   6.716   2.221 -0.1878 -0.3931 -0.0071
    6MOL     C2 1212   3.534   6.722   2.315  0.8615  0.0827 -0.2778
    6MOL     C3 1213   3.564   6.579   2.362 -0.4264 -0.0442  0.2508
    6MOL     C4 1214   3.643   6.795   2.238 -0.5784  0.6110  0.3499
    6MOL     C5 1215   3.767   6.830   2.331  0.1798  0.3451  0.6057
    6MOL     O6 1216   3.848   6.749   2.368 -0.0788  0.4264 -0.2999
    6MOL     H7 1217   3.507   6.790   2.395  3.3898  1.2707 -0.3734
    6MOL     H8 1218   3.629   6.528   2.291  1.8221  0.7630  1.6908
    6MOL     H9 1219   3.477   6.514   2.378 -0.9339  1.1176  2.5031
    6MOL    H10 1220   3.613   6.598   2.458 -1.7793  1.8789  0.6040
    6MOL    H11 1221   3.624   6.892   2.192  1.5956  1.1979  0.6390
    6MOL    H12 1222   3.679   6.732   2.156  0.5273 -0.6079  1.7430
    6MOL    H13 1223   3.367   6.650   2.251 -0.5765  0.3543  0.8910
    6MOL    O14 1224   3.777   6.969   2.343  0.2354  0.2885  0.3639
    6MOL    C15 1225   3.868   7.023   2.440 -0.3642  1.1867  0.2956
    6MOL    C16 1226   3.928   7.148   2.379 -0.1534 -0.0486  0.0600
    6MOL    C17 1227   3.801   7.039   2.575  0.3528 -0.4814  1.1293
    6MOL    C18 1228   3.905   7.054   2.687 -0.0818  0.4865  0.0826
    6MOL    O19 1229   4.022   7.071   2.663  0.1599  0.3907 -0.1583
    6MOL    H20 1230   3.952   6.955   2.454 -0.8169  0.4683 -0.4094
    6MOL    H21 1231   3.977   7.130   2.284  0.5772 -0.0880  0.4441
    6MOL    H22 1232   4.012   7.179   2.440 -0.2426 -1.1784  0.7583
    6MOL    H23 1233   3.839   7.209   2.359  0.7676  0.9899 -0.9473
    6MOL    H24 1234   3.741   6.950   2.592 -0.0410 -0.7114 -1.2321
    6MOL    H25 1235   3.739   7.129   2.574 -1.3548 -1.6343 -0.2827
    6MOL    O26 1236   3.854   7.024   2.806 -0.4796  0.0371  0.2247
    6MOL    C27 1237   3.934   7.030   2.925 -0.1507 -0.1211  0.7565
    6MOL    C28 1238   3.838   7.029   3.039 -0.3945  0.9695  0.0288
    6MOL    C29 1239   4.027   6.905   2.931 -0.3143  0.1072  0.0820
    6MOL    C30 1240   4.120   6.915   3.053 -0.2844 -0.2972 -0.4565
    6MOL    O31 1241   4.120   6.839   3.149 -0.0245 -0.0765  0.5967
    6MOL    H32 1242   3.986   7.123   2.945 -1.0978  0.4916  0.4240
    6MOL    H33 1243   3.789   6.932   3.035 -0.3692  0.9922 -0.9269
    6MOL    H34 1244   3.762   7.107   3.041 -0.2142  1.1461  0.1224
    6MOL    H35 1245   3.890   7.009   3.133 -1.2491  0.4065  0.3876
    6MOL    H36 1246   4.097   6.895   2.848 -0.5527  1.1163 -0.2501
    6MOL    H37 1247   3.975   6.809   2.935  3.0691 -1.8929 -1.2431
    6MOL    O38 1248   4.200   7.021   3.048  0.1250 -0.3396 -0.3095
    6MOL    C39 1249   4.295   7.052   3.157  0.1506 -0.4841  0.0644
    6MOL    C40 1250   4.425   6.984   3.126  0.3042 -0.4296  0.2420
    6MOL    C41 1251   4.302   7.206   3.148 -0.0536  0.1518  0.4799
    6MOL    C42 1252   4.380   7.274   3.267 -0.3407  0.4629 -1.0852
    6MOL    O43 1253   4.335   7.254   3.382  0.6662 -0.1260 -0.3194
    6MOL    H44 1254   4.255   7.015   3.251 -2.6392 -0.6017 -1.1407
    6MOL    H45 1255   4.461   7.020   3.030  0.6655  2.6794  1.4953
    6MOL    H46 1256   4.421   6.875   3.120  0.4440 -0.3793 -0.9361
    6MOL    H47 1257   4.514   7.002   3.185  0.1600  0.9179  0.0715
    6MOL    H48 1258   4.200   7.241   3.162 -0.0725  0.8751 -1.3346
    6MOL    H49 1259   4.335   7.241   3.051  1.3723  1.8453  1.5497
    6MOL    O50 1260   4.493   7.330   3.236  0.0134 -0.0558 -0.0617
    6MOL    C51 1261   4.564   7.411   3.332  0.1552  0.4957 -0.0924
    6MOL    C52 1262   4.716   7.349   3.331  0.4062  0.0650  0.1942
    6MOL    C53 1263   4.544   7.563   3.314  0.2246 -0.1349  0.4590
    6MOL    C54 1264   4.406   7.611   3.356 -0.0187  0.2190  0.0783
    6MOL    O55 1265   4.394   7.638   3.471 -0.4528 -0.4325  0.2210
    6MOL    H56 1266   4.525   7.385   3.431  3.0409 -1.3175  0.6295
    6MOL    H57 1267   4.767   7.403   3.411  0.1507 -0.5537  0.7806
    6MOL    H58 1268   4.765   7.354   3.233  1.6673  1.8492  0.8904
    6MOL    H59 1269   4.719   7.245   3.363  1.1830  0.0122 -0.0223
    6MOL    H60 1270   4.570   7.593   3.213 -0.5488  0.2859  0.3871
    6MOL    H61 1271   4.619   7.613   3.376  0.5729  0.3530 -0.3586
    6MOL    O62 1272   4.308   7.607   3.258  0.3129 -0.7692 -0.1705
    6MOL    C63 1273   4.175   7.641   3.291 -0.8556  0.7572 -0.5625
    6MOL    C64 1274   4.142   7.750   3.185 -0.1401 -0.0117 -0.3711
    6MOL    C65 1275   4.098   7.513   3.292 -0.3223 -0.0049 -0.3607
    6MOL    C66 1276   3.952   7.541   3.340 -1.2230 -0.4811  0.4149
    6MOL    O67 1277   3.861   7.512   3.262  0.3536  0.0077  0.0505
    6MOL    H68 1278   4.165   7.692   3.387 -0.0894 -1.2298  0.5865
    6MOL    H69 1279   4.036   7.774   3.180  0.1342  1.1316 -0.7490
    6MOL    H70 1280   4.171   7.708   3.088  1.5814  0.9901 -0.3124
    6MOL    H71 1281   4.201   7.840   3.199 -0.0139 -0.0781 -0.4764
    6MOL    H72 1282   4.130   7.422   3.343 -0.0704  0.1961 -0.1586
    6MOL    H73 1283   4.092   7.471   3.192  0.1081 -1.1408  0.0786
    6MOL    O74 1284   3.946   7.590   3.461  0.0252  0.2785  0.3392
    6MOL    C75 1285   3.819   7.616   3.523  0.6410  0.2798  0.5391
    6MOL    C76 1286   3.858   7.568   3.670  0.3906  0.2578  0.3785
    6MOL    C77 1287   3.800   7.771   3.497 -0.4914  0.4161 -0.7271
    6MOL    C78 1288   3.663   7.828   3.535 -0.0211 -0.0355  0.4027
    6MOL    O79 1289   3.586   7.864   3.447 -0.0874  0.2599 -0.3002
    6MOL    H80 1290   3.742   7.552   3.480 -1.4313  0.9678  3.0622
    6MOL    H81 1291   3.792   7.604   3.749 -0.5122  0.8100 -0.6051
    6MOL    H82 1292   3.957   7.595   3.705  0.9094  0.0441 -0.9131
    6MOL    H83 1293   3.849   7.460   3.683 -1.1826  0.3854  0.4792
    6MOL    H84 1294   3.813   7.787   3.390  1.2380  1.1485 -0.4347
    6MOL    H85 1295   3.878   7.815   3.560 -2.5529  0.4182  1.8977
    6MOL    O86 1296   3.654   7.851   3.666 -0.0111  0.6338  0.0205
    6MOL    C87 1297   3.544   7.939   3.712  0.1930 -0.1622  0.1369
    6MOL    C88 1298   3.463   7.864   3.819  0.0714  0.1584  0.5449
    6MOL    C89 1299   3.606   0.082   3.759 -0.1054  0.1578 -0.4346
    6MOL    C90 1300   3.506   0.187   3.817 -0.7157  0.2513  0.0737
    6MOL    O91 1301   3.531   0.259   3.915  0.0888  0.2169 -0.0717
    6MOL    H92 1302   3.480   0.006   3.637 -0.5330 -0.1586  0.7609
    6MOL    H93 1303   3.530   7.829   3.898 -0.3694  1.9330  1.7281
    6MOL    H94 1304   3.432   7.768   3.778  1.3647 -2.1139  4.5944
    6MOL    H95 1305   3.379   7.918   3.863 -1.5668 -2.7335  1.1007
    6MOL    H96 1306   3.671   0.130   3.685  0.7762  0.5738  0.5899
    6MOL    H97 1307   3.670   0.048   3.840  1.5626  1.2184 -1.2729
    6MOL    O98 1308   3.394   0.185   3.748 -0.1780  0.1829  0.4464
    6MOL    C99 1309   3.279   0.267   3.780  0.0220  0.1028  1.1810
    6MOL   C100 1310   3.239   0.336   3.648  0.3242 -0.2772  0.6381
    6MOL   C101 1311   3.166   0.193   3.852 -0.0092  0.3358  0.6592
    6MOL   C102 1312   3.212   0.136   3.985  0.8377 -0.3713  0.2840
    6MOL   O103 1313   3.212   0.016   4.007 -0.4408 -0.2418 -0.2501
    6MOL   H104 1314   3.302   0.352   3.844 -0.3554 -0.6880  2.3699
    6MOL   H105 1315   3.322   0.388   3.602 -1.5423  1.7682 -0.4852
    6MOL   H106 1316   3.157   0.404   3.670 -1.3940 -1.4002 -1.9829
    6MOL   H107 1317   3.203   0.259   3.579 -0.1043  1.4814 -1.1409
    6MOL   H108 1318   3.132   0.113   3.786 -0.1816  0.9621 -0.0236
    6MOL   H109 1319   3.089   0.269   3.865  0.1139  0.8220 -1.2086
    6MOL   O110 1320   3.258   0.232   4.069 -0.1732  0.0154  0.7874
    6MOL   C111 1321   3.294   0.211   4.201 -0.1223  0.3047  0.1365
    6MOL   C112 1322   3.449   0.212   4.206 -0.2269 -0.2356  0.3537
    6MOL   C113 1323   3.226   0.316   4.287 -0.3654  0.2323  0.4236
    6MOL   C114 1324   3.250   0.294   4.438  0.6446 -0.4614 -0.1843
    6MOL   O115 1325   3.269   0.392   4.508  0.2354 -0.0562 -0.0488
    6MOL   H116 1326   3.255   0.112   4.225 -3.3364  0.7394 -2.8242
    6MOL   H117 1327   3.499   0.150   4.131  1.2071  0.5252  0.6695
    6MOL   H118 1328   3.478   0.184   4.307 -1.1893 -0.3737  0.5937
    6MOL   H119 1329   3.485   0.313   4.188  1.7306 -0.8664  0.5828
    6MOL   H120 1330   3.117   0.321   4.276 -0.4321 -0.6341  0.6481
    6MOL   H121 1331   3.267   0.415   4.271 -1.4585  1.2749  3.5731
    6MOL   O122 1332   3.246   0.166   4.473 -0.3872 -0.1554  0.1892
    6MOL   C123 1333   3.276   0.132   4.609 -0.3202 -0.0590 -0.1531
    6MOL   C124 1334   3.209   7.973   4.638  0.8428 -0.0222 -0.0515
    6MOL   C125 1335   3.429   0.140   4.642  0.2629  0.2739  0.7081
    6MOL   C126 1336   3.516   0.028   4.597 -0.5006 -0.1897  0.2105
    6MOL   O127 1337   3.572   0.031   4.491  0.2333 -0.0305  0.0480
    6MOL   H128 1338   3.225   0.200   4.676 -1.3667 -0.0216 -0.9835
    6MOL   H129 1339   3.238   7.896   4.567 -0.3708  0.0173 -0.6083
    6MOL   H130 1340   3.100   7.973   4.625  1.0957 -1.8035 -2.5288
    6MOL   H131 1341   3.244   7.941   4.736  1.4165  0.6178 -0.0476
    6MOL   H132 1342   3.435   0.151   4.750  1.4286  1.1684  0.5636
    6MOL   H133 1343   3.469   0.229   4.593  2.3670 -0.8960  0.2483
    6MOL   O134 1344   3.535   7.914   4.687  0.0484  0.5545  0.7310
    6MOL   C135 1345   3.605   7.794   4.660 -0.9455  0.1687  0.1465
    6MOL   C136 1346   3.752   7.802   4.710  0.3153 -0.0046  0.1124
    6MOL   C137 1347   3.526   7.678   4.712 -0.4778 -0.4004 -0.2448
    6MOL   C138 1348   3.515   7.675   4.863  0.3851 -0.6262 -0.0416
    6MOL   O139 1349   3.556   7.582   4.935  0.6204 -0.0979  0.4460
    6MOL   H140 1350   3.601   7.775   4.553  1.3484 -1.2618  0.2898
    6MOL   H141 1351   3.766   7.842   4.810  1.9909  0.0173 -0.1194
    6MOL   H142 1352   3.805   7.868   4.642  1.2371 -1.4138 -0.5717
    6MOL   H143 1353   3.802   7.705   4.700  1.3029  0.4087  1.0159
    6MOL   H144 1354   3.574   7.583   4.685  0.1480 -0.2276  0.2396
    6MOL   H145 1355   3.424   7.677   4.675 -0.8267 -0.1110  0.6846
    6MOL   O146 1356   3.445   7.781   4.906  0.1379 -0.4233 -0.6288
    6MOL   C147 1357   3.446   7.803   5.042  0.6341  0.1264 -0.1253
    6MOL   C148 1358   3.455   7.951   5.061  0.4263 -0.2561 -0.7860
    6MOL   C149 1359   3.319   7.741   5.104 -0.3449  0.2359 -0.3023
    6MOL   C150 1360   3.187   7.766   5.042  0.6224 -0.0364  0.1559
    6MOL   O151 1361   3.165   7.861   4.969  0.0390 -0.5125 -0.5938
    6MOL   H152 1362   3.518   7.745   5.100 -1.5843 -0.6305  1.9839
    6MOL   H153 1363   3.363   0.010   5.017  0.5653 -0.1690 -0.9988
    6MOL   H154 1364   3.535   0.012   4.998  0.4643 -0.0648 -0.6170
    6MOL   H155 1365   3.451   0.007   5.164 -1.1279 -1.5259 -0.3990
    6MOL   H156 1366   3.318   7.774   5.208  0.5730  0.0884 -0.2429
    6MOL   H157 1367   3.348   7.636   5.099  1.1005  0.6029  0.2744
    6MOL   O158 1368   3.107   7.672   5.074 -0.4809  0.5041  0.2584
    6MOL   C159 1369   2.970   7.676   5.053  0.2229 -0.2639 -0.0395
    6MOL   C160 1370   2.943   7.547   4.969  0.4051 -0.0638  0.0114
    6MOL   C161 1371   2.898   7.683   5.195 -0.1773 -0.6027 -0.0610
    6MOL   C162 1372   2.929   7.817   5.257 -0.2633  0.2098  0.1307
    6MOL   O163 1373   2.900   7.914   5.188  0.1291 -0.2532  0.2803
    6MOL   H164 1374   2.935   7.756   4.987  0.0898 -0.5174 -0.2768
    6MOL   H165 1375   2.996   7.460   5.007  0.4197 -1.3893 -2.9056
    6MOL   H166 1376   2.977   7.569   4.868  0.4591  2.1954  0.4819
    6MOL   H167 1377   2.836   7.525   4.959  0.5033 -0.1910 -0.7864
    6MOL   H168 1378   2.931   7.599   5.256 -0.3562  1.0896  2.4456
    6MOL   H169 1379   2.791   7.674   5.180 -0.4371 -0.7182  1.7681
    6MOL   O170 1380   2.991   7.808   5.373  0.2392  0.3933 -0.0598
    6MOL   C171 1381   3.041   7.923   5.445  0.4368 -0.9986 -0.1026
    6MOL   C172 1382   2.937   7.965   5.555 -0.4478 -0.1062 -0.0998
    6MOL   C173 1383   3.178   7.886   5.489 -0.1265  0.5635 -0.0369
    6MOL   C174 1384   3.264   0.026   5.541  0.1514  0.0741  0.2276
    6MOL   O175 1385   3.230   0.143   5.524 -0.4354  0.1018 -0.3709
    6MOL   H176 1386   3.043   0.015   5.364 -1.4491  0.3120  0.9811
    6MOL   H177 1387   2.899   7.873   5.598 -0.4239  0.2674  0.7239
    6MOL   H178 1388   2.858   0.045   5.510 -0.2600  0.6981  0.6189
    6MOL   H179 1389   2.981   0.045   5.635 -1.1141 -1.7121  1.4833
    6MOL   H180 1390   3.233   7.837   5.409 -0.9087 -0.7693  0.2331
    6MOL   H181 1391   3.174   7.812   5.569  1.0987  0.4779 -0.0447
    6MOL   O182 1392   3.363   7.963   5.617 -0.3077 -0.2374  0.1561
    6MOL   C183 1393   3.450   0.076   5.680  0.4006 -1.5201 -0.4433
    6MOL   C184 1394   3.442   0.053   5.836  0.2287  0.5185  0.1045
    6MOL   C185 1395   3.589   0.046   5.612 -0.3907  0.7373  0.6760
    6MOL   C186 1396   3.588   0.120   5.472 -0.2943 -0.3963 -0.0799
    6MOL   O187 1397   3.568   0.065   5.368 -0.4623  0.9027 -0.2118
    6MOL   H188 1398   3.424   0.177   5.650  2.0959 -0.2352  2.1810
    6MOL   H189 1399   3.520   0.114   5.884 -0.9741  1.3187  1.0762
    6MOL   H190 1400   3.459   7.927   5.852 -2.2475  0.1842  0.6383
    6MOL   H191 1401   3.339   0.075   5.862 -0.4218 -1.2922 -0.9000
    6MOL   H192 1402   3.614   7.920   5.603 -1.1162  0.5441  0.8889
    6MOL   H193 1403   3.665   0.096   5.671  1.1315 -0.7248 -0.0087
    6MOL   O194 1404   3.625   0.253   5.487 -0.1044  0.0631 -0.3107
    6MOL   C195 1405   3.626   0.344   5.376  0.8324  0.3752 -0.7483
    6MOL   C196 1406   3.520   0.454   5.419  0.6659 -0.4143  0.2042
    6MOL   C197 1407   3.768   0.390   5.360  1.3594 -0.2948  0.3262
    6MOL   C198 1408   3.785   0.455   5.221 -0.0608  0.3190  0.3267
    6MOL   O199 1409   3.738   0.565   5.191  0.0204 -0.2767 -0.1019
    6MOL   H200 1410   3.613   0.295   5.280  1.0267  0.2140 -0.6928
    6MOL   H201 1411   3.545   0.489   5.519 -1.5217 -0.3659  0.7718
    6MOL   H202 1412   3.418   0.418   5.430  0.5220 -0.1553 -0.2400
    6MOL   H203 1413   3.526   0.540   5.353  1.9615  0.5668  1.5754
    6MOL   H204 1414   3.831   0.302   5.363  1.1031 -0.4376  2.2581
    6MOL   H205 1415   3.784   0.454   5.447 -0.2166 -1.4109  1.4772
    6MOL   O206 1416   3.854   0.374   5.138  0.4792 -0.2588  0.2289
    6MOL   C207 1417   3.900   0.423   5.011  0.3771  0.2247 -0.1310
    6MOL   C208 1418   4.049   0.444   5.027 -0.1356 -0.2522 -0.6098
    6MOL   C209 1419   3.857   0.320   4.911  0.6939  0.2695  0.2956
    6MOL   C210 1420   3.707   0.319   4.881  0.1022 -0.2680  0.5535
    6MOL   O211 1421   3.653   0.212   4.854  0.7917  0.2255 -0.3144
    6MOL   H212 1422   3.847   0.515   4.985 -0.1197  0.0181  0.1461
    6MOL   H213 1423   4.100   0.355   5.062  2.8365  1.3310 -0.7896
    6MOL   H214 1424   4.056   0.524   5.101  0.5655  2.2920 -3.3194
    6MOL   H215 1425   4.090   0.465   4.929  1.1075 -0.0721 -0.0571
    6MOL   H216 1426   3.901   0.221   4.928 -0.5847 -0.1903  1.0081
    6MOL   H217 1427   3.900   0.351   4.816  0.9685  1.3841  0.7759
    6MOL   O218 1428   3.645   0.437   4.895 -0.1178 -0.4788 -0.9796
    6MOL   C219 1429   3.504   0.454   4.898  0.3068 -0.4170  0.1963
    6MOL   C220 1430   3.455   0.415   5.042  0.1833  0.3303  0.2647
    6MOL   C221 1431   3.493   0.600   4.864 -0.4619 -0.4564 -0.7053
    6MOL   C222 1432   3.358   0.663   4.892  0.5421  0.0110  0.7918
    6MOL   O223 1433   3.265   0.664   4.813  0.7292 -0.6449 -0.1925
    6MOL   H224 1434   3.461   0.395   4.817  0.4124 -1.4564  0.8985
    6MOL   H225 1435   3.439   0.308   5.043 -0.9812  0.4956 -0.3641
    6MOL   H226 1436   3.356   0.458   5.056  0.1396  0.1749  0.4290
    6MOL   H227 1437   3.516   0.452   5.125 -2.3230 -2.1043  3.3240
    6MOL   H228 1438   3.515   0.611   4.758 -1.2128 -0.4940 -0.8683
    6MOL   H229 1439   3.560   0.662   4.925 -1.9573  1.1684 -0.6645
    6MOL   O230 1440   3.359   0.709   5.021  0.2034 -0.1435  0.3644
    6MOL   C231 1441   3.247   0.792   5.070 -0.0553  0.2773  0.1907
    6MOL   C232 1442   3.158   0.709   5.158 -0.7402  0.2363 -0.0211
    6MOL   C233 1443   3.310   0.901   5.157  0.3452  0.0478  0.6772
    6MOL   C234 1444   3.418   0.855   5.258  0.2307  0.0281 -0.3143
    6MOL   O235 1445   3.542   0.856   5.236  0.2490  0.0702  0.2084
    6MOL   H236 1446   3.190   0.830   4.985  1.5665 -0.8895 -1.4672
    6MOL   H237 1447   3.209   0.668   5.246  0.1673  2.2068  0.4018
    6MOL   H238 1448   3.128   0.614   5.113  0.5555  0.0055 -0.4068
    6MOL   H239 1449   3.071   0.764   5.195 -0.9013  0.7475 -1.1520
    6MOL   H240 1450   3.231   0.948   5.216  1.8156  3.1709  0.2620
    6MOL   H241 1451   3.355   0.972   5.087 -0.3055  1.9447  2.1545
    6MOL   H242 1452   3.379   0.831   5.357 -1.2827 -1.9233 -1.3448
    7MOL     O1 1453   3.953   3.648   1.306 -0.3269  0.1505 -0.2848
    7MOL     C2 1454   3.834   3.587   1.263  0.2867 -0.2576  0.0318
    7MOL     C3 1455   3.853   3.440   1.241 -0.0543 -0.0164 -0.0597
    7MOL     C4 1456   3.729   3.623   1.373  0.0979 -0.4169 -0.0504
    7MOL     C5 1457   3.589   3.571   1.344 -0.1842 -0.3417 -0.2929
    7MOL     O6 1458   3.531   3.499   1.423  0.2939  0.4344  0.1788
    7MOL     H7 1459   3.800   3.626   1.167 -0.9978 -1.3912  0.0153
    7MOL     H8 1460   3.947   3.428   1.187  0.6896  0.3047  1.1441
    7MOL     H9 1461   3.772   3.391   1.188 -1.2821  2.6015 -0.7004
    7MOL    H10 1462   3.854   3.381   1.332  1.2173 -0.4835 -0.3671
    7MOL    H11 1463   3.726   3.732   1.384 -1.5352 -0.2075 -2.2027
    7MOL    H12 1464   3.759   3.586   1.471  0.8652  0.0310 -0.1084
    7MOL    H13 1465   3.938   3.741   1.315 -1.3607 -0.1032  0.7685
    7MOL    O14 1466   3.535   3.619   1.232  0.0390 -0.0014 -0.4448
    7MOL    C15 1467   3.399   3.651   1.239 -0.0808 -0.0899 -0.5600
    7MOL    C16 1468   3.390   3.802   1.259  0.4948 -0.8291 -0.0173
    7MOL    C17 1469   3.340   3.611   1.105 -0.2660  0.1394 -0.4785
    7MOL    C18 1470   3.294   3.460   1.091  0.2683 -1.1326 -0.1697
    7MOL    O19 1471   3.205   3.432   1.017  0.2679 -0.1855 -0.1975
    7MOL    H20 1472   3.349   3.600   1.321  0.0427 -1.2298 -1.1843
    7MOL    H21 1473   3.443   3.839   1.346  1.4993 -2.0001 -0.1036
    7MOL    H22 1474   3.289   3.841   1.254  0.2104 -1.2972  1.6473
    7MOL    H23 1475   3.437   3.851   1.174 -1.4054  1.1894  0.0551
    7MOL    H24 1476   3.402   3.650   1.024 -0.5336  1.5655 -0.0261
    7MOL    H25 1477   3.252   3.673   1.085 -0.7404 -0.4018 -0.0829
    7MOL    O26 1478   3.352   3.379   1.179 -0.1694 -0.3772 -0.1318
    7MOL    C27 1479   3.324   3.239   1.169 -0.0027  0.3428 -1.0690
    7MOL    C28 1480   3.438   3.179   1.259 -0.3616  0.2688  0.2006
    7MOL    C29 1481   3.183   3.189   1.219 -0.0653 -0.4064 -0.4399
    7MOL    C30 1482   3.151   3.044   1.195  0.3277 -0.4385 -0.9953
    7MOL    O31 1483   3.079   2.988   1.279  0.1148  0.0821 -0.2201
    7MOL    H32 1484   3.341   3.208   1.065 -0.5861 -0.5565 -0.8970
    7MOL    H33 1485   3.429   3.070   1.263  1.5839  0.0393 -0.6970
    7MOL    H34 1486   3.418   3.218   1.359 -0.7788  0.4216  0.0591
    7MOL    H35 1487   3.537   3.214   1.231 -0.3139 -0.3239 -0.3987
    7MOL    H36 1488   3.103   3.242   1.166  0.4784  0.1433 -0.7148
    7MOL    H37 1489   3.169   3.213   1.324 -2.3669  0.7273 -0.9616
    7MOL    O38 1490   3.191   3.000   1.071 -0.1791  0.0351 -0.2852
    7MOL    C39 1491   3.161   2.864   1.045  0.0099  1.1640  0.8301
    7MOL    C40 1492   3.062   2.876   0.924 -0.5091 -0.0025 -0.2612
    7MOL    C41 1493   3.288   2.784   1.021 -0.1584  0.8979  0.4832
    7MOL    C42 1494   3.258   2.631   1.013  0.8027  0.0685  0.0415
    7MOL    O43 1495   3.223   2.564   1.110 -0.5333 -0.0687 -0.1897
    7MOL    H44 1496   3.094   2.817   1.116  0.0184  2.0725  1.4561
    7MOL    H45 1497   3.115   2.892   0.831 -0.0727 -0.0769 -0.0282
    7MOL    H46 1498   2.989   2.956   0.937  0.4190  0.7855  0.2424
    7MOL    H47 1499   3.006   2.784   0.910 -2.3144  1.0587 -0.1839
    7MOL    H48 1500   3.364   2.800   1.098  0.1881  0.2866  0.2692
    7MOL    H49 1501   3.333   2.819   0.928  1.0526 -2.5678 -0.3166
    7MOL    O50 1502   3.275   2.586   0.888 -0.1508 -0.2980  0.3227
    7MOL    C51 1503   3.241   2.449   0.855  0.4920 -0.0695  0.7647
    7MOL    C52 1504   3.177   2.455   0.717 -0.5652  0.0405 -0.2219
    7MOL    C53 1505   3.355   2.348   0.874  0.3144 -0.1192 -0.2482
    7MOL    C54 1506   3.318   2.206   0.848 -0.0121  0.4824  0.0007
    7MOL    O55 1507   3.248   2.137   0.924  0.7433 -0.6558 -0.3975
    7MOL    H56 1508   3.159   2.417   0.920 -0.1562  2.1974  1.1086
    7MOL    H57 1509   3.252   2.456   0.637 -0.3229  1.7769 -0.0059
    7MOL    H58 1510   3.113   2.543   0.706 -0.5988 -0.4254 -4.5864
    7MOL    H59 1511   3.125   2.361   0.697  0.7260 -1.0670  1.5061
    7MOL    H60 1512   3.378   2.355   0.981 -1.6102  1.5738  0.0779
    7MOL    H61 1513   3.452   2.371   0.829  0.4463  1.3139  0.7204
    7MOL    O62 1514   3.372   2.163   0.730  0.4194 -0.5755 -0.0050
    7MOL    C63 1515   3.354   2.031   0.685  0.3530 -0.3660  0.1021
    7MOL    C64 1516   3.386   2.055   0.542 -0.9976  0.6185  1.0401
    7MOL    C65 1517   3.449   1.932   0.761 -0.0512 -0.6352 -0.6328
    7MOL    C66 1518   3.388   1.857   0.878  0.5041  0.4235 -0.3147
    7MOL    O67 1519   3.317   1.756   0.854 -0.3355 -0.9414 -0.1858
    7MOL    H68 1520   3.248   2.014   0.703  0.3032 -1.5988 -1.2581
    7MOL    H69 1521   3.380   1.957   0.493 -2.3433  0.8709  0.6830
    7MOL    H70 1522   3.490   2.089   0.536 -0.9975  0.4001 -0.5401
    7MOL    H71 1523   3.325   2.123   0.484  0.9928  0.8434 -0.8812
    7MOL    H72 1524   3.543   1.982   0.785 -0.0769 -0.3276 -1.1642
    7MOL    H73 1525   3.489   1.856   0.694  0.7720 -1.1155  0.3932
    7MOL    O74 1526   3.426   1.895   1.001  0.6268 -0.2456 -0.5255
    7MOL    C75 1527   3.380   1.836   1.122  0.0207 -0.3892 -0.2802
    7MOL    C76 1528   3.498   1.872   1.217 -0.3240 -0.0051  0.8541
    7MOL    C77 1529   3.239   1.890   1.161 -0.2582  0.3113 -0.0712
    7MOL    C78 1530   3.181   1.816   1.287 -0.0423  0.4082  0.6274
    7MOL    O79 1531   3.236   1.715   1.331 -0.1648  0.2542 -0.8014
    7MOL    H80 1532   3.375   1.727   1.115 -1.6083 -0.3120 -0.5549
    7MOL    H81 1533   3.494   1.831   1.318  0.0930 -2.3147 -0.0185
    7MOL    H82 1534   3.511   1.979   1.228  0.4008  0.1072 -0.9534
    7MOL    H83 1535   3.595   1.833   1.187 -0.6600  0.0999 -0.3724
    7MOL    H84 1536   3.181   1.869   1.071  0.1873  1.8403 -0.7290
    7MOL    H85 1537   3.234   1.997   1.176  0.4875 -0.0933  3.6056
    7MOL    O86 1538   3.053   1.852   1.312 -0.0288 -0.3588  0.2567
    7MOL    C87 1539   3.002   1.809   1.439 -0.3055 -0.6245 -0.4438
    7MOL    C88 1540   2.949   1.933   1.501  0.2946  0.0605 -0.1338
    7MOL    C89 1541   2.891   1.712   1.421 -0.4729 -0.4282 -0.8303
    7MOL    C90 1542   2.933   1.575   1.382  0.3421  0.0694 -0.2350
    7MOL    O91 1543   2.936   1.478   1.455  0.0777 -0.0025  0.0194
    7MOL    H92 1544   3.085   1.777   1.502 -0.1685 -0.0841 -0.3420
    7MOL    H93 1545   3.020   2.014   1.516 -1.6066  1.1693  3.3477
    7MOL    H94 1546   2.932   1.910   1.606 -0.0012 -0.8111 -0.3682
    7MOL    H95 1547   2.849   1.963   1.471  1.1550  3.2006 -0.0006
    7MOL    H96 1548   2.814   1.761   1.361 -0.2563  3.0939  1.6036
    7MOL    H97 1549   2.851   1.703   1.522  1.3937  3.1799  0.3137
    7MOL    O98 1550   2.957   1.570   1.246 -0.0745 -0.2253  0.3477
    7MOL    C99 1551   3.001   1.458   1.184 -0.6595  0.1548 -0.2183
    7MOL   C100 1552   2.886   1.361   1.145  0.7731 -0.2972 -0.2434
    7MOL   C101 1553   3.080   1.516   1.060  0.4498 -0.1779 -0.1465
    7MOL   C102 1554   3.187   1.425   1.005 -0.0468  0.7461 -0.5520
    7MOL   O103 1555   3.156   1.332   0.942  0.1506  0.0488  0.0297
    7MOL   H104 1556   3.073   1.413   1.252 -0.6129  1.0415  0.3304
    7MOL   H105 1557   2.797   1.404   1.101  0.3100 -1.1839 -0.1903
    7MOL   H106 1558   2.851   1.322   1.241 -0.8407 -1.1283 -1.1427
    7MOL   H107 1559   2.929   1.284   1.081  3.3856  1.1608 -0.2988
    7MOL   H108 1560   3.126   1.609   1.093 -0.3011  0.6812 -1.4907
    7MOL   H109 1561   2.998   1.533   0.990 -0.2544  2.5148  1.2695
    7MOL   O110 1562   3.311   1.441   1.070 -0.2975 -0.0306  0.1192
    7MOL   C111 1563   3.424   1.354   1.046 -0.0604  0.3904  0.8143
    7MOL   C112 1564   3.540   1.441   0.991 -0.6757 -0.7417  0.1315
    7MOL   C113 1565   3.452   1.262   1.165 -0.3006  0.5371 -0.2183
    7MOL   C114 1566   3.510   1.327   1.291  0.2852  0.2006  0.2485
    7MOL   O115 1567   3.626   1.317   1.321  0.1041 -0.2002 -0.7049
    7MOL   H116 1568   3.390   1.291   0.964  1.8020 -0.3576  0.6092
    7MOL   H117 1569   3.513   1.493   0.899  0.4513 -1.8029 -0.8250
    7MOL   H118 1570   3.637   1.399   0.963  0.4219  0.7723  1.5871
    7MOL   H119 1571   3.555   1.523   1.061  1.4043 -1.6282  0.7922
    7MOL   H120 1572   3.518   1.183   1.130  0.2591  0.5883  0.6866
    7MOL   H121 1573   3.359   1.212   1.192 -0.9382  0.8270 -1.8586
    7MOL   O122 1574   3.415   1.383   1.375  0.7297  0.5002  0.1203
    7MOL   C123 1575   3.450   1.452   1.497 -0.8953  0.0677 -0.2824
    7MOL   C124 1576   3.547   1.570   1.488 -0.1650  0.1402 -0.1104
    7MOL   C125 1577   3.307   1.488   1.561  0.3560  0.2045  0.1688
    7MOL   C126 1578   3.305   1.562   1.691 -0.3431  0.5065 -0.5765
    7MOL   O127 1579   3.239   1.668   1.713 -0.4099  0.0439  0.0136
    7MOL   H128 1580   3.488   1.380   1.570 -0.5966  0.9081  0.4047
    7MOL   H129 1581   3.507   1.651   1.428 -1.0972 -0.3911 -0.2186
    7MOL   H130 1582   3.643   1.533   1.455  0.2972  0.7156  0.5726
    7MOL   H131 1583   3.553   1.601   1.593  1.4391 -1.7752  0.3932
    7MOL   H132 1584   3.258   1.394   1.587 -1.4600  0.8716 -0.7411
    7MOL   H133 1585   3.236   1.538   1.495 -0.2369  3.0855  2.8458
    7MOL   O134 1586   3.385   1.507   1.781 -0.3744 -0.5669  0.1872
    7MOL   C135 1587   3.407   1.568   1.909  0.2527  0.1436  0.8275
    7MOL   C136 1588   3.432   1.458   2.004  0.0816 -0.0036  0.0031
    7MOL   C137 1589   3.527   1.670   1.910 -0.4056  0.1893 -0.5504
    7MOL   C138 1590   3.493   1.813   1.863 -0.0854  0.6630 -0.2653
    7MOL   O139 1591   3.451   1.892   1.945 -0.3714  0.4581  0.4384
    7MOL   H140 1592   3.324   1.633   1.936  0.7593  0.4703  1.6391
    7MOL   H141 1593   3.505   1.394   1.955 -1.4157 -0.6135 -1.5041
    7MOL   H142 1594   3.344   1.395   2.020 -1.1446  1.6902  0.0393
    7MOL   H143 1595   3.470   1.489   2.101  0.8000  2.4106 -1.0239
    7MOL   H144 1596   3.606   1.614   1.860 -0.4027 -1.3167  1.0926
    7MOL   H145 1597   3.569   1.679   2.010 -2.6139  0.9343  0.3397
    7MOL   O146 1598   3.543   1.836   1.735 -0.0683 -0.2987 -0.4381
    7MOL   C147 1599   3.512   1.967   1.683 -0.1475  0.2697  0.3306
    7MOL   C148 1600   3.622   2.010   1.586 -0.4632 -0.7129  0.7184
    7MOL   C149 1601   3.377   1.951   1.605 -0.3929  0.8695 -0.6694
    7MOL   C150 1602   3.318   2.085   1.573 -0.3808 -0.6680  0.6447
    7MOL   O151 1603   3.275   2.108   1.456 -0.0741 -0.2056  0.2992
    7MOL   H152 1604   3.500   2.035   1.767  0.5995 -0.6534  1.2034
    7MOL   H153 1605   3.630   2.119   1.578  1.3161 -0.7317  1.8957
    7MOL   H154 1606   3.616   1.959   1.490  0.3678  2.5460 -1.1705
    7MOL   H155 1607   3.719   1.984   1.628  0.4821  3.6669  1.4862
    7MOL   H156 1608   3.304   1.912   1.675 -0.1922  0.4507 -0.6932
    7MOL   H157 1609   3.388   1.898   1.510 -1.2151  0.6320 -0.6335
    7MOL   O158 1610   3.310   2.163   1.676  0.2411 -0.0461 -0.4733
    7MOL   C159 1611   3.234   2.285   1.661 -0.1536  0.0906 -0.0084
    7MOL   C160 1612   3.119   2.271   1.758  0.4125  0.0729  0.1875
    7MOL   C161 1613   3.310   2.408   1.702  0.3254  0.0969 -0.6703
    7MOL   C162 1614   3.439   2.419   1.621 -0.5357  0.1952  0.2993
    7MOL   O163 1615   3.549   2.430   1.671  0.1656 -0.2953 -0.0941
    7MOL   H164 1616   3.199   2.302   1.559 -0.4456  0.4769  0.1584
    7MOL   H165 1617   3.041   2.345   1.742 -1.7990 -2.0208  0.9962
    7MOL   H166 1618   3.147   2.263   1.863  0.9674 -0.9529 -0.0277
    7MOL   H167 1619   3.069   2.182   1.720 -0.0447  0.1695  0.5660
    7MOL   H168 1620   3.335   2.390   1.807  0.4214 -1.9293 -1.0245
    7MOL   H169 1621   3.242   2.493   1.702 -0.7123 -0.6488  2.4111
    7MOL   O170 1622   3.413   2.433   1.495  0.3339 -0.7142  0.1612
    7MOL   C171 1623   3.514   2.439   1.396 -0.5624 -0.2470  0.4210
    7MOL   C172 1624   3.501   2.335   1.286  0.5006  0.4000 -0.1402
    7MOL   C173 1625   3.516   2.588   1.351 -0.2676  0.8611 -0.0881
    7MOL   C174 1626   3.616   2.635   1.244 -0.1120  0.4217 -0.2726
    7MOL   O175 1627   3.670   2.558   1.156 -0.3497  0.1073 -0.0851
    7MOL   H176 1628   3.610   2.408   1.436 -0.1117  2.4618  1.4820
    7MOL   H177 1629   3.462   2.242   1.327  1.1078 -0.1092 -0.6981
    7MOL   H178 1630   3.595   2.320   1.232 -0.0886 -3.3103 -0.2398
    7MOL   H179 1631   3.437   2.374   1.207 -0.7204 -0.2515  0.5106
    7MOL   H180 1632   3.512   2.647   1.443 -0.1111 -0.6194  0.8921
    7MOL   H181 1633   3.417   2.606   1.309  0.1956  0.5194 -1.3361
    7MOL   O182 1634   3.638   2.767   1.249 -0.3186 -0.5438 -0.3126
    7MOL   C183 1635   3.729   2.821   1.153 -0.2799 -0.5537 -0.5234
    7MOL   C184 1636   3.655   2.857   1.022  0.5196 -0.0946 -0.3461
    7MOL   C185 1637   3.801   2.935   1.223  0.1903 -0.3615 -0.1173
    7MOL   C186 1638   3.904   3.004   1.131  0.3587 -0.9646 -0.4526
    7MOL   O187 1639   3.920   3.129   1.135 -0.1218 -0.1132 -0.5589
    7MOL   H188 1640   3.805   2.749   1.123 -0.0981 -0.4948 -0.2107
    7MOL   H189 1641   3.598   2.950   1.019 -3.0598 -2.1974 -0.8945
    7MOL   H190 1642   3.584   2.777   1.002  2.8563 -2.1472 -0.6345
    7MOL   H191 1643   3.729   2.861   0.942  0.8874  0.8110  0.0356
    7MOL   H192 1644   3.850   2.900   1.314 -0.1323  0.3005  0.3181
    7MOL   H193 1645   3.737   3.017   1.256  0.0722  0.3300 -2.0058
    7MOL   O194 1646   3.975   2.914   1.062 -0.0905  0.2959 -0.1552
    7MOL   C195 1647   4.079   2.954   0.969  0.4929 -0.0558 -0.1083
    7MOL   C196 1648   4.205   2.980   1.053 -0.6139  0.0784  0.0635
    7MOL   C197 1649   4.109   2.831   0.882  0.1084  0.0042  0.4117
    7MOL   C198 1650   4.016   2.799   0.770 -0.2576 -0.3541  0.6189
    7MOL   O199 1651   3.900   2.837   0.754 -0.2348 -0.2518  0.4075
    7MOL   H200 1652   4.046   3.034   0.903 -1.0166  0.8005  1.6293
    7MOL   H201 1653   4.193   3.075   1.106  2.2071 -0.2363  1.3342
    7MOL   H202 1654   4.294   2.995   0.992 -0.9051  0.8275 -0.1840
    7MOL   H203 1655   4.223   2.900   1.125  0.6178 -0.1824 -0.5385
    7MOL   H204 1656   4.123   2.741   0.942  0.4720  0.9411  1.7727
    7MOL   H205 1657   4.199   2.849   0.823 -1.3428 -0.3201 -1.9660
    7MOL   O206 1658   4.082   2.720   0.676  0.3951 -0.4437  0.3873
    7MOL   C207 1659   4.027   2.686   0.545 -0.0875 -0.6635 -0.3228
    7MOL   C208 1660   4.113   2.749   0.440 -0.5205  0.1571  0.2195
    7MOL   C209 1661   4.040   2.528   0.546  0.3722  0.5479  0.3443
    7MOL   C210 1662   3.935   2.458   0.451  0.3423 -0.6913 -0.4201
    7MOL   O211 1663   3.951   2.459   0.331 -0.2935  0.1131  0.2260
    7MOL   H212 1664   3.924   2.721   0.550  1.0690  2.7319  0.7156
    7MOL   H213 1665   4.215   2.745   0.479 -0.6243 -0.9734  0.4085
    7MOL   H214 1666   4.097   2.856   0.429 -1.8694 -0.3410 -3.0869
    7MOL   H215 1667   4.106   2.692   0.347  1.9565 -0.0279  0.1170
    7MOL   H216 1668   4.011   2.484   0.641 -0.0307  1.2400  0.5511
    7MOL   H217 1669   4.141   2.495   0.523  0.2156  0.2730  0.0545
    7MOL   O218 1670   3.827   2.414   0.511  0.3188 -0.4151  0.1249
    7MOL   C219 1671   3.705   2.373   0.449 -0.9259  0.1027 -0.3559
    7MOL   C220 1672   3.714   2.232   0.381  0.3305 -0.3030 -0.1332
    7MOL   C221 1673   3.588   2.362   0.548  0.6991 -0.3090  0.0142
    7MOL   C222 1674   3.553   2.508   0.587  0.0901  0.1722 -0.4119
    7MOL   O223 1675   3.559   2.546   0.704  0.3610  0.5419  0.0283
    7MOL   H224 1676   3.677   2.450   0.376  0.9991  1.6248  0.4663
    7MOL   H225 1677   3.771   2.227   0.288  1.3824 -0.0978  0.4936
    7MOL   H226 1678   3.616   2.198   0.347  0.4354  0.1368 -0.8841
    7MOL   H227 1679   3.757   2.162   0.452 -2.1559 -2.1193 -0.3643
    7MOL   H228 1680   3.605   2.305   0.639  2.2265 -0.3771 -0.3166
    7MOL   H229 1681   3.504   2.326   0.488  0.5496 -2.3786  1.3994
    7MOL   O230 1682   3.487   2.579   0.496 -0.3412 -1.0224 -0.2212
    7MOL   C231 1683   3.454   2.719   0.523  0.1410 -0.1137 -0.3984
    7MOL   C232 1684   3.584   2.799   0.501  0.3270 -0.5751 -0.2131
    7MOL   C233 1685   3.339   2.765   0.435  0.5563  0.1485  0.2087
    7MOL   C234 1686   3.297   2.914   0.444  0.3004 -0.0685  0.0423
    7MOL   O235 1687   3.228   2.959   0.539 -0.4213 -0.1969 -0.3097
    7MOL   H236 1688   3.415   2.735   0.623  0.6496 -0.2067 -0.1864
    7MOL   H237 1689   3.642   2.792   0.593  0.5683 -0.2382 -0.3420
    7MOL   H238 1690   3.561   2.906   0.500 -1.4657 -0.9533 -0.8338
    7MOL   H239 1691   3.637   2.767   0.412  0.3346  0.2004 -0.4919
    7MOL   H240 1692   3.261   2.690   0.447  0.3309  0.7417  2.6199
    7MOL   H241 1693   3.376   2.749   0.333  0.0646 -1.7049  0.3075
    7MOL   H242 1694   3.336   2.968   0.358 -1.4048  0.7388 -0.2507
    8MOL     O1 1695   6.800   1.675   2.334  0.6008 -0.4458  0.4288
    8MOL     C2 1696   6.736   1.583   2.247  0.0401 -0.1281 -0.0611
    8MOL     C3 1697   6.621   1.657   2.172  0.5087 -0.0721 -0.7796
    8MOL     C4 1698   6.841   1.521   2.154  0.4522  0.3491  0.2357
    8MOL     C5 1699   6.785   1.416   2.059  0.1815  0.0783 -0.6565
    8MOL     O6 1700   6.678   1.364   2.080 -0.2906  0.0894 -0.4271
    8MOL     H7 1701   6.698   1.510   2.318 -0.2179  0.7398  0.7013
    8MOL     H8 1702   6.548   1.595   2.120 -0.1955 -1.1097  1.3668
    8MOL     H9 1703   6.673   1.723   2.103 -0.7937  1.7004 -0.1082
    8MOL    H10 1704   6.570   1.730   2.235 -0.9823 -0.8048 -1.1048
    8MOL    H11 1705   6.915   1.463   2.209 -0.5394 -0.8810  0.2969
    8MOL    H12 1706   6.900   1.591   2.095  2.1375 -1.3352 -0.1391
    8MOL    H13 1707   6.857   1.734   2.287 -0.9437  1.6809  1.1489
    8MOL    O14 1708   6.873   1.381   1.961  0.1365 -0.0165 -0.3039
    8MOL    C15 1709   6.845   1.276   1.870  0.3805 -0.4356 -0.1507
    8MOL    C16 1710   6.898   1.333   1.736  0.6220  0.1699  0.6794
    8MOL    C17 1711   6.910   1.137   1.899 -0.3911  1.1252 -0.0933
    8MOL    C18 1712   6.866   1.068   2.026  0.5188 -0.7078  0.3967
    8MOL    O19 1713   6.784   0.976   2.019  0.2138 -0.2889  0.0156
    8MOL    H20 1714   6.738   1.255   1.874 -0.0163  1.3954 -1.1655
    8MOL    H21 1715   6.999   1.373   1.747 -0.0857  1.5418  2.2775
    8MOL    H22 1716   6.829   1.413   1.708  1.6587  1.1597  0.8740
    8MOL    H23 1717   6.902   1.263   1.653 -0.8607  0.9727 -0.0917
    8MOL    H24 1718   7.019   1.147   1.904 -0.4952  2.1382  0.3761
    8MOL    H25 1719   6.892   1.078   1.809  2.1408  0.3285 -0.1061
    8MOL    O26 1720   6.922   1.120   2.141  0.6919 -0.4797  0.2500
    8MOL    C27 1721   6.895   1.065   2.274 -0.2459  0.0030 -0.1817
    8MOL    C28 1722   7.030   1.004   2.331 -0.0387 -0.5620 -0.4448
    8MOL    C29 1723   6.844   1.187   2.350 -0.4641 -0.4431  0.5330
    8MOL    C30 1724   6.786   1.154   2.487 -0.2219 -0.1930 -0.0562
    8MOL    O31 1725   6.788   1.228   2.587 -0.0724 -0.2043 -0.3108
    8MOL    H32 1726   6.812   0.994   2.273  0.5233 -0.8966 -0.6563
    8MOL    H33 1727   7.103   1.081   2.354  1.6796 -1.3986 -2.9142
    8MOL    H34 1728   7.086   0.925   2.281  0.8819 -0.4525  0.3905
    8MOL    H35 1729   7.003   0.976   2.433  2.6687 -1.9914 -0.0711
    8MOL    H36 1730   6.766   1.236   2.292  0.2020 -1.8122 -1.5637
    8MOL    H37 1731   6.930   1.254   2.360 -0.2444 -0.5962 -0.2883
    8MOL    O38 1732   6.723   1.033   2.489  0.0140 -0.3403  0.8063
    8MOL    C39 1733   6.645   0.989   2.599  0.0739 -0.4191 -0.6617
    8MOL    C40 1734   6.494   1.016   2.567  0.2379 -0.1154  1.0278
    8MOL    C41 1735   6.670   0.839   2.615 -0.4486  0.2732 -0.2929
    8MOL    C42 1736   6.807   0.813   2.683  0.4987  0.4368 -0.2552
    8MOL    O43 1737   6.898   0.746   2.630  0.1216  0.5824 -1.2248
    8MOL    H44 1738   6.665   1.047   2.689 -2.9112  0.3939 -0.4747
    8MOL    H45 1739   6.457   0.958   2.482  0.2618 -3.3513  3.1291
    8MOL    H46 1740   6.475   1.122   2.548  1.0421 -0.1386  0.0467
    8MOL    H47 1741   6.430   1.006   2.655 -1.0178 -0.2668  0.1129
    8MOL    H48 1742   6.668   0.783   2.521  1.9050  1.3326 -1.0061
    8MOL    H49 1743   6.587   0.806   2.677 -2.3208  3.1733 -1.1443
    8MOL    O50 1744   6.821   0.877   2.801 -0.2182  0.4131  0.1101
    8MOL    C51 1745   6.949   0.892   2.862  0.5629  0.1328 -0.2854
    8MOL    C52 1746   6.988   1.034   2.881  0.2349  0.2866  0.0726
    8MOL    C53 1747   6.958   0.795   2.986 -0.3537  0.3977 -0.1321
    8MOL    C54 1748   6.863   0.831   3.099 -0.2769  0.0667  0.8706
    8MOL    O55 1749   6.877   0.935   3.168 -0.8195  0.4186  0.4552
    8MOL    H56 1750   7.024   0.853   2.793  1.6391 -0.3248  1.1306
    8MOL    H57 1751   7.088   1.041   2.923 -0.2472 -0.2117  1.3350
    8MOL    H58 1752   6.921   1.089   2.947 -0.4864 -0.0504 -0.3677
    8MOL    H59 1753   7.010   1.078   2.784  3.5069  1.6121  1.3231
    8MOL    H60 1754   7.060   0.806   3.024 -0.4597 -3.6460  1.6032
    8MOL    H61 1755   6.944   0.694   2.947 -2.0163 -0.0555  1.5457
    8MOL    O62 1756   6.762   0.732   3.111  0.7921 -0.0888 -0.0343
    8MOL    C63 1757   6.645   0.743   3.183 -0.2256  0.8853 -0.5009
    8MOL    C64 1758   6.681   0.736   3.325  0.5634 -0.1989  0.4509
    8MOL    C65 1759   6.562   0.867   3.148  0.2301 -0.2530  0.1156
    8MOL    C66 1760   6.502   0.857   3.015  0.0645 -0.1540  0.4224
    8MOL    O67 1761   6.563   0.887   2.912 -0.1018 -0.4077  0.1786
    8MOL    H68 1762   6.579   0.659   3.162 -1.9951  2.0998  0.0044
    8MOL    H69 1763   6.758   0.661   3.343 -0.5508 -0.9123  2.5026
    8MOL    H70 1764   6.599   0.704   3.390  1.5166  0.0124  1.7886
    8MOL    H71 1765   6.723   0.829   3.364 -1.6081  1.0384 -0.0946
    8MOL    H72 1766   6.618   0.960   3.151  0.3137 -0.1954 -2.2281
    8MOL    H73 1767   6.484   0.869   3.224  0.7826 -1.7163  0.7372
    8MOL    O74 1768   6.376   0.811   3.015  0.0514 -0.2066  0.2828
    8MOL    C75 1769   6.296   0.794   2.894  0.9505 -0.2009  0.1951
    8MOL    C76 1770   6.275   0.648   2.868  0.5180 -0.3663 -1.2083
    8MOL    C77 1771   6.171   0.877   2.916 -0.3560  0.1878  0.1651
    8MOL    C78 1772   6.091   0.881   2.783  0.5372  0.6418  0.5440
    8MOL    O79 1773   6.005   0.798   2.760  0.2807  0.6326  0.4977
    8MOL    H80 1774   6.355   0.824   2.808  1.4373 -1.0135  0.2427
    8MOL    H81 1775   6.373   0.601   2.862  1.0167  0.6174 -0.9514
    8MOL    H82 1776   6.234   0.644   2.768  1.9738  3.2927 -2.0525
    8MOL    H83 1777   6.210   0.600   2.942 -0.2764 -0.2549 -1.8295
    8MOL    H84 1778   6.195   0.974   2.958 -0.1478  0.7235 -1.1779
    8MOL    H85 1779   6.127   0.825   3.002 -1.2872 -1.4183 -1.2410
    8MOL    O86 1780   6.116   0.987   2.707  0.3644  0.4753 -0.3384
    8MOL    C87 1781   6.048   0.999   2.587 -0.5380  0.0091  0.2272
    8MOL    C88 1782   6.017   1.144   2.582  0.6449  0.3428 -0.1688
    8MOL    C89 1783   6.130   0.946   2.465  0.4402 -0.3006  0.0347
    8MOL    C90 1784   6.048   0.925   2.337  0.3695  0.3538  0.9092
    8MOL    O91 1785   5.991   0.824   2.314  0.3043  1.2576  0.3663
    8MOL    H92 1786   5.951   0.950   2.584 -1.0490  1.0568 -2.3222
    8MOL    H93 1787   6.106   1.206   2.578  1.7035 -1.2192 -1.6492
    8MOL    H94 1788   5.969   1.167   2.677  1.5388  1.8673 -0.0688
    8MOL    H95 1789   5.963   1.179   2.494 -0.0643 -2.1019 -0.7507
    8MOL    H96 1790   6.179   0.853   2.495 -0.9226  0.1271  3.9584
    8MOL    H97 1791   6.211   1.015   2.444  1.7571 -1.1621  2.1004
    8MOL    O98 1792   6.034   1.031   2.260  0.1080  0.1567 -0.5803
    8MOL    C99 1793   5.967   1.024   2.134  0.4145 -0.2385  0.2400
    8MOL   C100 1794   5.932   1.167   2.093  0.3798  0.8075  0.4606
    8MOL   C101 1795   6.052   0.946   2.026  0.6807  0.2371  0.1235
    8MOL   C102 1796   5.980   0.923   1.895  0.2564 -0.6134  0.2131
    8MOL   O103 1797   6.049   0.904   1.795 -0.2391 -0.7384  0.3384
    8MOL   H104 1798   5.874   0.973   2.158 -0.6482  2.1218  1.3128
    8MOL   H105 1799   5.862   1.212   2.164  1.2441  1.3059  0.9976
    8MOL   H106 1800   5.884   1.163   1.995  0.2538  2.6333  0.4249
    8MOL   H107 1801   6.026   1.221   2.083 -0.4086  1.8830 -1.3978
    8MOL   H108 1802   6.067   0.845   2.063 -1.7020 -0.1981 -0.0251
    8MOL   H109 1803   6.147   0.998   2.017  0.8239  0.5035  2.7576
    8MOL   O110 1804   5.850   0.919   1.910 -0.5112  0.1346  0.7790
    8MOL   C111 1805   5.758   0.912   1.806  0.0838  0.6691 -0.4150
    8MOL   C112 1806   5.733   0.758   1.807 -0.0763  0.3992  0.3942
    8MOL   C113 1807   5.643   1.005   1.834 -0.3332 -0.0276  0.3117
    8MOL   C114 1808   5.653   1.153   1.795  0.4613  0.4523  0.3538
    8MOL   O115 1809   5.750   1.193   1.732 -0.0859  0.1148 -0.0725
    8MOL   H116 1810   5.807   0.940   1.713  1.7875 -1.3396 -0.1587
    8MOL   H117 1811   5.822   0.696   1.797 -0.4210  0.1041 -0.9577
    8MOL   H118 1812   5.670   0.725   1.724 -1.5174  0.8370  1.3040
    8MOL   H119 1813   5.684   0.739   1.902 -0.3830  1.1889  0.4022
    8MOL   H120 1814   5.631   1.013   1.942 -0.9963 -0.4096  0.2758
    8MOL   H121 1815   5.548   0.965   1.796  0.3865 -0.9238 -0.5611
    8MOL   O122 1816   5.553   1.220   1.839 -0.4320  0.0949  0.4170
    8MOL   C123 1817   5.534   1.355   1.809 -0.1600  0.1499 -0.4836
    8MOL   C124 1818   5.406   1.373   1.727 -0.3872  0.3323  0.0605
    8MOL   C125 1819   5.534   1.423   1.941  0.3750  0.3642  0.1983
    8MOL   C126 1820   5.539   1.576   1.935  0.4704  0.3686 -0.5109
    8MOL   O127 1821   5.556   1.644   1.836 -0.1105  0.0096 -0.6088
    8MOL   H128 1822   5.620   1.396   1.754  0.6042  0.2821  0.7981
    8MOL   H129 1823   5.402   1.309   1.638  0.9521  0.3203 -0.0094
    8MOL   H130 1824   5.380   1.476   1.705  1.4166  0.6676 -0.5985
    8MOL   H131 1825   5.321   1.339   1.785 -0.2873  0.0096  0.0203
    8MOL   H132 1826   5.617   1.385   2.000  2.3575 -0.0511 -2.7826
    8MOL   H133 1827   5.450   1.392   2.003 -0.1954  2.3245  0.4448
    8MOL   O134 1828   5.511   1.632   2.054 -0.2530  0.2079  0.1611
    8MOL   C135 1829   5.524   1.774   2.082 -0.7719 -0.3056 -0.4501
    8MOL   C136 1830   5.390   1.855   2.054 -0.0100 -0.0673  0.4822
    8MOL   C137 1831   5.575   1.794   2.225 -0.1365  0.5952  0.1126
    8MOL   C138 1832   5.487   1.738   2.341 -0.5956  1.0950 -0.0040
    8MOL   O139 1833   5.489   1.619   2.373 -0.2529 -0.0726 -0.9914
    8MOL   H140 1834   5.600   1.820   2.019 -1.1117  0.1428 -0.5282
    8MOL   H141 1835   5.396   1.947   2.112 -0.6189 -1.4534  2.7572
    8MOL   H142 1836   5.293   1.811   2.075  0.3878 -1.7338 -0.9547
    8MOL   H143 1837   5.393   1.867   1.945 -0.4493 -1.1517  0.3483
    8MOL   H144 1838   5.583   1.902   2.239 -4.6947  1.4812 -3.0080
    8MOL   H145 1839   5.669   1.740   2.227 -0.8053 -0.5343  2.8008
    8MOL   O146 1840   5.401   1.827   2.393 -0.0317 -0.6670  0.6270
    8MOL   C147 1841   5.303   1.783   2.490  0.5230 -1.0239  0.3358
    8MOL   C148 1842   5.330   1.848   2.622  0.5546 -0.2932 -0.0317
    8MOL   C149 1843   5.160   1.817   2.425 -0.7436  0.5911  0.1263
    8MOL   C150 1844   5.047   1.762   2.513 -0.3308  0.7981 -0.0841
    8MOL   O151 1845   4.953   1.833   2.553 -0.7517 -0.1170 -0.1052
    8MOL   H152 1846   5.300   1.675   2.504 -0.0798 -0.8783  1.4133
    8MOL   H153 1847   5.249   1.822   2.691  0.0326 -1.0209 -0.9188
    8MOL   H154 1848   5.338   1.956   2.611 -0.7504  0.0120  1.7362
    8MOL   H155 1849   5.418   1.800   2.665 -1.5167 -3.1679  1.1203
    8MOL   H156 1850   5.158   1.766   2.328  2.7789  1.3896 -0.4364
    8MOL   H157 1851   5.160   1.923   2.402 -2.1762  0.3993 -0.8286
    8MOL   O158 1852   5.060   1.622   2.541 -0.3679  0.3013 -0.0767
    8MOL   C159 1853   4.965   1.565   2.626 -0.4131  0.4332 -0.0875
    8MOL   C160 1854   4.839   1.524   2.546  0.3191  0.3229  0.5041
    8MOL   C161 1855   5.030   1.443   2.695  0.8334  0.3047  0.4092
    8MOL   C162 1856   5.120   1.473   2.812 -0.1847  0.1336 -0.6313
    8MOL   O163 1857   5.196   1.568   2.815  0.2029 -1.6234  0.2370
    8MOL   H164 1858   4.947   1.643   2.699 -1.5651 -0.4072  0.5295
    8MOL   H165 1859   4.766   1.604   2.543 -0.4991 -0.4309  0.0995
    8MOL   H166 1860   4.791   1.449   2.609 -0.3522 -1.1424 -1.6674
    8MOL   H167 1861   4.855   1.484   2.446 -1.0717  0.2828  0.2848
    8MOL   H168 1862   5.092   1.375   2.637  1.7570  0.9707  0.5960
    8MOL   H169 1863   4.952   1.369   2.711 -1.0953  1.7447 -2.0209
    8MOL   O170 1864   5.094   1.385   2.909 -0.2371  0.0798 -0.5370
    8MOL   C171 1865   5.166   1.387   3.031  0.7683 -0.0539 -0.2686
    8MOL   C172 1866   5.073   1.397   3.149 -0.1383  0.1425  0.6076
    8MOL   C173 1867   5.254   1.264   3.048 -0.1892  0.1853  0.2834
    8MOL   C174 1868   5.350   1.289   3.159  0.0698  0.0894  0.9331
    8MOL   O175 1869   5.310   1.269   3.274  0.3841 -0.1535 -0.3996
    8MOL   H176 1870   5.230   1.475   3.029 -1.4300  1.5678 -4.2564
    8MOL   H177 1871   4.984   1.459   3.133 -0.8609 -0.0116  3.6741
    8MOL   H178 1872   5.115   1.449   3.235 -0.0016  4.0461 -1.7198
    8MOL   H179 1873   5.024   1.305   3.179  4.5369 -1.6033  3.3144
    8MOL   H180 1874   5.305   1.242   2.954 -2.0706 -0.6374 -0.5703
    8MOL   H181 1875   5.189   1.177   3.058  1.5586 -1.0361  1.4321
    8MOL   O182 1876   5.462   1.350   3.124  0.2578 -0.6757 -0.1171
    8MOL   C183 1877   5.564   1.380   3.216  0.2627  0.5182  0.0430
    8MOL   C184 1878   5.684   1.429   3.138 -0.4342  0.0117 -0.0248
    8MOL   C185 1879   5.523   1.482   3.336 -0.1915 -0.0417 -0.1171
    8MOL   C186 1880   5.485   1.626   3.298 -0.4550  0.1819 -0.0171
    8MOL   O187 1881   5.546   1.721   3.350  0.4776 -0.3680  0.4181
    8MOL   H188 1882   5.585   1.283   3.260 -0.5878 -0.2316 -1.1742
    8MOL   H189 1883   5.706   1.372   3.048 -0.3473 -0.1655  0.1084
    8MOL   H190 1884   5.774   1.431   3.200 -0.8284  1.6950  0.5055
    8MOL   H191 1885   5.684   1.532   3.104  0.8471  0.5464  1.5214
    8MOL   H192 1886   5.605   1.492   3.406 -0.7475 -0.8282  0.6715
    8MOL   H193 1887   5.444   1.432   3.392  1.2388  1.3655  3.2555
    8MOL   O194 1888   5.391   1.638   3.202  0.4779  0.5231  0.0196
    8MOL   C195 1889   5.344   1.766   3.152 -0.9598  0.2605 -0.3298
    8MOL   C196 1890   5.415   1.783   3.012 -0.5058 -0.0129 -0.2747
    8MOL   C197 1891   5.185   1.783   3.153  0.5003 -0.5540  0.0095
    8MOL   C198 1892   5.134   1.929   3.166  0.6664 -0.5633  0.1073
    8MOL   O199 1893   5.177   2.008   3.089  0.6777  0.0939  0.0365
    8MOL   H200 1894   5.382   1.843   3.220  0.2424  0.1169 -0.8380
    8MOL   H201 1895   5.367   1.724   2.935  0.9259 -0.2643 -1.0008
    8MOL   H202 1896   5.521   1.761   3.025 -1.0259 -2.0382  0.7000
    8MOL   H203 1897   5.410   1.888   2.983 -0.3200  0.5324  1.6006
    8MOL   H204 1898   5.148   1.724   3.237  1.4773 -0.7199  0.3310
    8MOL   H205 1899   5.143   1.750   3.058 -1.7179 -2.1201  1.4743
    8MOL   O206 1900   5.035   1.947   3.258  0.6940 -0.9961 -0.3507
    8MOL   C207 1901   4.977   2.080   3.286  0.2401 -0.3173 -0.4292
    8MOL   C208 1902   4.842   2.089   3.215 -0.2968 -0.0083  0.3569
    8MOL   C209 1903   4.975   2.107   3.438 -0.4969 -0.2152  0.1797
    8MOL   C210 1904   5.089   2.178   3.498  0.1186  0.1138 -0.1703
    8MOL   O211 1905   5.062   2.288   3.551  0.2471 -0.2786  0.0374
    8MOL   H212 1906   5.042   2.159   3.249  1.9958 -2.1066 -1.3009
    8MOL   H213 1907   4.846   2.014   3.136  1.6083  0.3646  0.0912
    8MOL   H214 1908   4.821   2.191   3.185 -1.3236  0.3696  2.2543
    8MOL   H215 1909   4.759   2.054   3.276 -0.7977  0.5722  0.0091
    8MOL   H216 1910   4.979   2.014   3.495 -1.6815 -0.7689 -0.6134
    8MOL   H217 1911   4.881   2.147   3.476 -0.3635 -1.0943  1.4782
    8MOL   O218 1912   5.204   2.121   3.479 -0.1581  0.0027 -0.0030
    8MOL   C219 1913   5.330   2.185   3.521  0.4014  0.3099 -0.1203
    8MOL   C220 1914   5.436   2.082   3.566 -0.2482  0.5203  0.3653
    8MOL   C221 1915   5.377   2.281   3.410  0.4012  0.6353 -0.0759
    8MOL   C222 1916   5.411   2.225   3.271 -0.2570 -0.6451 -0.5419
    8MOL   O223 1917   5.446   2.108   3.257  0.1336 -0.4485 -0.0359
    8MOL   H224 1918   5.300   2.240   3.610 -2.2084  1.5902 -1.7129
    8MOL   H225 1919   5.391   2.032   3.652  0.3732 -0.6496  0.0248
    8MOL   H226 1920   5.531   2.125   3.598  2.2170 -3.8010 -0.7409
    8MOL   H227 1921   5.456   1.998   3.499  1.1806  0.9997  0.1748
    8MOL   H228 1922   5.464   2.333   3.451  0.5223  0.9478 -0.7289
    8MOL   H229 1923   5.314   2.366   3.387 -0.1056  0.3713  0.3364
    8MOL   O230 1924   5.403   2.322   3.176  0.4621  0.0041  0.8534
    8MOL   C231 1925   5.414   2.291   3.037 -0.6186 -0.2137 -0.1661
    8MOL   C232 1926   5.362   2.420   2.971  0.1974  0.0008  0.2466
    8MOL   C233 1927   5.559   2.265   2.989  0.3994 -0.4294  0.3412
    8MOL   C234 1928   5.577   2.210   2.844  0.1990  0.4886  0.1326
    8MOL   O235 1929   5.514   2.114   2.802 -0.3056  0.2805  0.0623
    8MOL   H236 1930   5.351   2.207   3.010  0.6578 -1.7977  1.6970
    8MOL   H237 1931   5.366   2.402   2.864  0.0291 -1.4775  0.4787
    8MOL   H238 1932   5.411   2.514   2.998  1.5033 -1.3945  2.9592
    8MOL   H239 1933   5.256   2.431   2.992  0.3118 -1.1571  1.4952
    8MOL   H240 1934   5.600   2.178   3.041 -0.1906 -0.8298  0.1387
    8MOL   H241 1935   5.618   2.356   3.003 -0.3548 -0.0886  1.3559
    8MOL   H242 1936   5.633   2.270   2.773 -0.8133  1.0294 -0.2188
    9MOL     O1 1937   1.523   4.879   7.715  0.3452  0.2318  0.0214
    9MOL     C2 1938   1.399   4.930   7.679  0.1233  0.0686  0.0498
    9MOL     C3 1939   1.323   4.945   7.810 -0.3877 -0.2459  0.1948
    9MOL     C4 1940   1.431   5.054   7.602  0.0093  0.4039 -0.5610
    9MOL     C5 1941   1.316   5.133   7.534  0.3759  0.2800 -0.2610
    9MOL     O6 1942   1.212   5.072   7.510  0.2056 -0.6396  0.1349
    9MOL     H7 1943   1.345   4.852   7.625  1.4354 -2.4258  2.1660
    9MOL     H8 1944   1.392   4.988   7.881 -0.2178  0.9191 -0.6583
    9MOL     H9 1945   1.286   4.850   7.850 -0.2601 -0.8886 -1.1492
    9MOL    H10 1946   1.231   5.002   7.796 -0.1311 -0.1097 -1.0040
    9MOL    H11 1947   1.504   5.039   7.522  0.9819  0.9112  0.2104
    9MOL    H12 1948   1.495   5.120   7.661 -0.9610 -0.1800  1.1919
    9MOL    H13 1949   1.566   4.846   7.638  0.7951  1.6981 -0.3655
    9MOL    O14 1950   1.333   5.264   7.507  0.0807  0.9731  0.1586
    9MOL    C15 1951   1.234   5.334   7.438  0.1209  0.4991  0.4336
    9MOL    C16 1952   1.258   5.478   7.475 -0.3020  0.6587  0.2808
    9MOL    C17 1953   1.223   5.294   7.281  0.2876 -0.2382 -0.6464
    9MOL    C18 1954   1.113   5.363   7.199 -0.9199 -0.4695 -0.2563
    9MOL    O19 1955   1.017   5.299   7.165 -0.0306 -0.2470 -0.4395
    9MOL    H20 1956   1.137   5.315   7.483  0.5800 -2.8813  0.1658
    9MOL    H21 1957   1.351   5.522   7.439  0.8271 -1.6537  0.2676
    9MOL    H22 1958   1.243   5.484   7.582 -0.3633 -2.7114  0.5081
    9MOL    H23 1959   1.189   5.545   7.423 -0.0668  1.7133  1.3186
    9MOL    H24 1960   1.206   5.189   7.259 -2.4911 -0.1560  0.9284
    9MOL    H25 1961   1.316   5.320   7.231  2.3955 -2.2553  2.0562
    9MOL    O26 1962   1.140   5.490   7.165 -0.1720  0.2209  0.0980
    9MOL    C27 1963   1.045   5.562   7.093  1.1717 -0.3134  0.1585
    9MOL    C28 1964   1.008   5.699   7.162  0.3839  0.0195 -0.4785
    9MOL    C29 1965   1.063   5.562   6.943 -0.3280 -0.2422 -0.5666
    9MOL    C30 1966   0.944   5.606   6.858 -0.1971  0.3462  0.1056
    9MOL    O31 1967   0.826   5.592   6.901 -0.2397 -0.3418 -0.5333
    9MOL    H32 1968   0.948   5.513   7.108  1.8427 -1.7532 -0.1766
    9MOL    H33 1969   1.015   5.677   7.268 -0.8371  0.1084 -0.3719
    9MOL    H34 1970   0.915   5.741   7.124  0.0332  0.0188  0.3738
    9MOL    H35 1971   1.091   5.769   7.150  1.7627 -1.4870  0.1774
    9MOL    H36 1972   1.085   5.460   6.912  0.1230 -0.1461 -0.5587
    9MOL    H37 1973   1.148   5.627   6.925  0.6487 -1.0375  0.9976
    9MOL    O38 1974   0.976   5.659   6.739 -0.3421  0.0844  0.3234
    9MOL    C39 1975   0.879   5.705   6.649 -0.4922  0.0992  0.4509
    9MOL    C40 1976   0.823   5.845   6.674  0.3716  0.3347  0.5498
    9MOL    C41 1977   0.927   5.683   6.502  0.2064  0.1608  0.6478
    9MOL    C42 1978   0.830   5.588   6.424 -0.2406 -1.0640  0.0687
    9MOL    O43 1979   0.841   5.468   6.425 -0.2453  0.3456  0.0040
    9MOL    H44 1980   0.790   5.642   6.653  0.4986 -1.3008  0.3790
    9MOL    H45 1981   0.797   5.846   6.780  0.2326 -2.0218  0.5580
    9MOL    H46 1982   0.741   5.879   6.611 -1.6843 -1.9007  1.9334
    9MOL    H47 1983   0.904   5.915   6.655 -1.0572  1.6326 -0.9654
    9MOL    H48 1984   1.022   5.632   6.514 -0.0737 -0.0227  2.1839
    9MOL    H49 1985   0.932   5.769   6.435 -0.0804 -0.0385  0.3668
    9MOL    O50 1986   0.735   5.660   6.360 -0.6275  0.2636 -0.0340
    9MOL    C51 1987   0.623   5.605   6.283 -0.8343 -0.7699 -0.2421
    9MOL    C52 1988   0.487   5.619   6.359 -0.3083  0.4080  0.1234
    9MOL    C53 1989   0.607   5.659   6.142 -0.5892  0.6628 -0.7162
    9MOL    C54 1990   0.728   5.624   6.049  0.7655  1.1826  0.1891
    9MOL    O55 1991   0.713   5.586   5.931 -0.7486 -0.2472  0.2724
    9MOL    H56 1992   0.643   5.499   6.269 -2.4593 -1.0210 -0.7666
    9MOL    H57 1993   0.500   5.647   6.463  0.1589 -1.5589  0.6110
    9MOL    H58 1994   0.440   5.520   6.355  0.6484 -0.1187  1.6042
    9MOL    H59 1995   0.415   5.689   6.318 -1.0238 -0.7601 -0.6402
    9MOL    H60 1996   0.613   5.767   6.154 -1.3574  0.7866 -1.3749
    9MOL    H61 1997   0.513   5.624   6.097  1.1694 -4.1193 -0.9805
    9MOL    O62 1998   0.850   5.643   6.098  0.0078  0.4681 -0.5213
    9MOL    C63 1999   0.961   5.674   6.019 -0.1044 -0.1905  1.1890
    9MOL    C64 2000   0.993   5.823   6.008 -0.1213  0.0048 -0.1493
    9MOL    C65 2001   1.080   5.594   6.086  0.2687 -0.3410  0.3169
    9MOL    C66 2002   1.181   5.547   5.974  0.3753  0.1905  0.2093
    9MOL    O67 2003   1.189   5.612   5.873  0.0871 -0.2922  0.8018
    9MOL    H68 2004   0.947   5.644   5.915 -0.2955  1.5752  0.7045
    9MOL    H69 2005   1.084   5.837   5.950 -0.2298  2.2467  0.1978
    9MOL    H70 2006   1.013   5.873   6.102  3.7027 -2.2101  0.2854
    9MOL    H71 2007   0.916   5.885   5.961 -0.4341  0.7866  1.3836
    9MOL    H72 2008   1.027   5.511   6.134 -1.4313  2.0809  2.7823
    9MOL    H73 2009   1.121   5.656   6.166 -0.8948  0.2357  0.4787
    9MOL    O74 2010   1.250   5.440   6.015  0.4461 -0.5888  0.3672
    9MOL    C75 2011   1.339   5.367   5.929 -0.0858 -1.0631  0.1674
    9MOL    C76 2012   1.469   5.391   6.003 -0.0845 -0.3015  0.1692
    9MOL    C77 2013   1.289   5.228   5.916 -0.3678 -0.0006 -0.3164
    9MOL    C78 2014   1.166   5.197   5.825 -0.3400  0.1326  0.6282
    9MOL    O79 2015   1.131   5.081   5.804 -0.5020 -0.0946  0.7285
    9MOL    H80 2016   1.341   5.423   5.836  0.4406 -0.9147  0.2679
    9MOL    H81 2017   1.481   5.494   6.036 -0.5575  0.1393 -0.9980
    9MOL    H82 2018   1.556   5.369   5.943 -1.1717 -0.3993 -1.4059
    9MOL    H83 2019   1.474   5.331   6.094 -0.3610  1.9420  1.7085
    9MOL    H84 2020   1.261   5.192   6.015 -1.0054  0.2739 -0.3987
    9MOL    H85 2021   1.372   5.162   5.888  0.0486  0.9038 -1.2641
    9MOL    O86 2022   1.113   5.302   5.767 -0.3207 -0.0439 -0.3828
    9MOL    C87 2023   1.011   5.293   5.665  0.4888 -0.6353  0.3107
    9MOL    C88 2024   0.941   5.431   5.653  0.0542  0.8457  0.2020
    9MOL    C89 2025   1.060   5.246   5.522  0.4248 -0.2490  0.0687
    9MOL    C90 2026   0.967   5.219   5.408  0.5346 -0.2188  0.2987
    9MOL    O91 2027   0.989   5.268   5.299 -0.0449  0.2711 -0.5199
    9MOL    H92 2028   0.933   5.223   5.693  0.7260 -1.5174 -1.1957
    9MOL    H93 2029   1.024   5.497   5.628 -0.1963  1.5159  1.1211
    9MOL    H94 2030   0.897   5.470   5.745 -0.4152 -0.4918  0.5592
    9MOL    H95 2031   0.869   5.432   5.571 -0.7991 -0.9903  0.8842
    9MOL    H96 2032   1.103   5.149   5.544 -0.4583 -0.2201  2.0090
    9MOL    H97 2033   1.141   5.314   5.496  1.4238 -1.4153  0.0904
    9MOL    O98 2034   0.869   5.137   5.434 -0.0805 -0.8684 -0.3470
    9MOL    C99 2035   0.750   5.135   5.354 -0.2304  0.2201 -0.0754
    9MOL   C100 2036   0.698   4.987   5.307  0.0579 -0.1036  0.1744
    9MOL   C101 2037   0.630   5.214   5.419 -0.4314 -0.4225  0.8109
    9MOL   C102 2038   0.602   5.163   5.557  0.8731  0.0209  0.3228
    9MOL   O103 2039   0.676   5.192   5.653 -0.1585  0.4061 -0.6278
    9MOL   H104 2040   0.772   5.186   5.260  0.5907 -0.1458 -0.0866
    9MOL   H105 2041   0.748   4.932   5.227 -0.4326 -0.2271 -0.0465
    9MOL   H106 2042   0.595   5.005   5.276 -0.2510 -1.1787  0.5226
    9MOL   H107 2043   0.695   4.922   5.395 -0.9168  0.0316  0.2489
    9MOL   H108 2044   0.531   5.221   5.373  0.0879  0.9101 -0.1058
    9MOL   H109 2045   0.660   5.318   5.430  1.2395 -0.7658 -0.4201
    9MOL   O110 2046   0.488   5.093   5.565 -0.7368  0.2357 -0.2028
    9MOL   C111 2047   0.442   5.037   5.689  0.1658  0.5875 -0.0997
    9MOL   C112 2048   0.308   5.101   5.725 -0.2359 -0.6354  0.1663
    9MOL   C113 2049   0.420   4.886   5.666  0.2316 -0.3579 -0.2639
    9MOL   C114 2050   0.549   4.804   5.690 -0.6044 -0.6020 -0.4586
    9MOL   O115 2051   0.539   4.685   5.723  0.2202  0.1564  0.1714
    9MOL   H116 2052   0.510   5.043   5.774 -0.2691  3.1283  0.1232
    9MOL   H117 2053   0.268   5.063   5.819 -0.3069  1.3735  0.9708
    9MOL   H118 2054   0.241   5.085   5.640  0.6253  0.4419 -0.7333
    9MOL   H119 2055   0.303   5.210   5.727  1.8659 -0.5080 -0.3437
    9MOL   H120 2056   0.393   4.863   5.563 -0.9883  0.2433 -0.0840
    9MOL   H121 2057   0.357   4.844   5.745  0.0524  0.5566  0.0798
    9MOL   O122 2058   0.664   4.872   5.666 -0.1596  0.1558  0.7995
    9MOL   C123 2059   0.788   4.815   5.693 -1.3570 -0.4806  0.5815
    9MOL   C124 2060   0.847   4.727   5.575 -0.4789  0.3820 -0.8742
    9MOL   C125 2061   0.880   4.930   5.739 -0.1456 -0.0480 -1.2518
    9MOL   C126 2062   0.836   4.974   5.884  0.5561 -0.5097 -0.0554
    9MOL   O127 2063   0.820   4.896   5.976 -0.1757  0.3180  0.2028
    9MOL   H128 2064   0.784   4.748   5.779 -0.7552  1.0130  1.8120
    9MOL   H129 2065   0.949   4.688   5.583  0.4051  2.8569  0.4502
    9MOL   H130 2066   0.830   4.789   5.488  0.2297 -0.1439 -1.3892
    9MOL   H131 2067   0.783   4.640   5.559  0.2134 -0.1493 -0.7749
    9MOL   H132 2068   0.880   5.017   5.673  2.1943  1.1095  0.2201
    9MOL   H133 2069   0.979   4.886   5.750  0.0980  0.4642 -1.3663
    9MOL   O134 2070   0.835   5.105   5.895  0.2807  0.1158  0.4865
    9MOL   C135 2071   0.803   5.150   6.023 -0.1562 -0.0214  0.2193
    9MOL   C136 2072   0.874   5.287   6.043  0.8644 -0.0401 -0.1508
    9MOL   C137 2073   0.646   5.158   6.033  0.0976 -0.5685 -0.0278
    9MOL   C138 2074   0.583   5.224   6.147  0.7777  0.0388 -0.2607
    9MOL   O139 2075   0.520   5.329   6.129  0.0837  0.3091  0.0423
    9MOL   H140 2076   0.831   5.084   6.106 -1.6828  0.6531  1.3087
    9MOL   H141 2077   0.857   5.340   5.949  2.5293  0.1306 -0.3680
    9MOL   H142 2078   0.980   5.289   6.071  1.1660  1.5574 -1.3467
    9MOL   H143 2079   0.831   5.343   6.127 -1.7006  0.6618 -1.8980
    9MOL   H144 2080   0.615   5.054   6.047 -1.5880  0.0807  1.2451
    9MOL   H145 2081   0.600   5.195   5.941 -2.3483  0.8255  1.6910
    9MOL   O146 2082   0.595   5.154   6.261 -0.1735 -0.1886  0.3004
    9MOL   C147 2083   0.543   5.198   6.381  0.2580 -0.7724 -0.9736
    9MOL   C148 2084   0.394   5.180   6.392 -0.0729  0.5194 -0.1405
    9MOL   C149 2085   0.617   5.135   6.506  0.1581 -0.8112 -0.2565
    9MOL   C150 2086   0.648   5.239   6.611  0.3297  0.4892 -0.0669
    9MOL   O151 2087   0.577   5.336   6.633 -0.6296 -0.2360  0.1800
    9MOL   H152 2088   0.566   5.304   6.387  1.8246 -1.0398 -2.0379
    9MOL   H153 2089   0.337   5.235   6.317 -0.5377  1.2128  0.7103
    9MOL   H154 2090   0.363   5.229   6.484  0.7987  1.8361 -0.5454
    9MOL   H155 2091   0.363   5.075   6.396  0.2532  0.3333 -1.9627
    9MOL   H156 2092   0.710   5.081   6.491 -0.3518 -1.9267  0.5263
    9MOL   H157 2093   0.555   5.061   6.557 -0.2162  0.3606  1.0133
    9MOL   O158 2094   0.769   5.211   6.672  0.3501  1.0397  0.0362
    9MOL   C159 2095   0.844   5.312   6.740 -0.1418  0.2773 -0.2166
    9MOL   C160 2096   0.831   5.282   6.891  0.4953 -0.8709  0.0494
    9MOL   C161 2097   0.985   5.304   6.690  0.9837  0.0239 -0.3843
    9MOL   C162 2098   1.054   5.169   6.717  0.0016 -0.0279 -0.6130
    9MOL   O163 2099   1.134   5.157   6.813 -0.2278 -0.5899 -0.3175
    9MOL   H164 2100   0.813   5.416   6.732  1.2142  0.6072 -1.4867
    9MOL   H165 2101   0.733   5.313   6.929  1.2429 -1.2069  2.3139
    9MOL   H166 2102   0.908   5.343   6.939 -1.1435  0.6706  0.7861
    9MOL   H167 2103   0.843   5.182   6.932  3.2940  0.3338  2.3823
    9MOL   H168 2104   1.059   5.379   6.716 -0.1203  1.6241 -1.7581
    9MOL   H169 2105   0.967   5.312   6.583 -1.8613 -1.3678 -0.0803
    9MOL   O170 2106   1.013   5.076   6.632  0.2413  0.1747  0.3292
    9MOL   C171 2107   1.064   4.945   6.634  0.2253 -0.9360  0.3834
    9MOL   C172 2108   0.948   4.846   6.644 -0.4923 -0.3862  0.2253
    9MOL   C173 2109   1.167   4.924   6.522  0.5055 -0.3835 -0.2110
    9MOL   C174 2110   1.109   4.912   6.376  0.6942 -1.0345  0.4857
    9MOL   O175 2111   1.000   4.956   6.340  0.1704 -0.2663 -0.2842
    9MOL   H176 2112   1.112   4.923   6.730  3.2338 -1.6438 -1.1971
    9MOL   H177 2113   0.863   4.873   6.581  0.7918 -0.4386 -1.5929
    9MOL   H178 2114   0.907   4.835   6.744 -1.8129 -0.0872 -0.2834
    9MOL   H179 2115   0.982   4.747   6.611  1.4281  0.2103  0.3205
    9MOL   H180 2116   1.233   4.839   6.539  2.0021  1.0629  1.4117
    9MOL   H181 2117   1.225   5.016   6.528  1.0410 -0.7854  1.0203
    9MOL   O182 2118   1.211   4.870   6.293 -0.1061  0.3845  0.5535
    9MOL   C183 2119   1.197   4.901   6.150  0.4443 -0.0848  0.0865
    9MOL   C184 2120   1.339   4.900   6.089  0.3157 -0.4520  0.4738
    9MOL   C185 2121   1.098   4.813   6.083  0.5688 -0.5012 -0.3534
    9MOL   C186 2122   1.119   4.671   6.057  0.3072 -0.2599 -1.0156
    9MOL   O187 2123   1.167   4.601   6.146  0.1998 -0.6029 -0.6905
    9MOL   H188 2124   1.164   5.004   6.142 -0.4028 -0.2747  1.0078
    9MOL   H189 2125   1.403   4.963   6.150  0.8444  0.1698 -0.6872
    9MOL   H190 2126   1.329   4.929   5.984  0.5308 -2.5796 -0.1482
    9MOL   H191 2127   1.374   4.797   6.097  0.1306 -0.4873  0.8416
    9MOL   H192 2128   1.101   4.857   5.983  2.5926  0.3822  0.0814
    9MOL   H193 2129   0.995   4.836   6.111  0.2908 -0.6167 -1.2329
    9MOL   O194 2130   1.083   4.631   5.938  0.4466  0.3674 -0.5117
    9MOL   C195 2131   1.073   4.491   5.908 -0.2161 -0.0716  0.1082
    9MOL   C196 2132   0.957   4.484   5.808 -0.4560 -1.3321 -0.5969
    9MOL   C197 2133   1.204   4.439   5.843 -0.0732  0.1949 -0.7713
    9MOL   C198 2134   1.257   4.518   5.725  0.5305  0.1965 -0.0919
    9MOL   O199 2135   1.258   4.466   5.609  0.3033  0.2610 -0.2043
    9MOL   H200 2136   1.049   4.436   5.999  0.5678  0.5976  0.7342
    9MOL   H201 2137   0.983   4.536   5.716 -0.4549  0.0533  0.1765
    9MOL   H202 2138   0.867   4.519   5.859 -0.2354 -0.8724 -0.5195
    9MOL   H203 2139   0.940   4.378   5.790  0.5477 -1.1923 -2.4481
    9MOL   H204 2140   1.211   4.332   5.824 -0.8887 -0.3248  1.6827
    9MOL   H205 2141   1.279   4.462   5.918  0.5867 -1.8119 -0.8014
    9MOL   O206 2142   1.307   4.637   5.753  0.3673 -0.3671 -0.8862
    9MOL   C207 2143   1.343   4.722   5.644  0.3193  0.5814  0.4622
    9MOL   C208 2144   1.340   4.854   5.697 -0.3888  0.1505  1.0480
    9MOL   C209 2145   1.490   4.684   5.602 -1.1790  0.1433 -0.3281
    9MOL   C210 2146   1.527   4.756   5.474  0.0759 -0.2598 -0.3255
    9MOL   O211 2147   1.629   4.822   5.476 -0.2490 -0.0773 -0.2149
    9MOL   H212 2148   1.270   4.704   5.565 -0.0878 -1.3959  1.2580
    9MOL   H213 2149   1.246   4.874   5.748 -0.6119  1.4449  0.1501
    9MOL   H214 2150   1.358   4.925   5.616  0.7638 -1.2451  0.0391
    9MOL   H215 2151   1.408   4.874   5.780 -0.0493 -3.6179  1.7640
    9MOL   H216 2152   1.497   4.577   5.584  0.4499  0.2930 -0.6681
    9MOL   H217 2153   1.568   4.694   5.678  1.7234 -2.5757 -2.7791
    9MOL   O218 2154   1.441   4.736   5.373  0.2026  0.0064 -0.2187
    9MOL   C219 2155   1.458   4.800   5.249 -0.9814 -0.3975  0.2532
    9MOL   C220 2156   1.416   4.707   5.132 -0.3375  0.6981  0.1866
    9MOL   C221 2157   1.387   4.943   5.237 -0.1825 -0.1394 -0.1520
    9MOL   C222 2158   1.240   4.944   5.253  0.1554  0.5223  0.0721
    9MOL   O223 2159   1.192   4.982   5.366  0.3627 -0.4325 -0.2408
    9MOL   H224 2160   1.561   4.823   5.222 -1.8616 -0.5358 -3.5687
    9MOL   H225 2161   1.316   4.664   5.145  0.6443 -1.0205  2.3909
    9MOL   H226 2162   1.485   4.623   5.132 -2.1831 -0.8449  0.1288
    9MOL   H227 2163   1.420   4.767   5.041 -1.4749  1.7365  0.7914
    9MOL   H228 2164   1.416   5.003   5.150  0.9039  0.0380  0.3200
    9MOL   H229 2165   1.428   5.002   5.319  0.7587 -1.7302  0.5403
    9MOL   O230 2166   1.173   4.908   5.144  0.2309  0.3272 -0.5170
    9MOL   C231 2167   1.026   4.903   5.146  0.4480  0.2645  0.4946
    9MOL   C232 2168   0.984   4.999   5.037 -0.1628 -0.6718  1.0979
    9MOL   C233 2169   0.981   4.761   5.110 -0.0568 -0.5689  0.4149
    9MOL   C234 2170   0.967   4.667   5.223 -0.5746  0.5333  0.5159
    9MOL   O235 2171   0.855   4.639   5.273  0.5355  0.6943 -0.2925
    9MOL   H236 2172   0.989   4.930   5.245 -1.5408 -1.3694  0.2255
    9MOL   H237 2173   1.022   5.098   5.064 -0.1356 -0.2945 -0.3029
    9MOL   H238 2174   0.876   5.012   5.030 -0.5954 -2.1098  4.1016
    9MOL   H239 2175   1.019   4.962   4.941 -1.5896 -0.5295  0.5017
    9MOL   H240 2176   1.035   4.723   5.023  2.4020  2.7940  0.3307
    9MOL   H241 2177   0.883   4.774   5.064  0.7939  0.0926 -1.2744
    9MOL   H242 2178   1.056   4.616   5.260 -1.5423 -0.9464  0.8523
   10MOL     O1 2179   4.472   3.957   2.511  0.2250 -0.2637  0.4783
   10MOL     C2 2180   4.455   4.023   2.387  0.5321 -0.5795  0.0127
   10MOL     C3 2181   4.402   4.168   2.415  0.1743  0.3000  0.2773
   10MOL     C4 2182   4.579   4.011   2.301 -0.0244 -0.4700  0.7256
   10MOL     C5 2183   4.571   4.060   2.155  0.3292 -0.0510 -0.3871
   10MOL     O6 2184   4.585   3.983   2.062  0.6723  0.1518  0.2449
   10MOL     H7 2185   4.385   3.969   2.323  0.5215  0.1664 -0.6093
   10MOL     H8 2186   4.372   4.230   2.331  2.5081 -3.4750 -3.5600
   10MOL     H9 2187   4.471   4.228   2.475 -1.4316  2.3040  0.1588
   10MOL    H10 2188   4.311   4.155   2.473  0.0140 -2.1640 -0.4768
   10MOL    H11 2189   4.592   3.904   2.286 -3.0744 -0.6057 -1.3224
   10MOL    H12 2190   4.668   4.059   2.341  0.7669 -0.4956 -1.0021
   10MOL    H13 2191   4.484   3.863   2.501 -0.2335 -0.5117  2.1196
   10MOL    O14 2192   4.539   4.188   2.135 -0.0917  0.1784  0.4222
   10MOL    C15 2193   4.540   4.248   2.001  0.4840  0.0343  0.1318
   10MOL    C16 2194   4.469   4.379   2.022  0.5933  0.7417  0.4522
   10MOL    C17 2195   4.679   4.266   1.934 -0.3256  0.1514 -0.4575
   10MOL    C18 2196   4.655   4.301   1.793  0.4056  1.0664  0.2520
   10MOL    O19 2197   4.576   4.235   1.730  0.2555  0.5187 -0.0085
   10MOL    H20 2198   4.483   4.179   1.938  2.4061 -0.7800 -0.7636
   10MOL    H21 2199   4.458   4.436   1.930  2.0114  1.0675  0.4666
   10MOL    H22 2200   4.525   4.441   2.093 -0.6680  1.8952  0.4745
   10MOL    H23 2201   4.368   4.364   2.061  1.1455 -3.4495  0.4725
   10MOL    H24 2202   4.733   4.171   1.936 -0.6548 -0.0201  1.8569
   10MOL    H25 2203   4.728   4.345   1.991 -2.8309  0.6047  1.1446
   10MOL    O26 2204   4.719   4.412   1.749  0.6573  0.0826 -0.2414
   10MOL    C27 2205   4.708   4.445   1.613 -0.2224 -0.7361 -0.9825
   10MOL    C28 2206   4.709   4.602   1.613  0.1964  0.0102  0.4611
   10MOL    C29 2207   4.823   4.379   1.541 -0.1930 -0.8168 -0.6512
   10MOL    C30 2208   4.792   4.244   1.480 -0.6367  0.5498  0.0114
   10MOL    O31 2209   4.838   4.140   1.534  0.3386  0.3841  0.0692
   10MOL    H32 2210   4.613   4.408   1.575 -1.4511  1.3809 -0.0716
   10MOL    H33 2211   4.618   4.648   1.650  1.6411  2.8218  0.6310
   10MOL    H34 2212   4.723   4.637   1.510  0.7095 -0.1951  0.4596
   10MOL    H35 2213   4.788   4.649   1.670 -0.6676 -0.3225  1.9573
   10MOL    H36 2214   4.913   4.362   1.600  1.2025  1.1801 -2.1562
   10MOL    H37 2215   4.843   4.454   1.465 -0.7088 -0.5698 -0.5467
   10MOL    O38 2216   4.726   4.240   1.364 -0.7779  0.2612  0.1399
   10MOL    C39 2217   4.741   4.134   1.264 -1.0631 -0.2864 -0.2604
   10MOL    C40 2218   4.607   4.106   1.197 -0.5938 -0.3583  0.5392
   10MOL    C41 2219   4.861   4.156   1.173  0.1530  0.0211  0.5317
   10MOL    C42 2220   4.995   4.119   1.231 -0.0643 -0.0908  0.5405
   10MOL    O43 2221   5.071   4.207   1.277  0.4087 -0.2743  0.5803
   10MOL    H44 2222   4.767   4.038   1.311 -0.7178 -0.2755 -0.4243
   10MOL    H45 2223   4.615   4.008   1.150 -0.2628  0.9574 -2.2661
   10MOL    H46 2224   4.603   4.180   1.117 -2.7212  0.2591  1.2028
   10MOL    H47 2225   4.525   4.130   1.263 -1.6031 -1.0150 -0.4587
   10MOL    H48 2226   4.872   4.257   1.132  2.0679 -0.9541 -1.4821
   10MOL    H49 2227   4.846   4.084   1.093  0.5122 -0.8591  1.2481
   10MOL    O50 2228   5.020   3.989   1.235  0.1567  0.5014  0.3643
   10MOL    C51 2229   5.148   3.935   1.276 -0.4308 -0.2381 -0.3365
   10MOL    C52 2230   5.137   3.797   1.348 -1.1298 -0.3901 -0.0528
   10MOL    C53 2231   5.231   3.941   1.146  0.4106  0.7003 -0.0630
   10MOL    C54 2232   5.386   3.954   1.175 -0.5586  0.6000  0.1384
   10MOL    O55 2233   5.465   3.861   1.150 -0.1823  0.2533  0.0311
   10MOL    H56 2234   5.193   4.006   1.346  2.1392 -1.1414 -0.9951
   10MOL    H57 2235   5.035   3.783   1.384 -1.4535  1.7775 -0.0544
   10MOL    H58 2236   5.200   3.780   1.436  2.1641 -0.4243 -2.3222
   10MOL    H59 2237   5.159   3.719   1.276  0.0812  0.5737 -0.7507
   10MOL    H60 2238   5.197   4.027   1.088 -1.9608 -1.1933 -1.5751
   10MOL    H61 2239   5.207   3.856   1.083  0.2165  0.1952  0.6894
   10MOL    O62 2240   5.408   4.061   1.234 -0.2504  0.3229  0.6798
   10MOL    C63 2241   5.544   4.102   1.255  0.5009 -0.4320  0.0561
   10MOL    C64 2242   5.561   4.252   1.237 -0.6057 -0.6615  0.0308
   10MOL    C65 2243   5.583   4.046   1.400  0.6137  0.1464 -0.1749
   10MOL    C66 2244   5.523   4.118   1.518 -0.0017  0.7051 -0.5344
   10MOL    O67 2245   5.592   4.200   1.579  0.2358 -0.5773 -0.0720
   10MOL    H68 2246   5.607   4.051   1.182  0.3918 -3.3584  1.9304
   10MOL    H69 2247   5.493   4.309   1.301  0.6920 -0.8055  1.5724
   10MOL    H70 2248   5.532   4.272   1.134  0.0721  1.4041  0.2298
   10MOL    H71 2249   5.668   4.268   1.253 -0.9077  0.7713  0.6661
   10MOL    H72 2250   5.692   4.044   1.403  0.7420 -0.0569 -3.2912
   10MOL    H73 2251   5.539   3.947   1.409 -0.1399  0.3819 -1.1017
   10MOL    O74 2252   5.399   4.081   1.549 -0.3585  0.2105 -0.1871
   10MOL    C75 2253   5.321   4.134   1.655 -0.1800  0.0025  0.3863
   10MOL    C76 2254   5.211   4.235   1.609 -1.0103  0.1885  0.4916
   10MOL    C77 2255   5.249   4.009   1.711 -1.0569 -0.4185  0.5538
   10MOL    C78 2256   5.333   3.896   1.768 -0.7350 -0.0533 -0.0002
   10MOL    O79 2257   5.289   3.784   1.789 -0.4237 -0.4790  0.1172
   10MOL    H80 2258   5.383   4.179   1.732 -0.1223 -2.0555  1.5798
   10MOL    H81 2259   5.255   4.328   1.572 -0.0333  0.2557  1.7896
   10MOL    H82 2260   5.155   4.264   1.698 -0.1989 -0.1111  1.1025
   10MOL    H83 2261   5.136   4.198   1.539 -1.3326  0.7323  0.5459
   10MOL    H84 2262   5.195   3.975   1.622 -2.2955 -0.6508  1.3846
   10MOL    H85 2263   5.174   4.035   1.786 -1.0484  0.4729  0.2634
   10MOL    O86 2264   5.465   3.936   1.796  0.2418  0.0173  0.2783
   10MOL    C87 2265   5.556   3.844   1.855  0.0023 -0.6021 -0.0309
   10MOL    C88 2266   5.693   3.904   1.825 -0.5796 -0.3428  0.0246
   10MOL    C89 2267   5.514   3.825   2.004  0.5333 -0.7866 -0.2719
   10MOL    C90 2268   5.627   3.807   2.104 -0.6703  0.9606  0.1438
   10MOL    O91 2269   5.652   3.699   2.152 -0.1196  0.3037  0.1504
   10MOL    H92 2270   5.553   3.742   1.818 -0.9662 -0.6126  0.0624
   10MOL    H93 2271   5.687   4.007   1.861 -0.2924  1.2838 -4.3517
   10MOL    H94 2272   5.732   3.907   1.723  0.9243  0.0327  0.5908
   10MOL    H95 2273   5.775   3.861   1.883  0.8855 -0.1945 -1.8983
   10MOL    H96 2274   5.440   3.746   2.018 -0.9250  0.8832  1.7357
   10MOL    H97 2275   5.466   3.920   2.029 -1.4280 -1.7311 -0.3616
   10MOL    O98 2276   5.686   3.924   2.147  0.0485  0.9860 -0.0654
   10MOL    C99 2277   5.792   3.930   2.238  0.5743 -0.0185 -0.6945
   10MOL   C100 2278   5.915   4.007   2.186 -0.1768 -0.5329 -0.5150
   10MOL   C101 2279   5.754   3.982   2.377 -0.1084  0.3438 -0.5822
   10MOL   C102 2280   5.648   3.900   2.450 -0.3041 -0.2272  0.3399
   10MOL   O103 2281   5.558   3.958   2.512  0.1574 -0.4317 -0.3563
   10MOL   H104 2282   5.827   3.828   2.251 -0.9397 -0.6019 -1.1062
   10MOL   H105 2283   5.984   3.996   2.269 -1.1514 -2.7335  0.0529
   10MOL   H106 2284   5.879   4.109   2.179 -1.4375 -0.7866  1.7801
   10MOL   H107 2285   5.956   3.978   2.089  1.0206 -0.9481  0.1089
   10MOL   H108 2286   5.718   4.085   2.377  0.3511  0.5261  1.2318
   10MOL   H109 2287   5.838   3.984   2.447  0.6505  0.8814 -1.4898
   10MOL   O110 2288   5.670   3.759   2.444 -0.1226  0.6644 -0.9696
   10MOL   C111 2289   5.585   3.668   2.523 -0.9848 -0.6485  0.9505
   10MOL   C112 2290   5.596   3.541   2.438 -0.1468  0.2856  0.1103
   10MOL   C113 2291   5.625   3.652   2.671 -0.0211  0.6656 -0.2577
   10MOL   C114 2292   5.553   3.544   2.751  0.0138 -0.0274  0.0356
   10MOL   O115 2293   5.532   3.428   2.715 -0.0541 -0.6060 -0.5810
   10MOL   H116 2294   5.478   3.689   2.512 -0.6043  0.6623 -0.3606
   10MOL   H117 2295   5.702   3.528   2.415 -0.9323 -0.1963 -3.6267
   10MOL   H118 2296   5.551   3.549   2.339 -2.2540 -1.5565  0.8865
   10MOL   H119 2297   5.560   3.446   2.478  0.7793  1.3056  3.4770
   10MOL   H120 2298   5.607   3.754   2.705 -2.6759  0.3222 -0.5227
   10MOL   H121 2299   5.730   3.622   2.667 -0.2976 -0.2898 -0.5010
   10MOL   O122 2300   5.528   3.590   2.875 -0.1148  0.3150 -0.5783
   10MOL   C123 2301   5.452   3.512   2.972 -0.4090  0.6657  0.7016
   10MOL   C124 2302   5.556   3.430   3.052 -0.0521  0.1023 -0.7726
   10MOL   C125 2303   5.358   3.606   3.052 -0.3350  0.1905 -0.1045
   10MOL   C126 2304   5.243   3.539   3.137 -0.2759 -0.3915 -0.4910
   10MOL   O127 2305   5.192   3.437   3.094 -0.4878  0.2040 -0.0875
   10MOL   H128 2306   5.403   3.439   2.908  1.3047  0.2838 -0.2097
   10MOL   H129 2307   5.501   3.357   3.112 -0.2477  1.7824  1.1410
   10MOL   H130 2308   5.618   3.489   3.118 -2.8028  1.0175  1.0539
   10MOL   H131 2309   5.615   3.382   2.974  0.3565 -0.6614 -0.0090
   10MOL   H132 2310   5.332   3.687   2.985 -1.1665  0.5409  0.6348
   10MOL   H133 2311   5.415   3.663   3.124 -0.1402 -1.8187  1.3918
   10MOL   O134 2312   5.201   3.621   3.241  0.1509  0.2051 -0.1773
   10MOL   C135 2313   5.087   3.581   3.323 -0.0555  0.3690 -0.3293
   10MOL   C136 2314   5.138   3.477   3.429 -0.1291  0.6883  0.2080
   10MOL   C137 2315   5.026   3.703   3.398 -0.2434  0.1974  0.8037
   10MOL   C138 2316   5.115   3.778   3.498  0.4676  0.4272 -0.1496
   10MOL   O139 2317   5.164   3.882   3.460  0.0893 -0.2435 -0.0787
   10MOL   H140 2318   5.014   3.534   3.257  1.3373 -2.5259  0.1469
   10MOL   H141 2319   5.236   3.513   3.459 -0.0060  0.2000  0.3939
   10MOL   H142 2320   5.160   3.377   3.390 -1.8002  0.7519 -0.9239
   10MOL   H143 2321   5.070   3.467   3.513  1.0159 -0.4577  1.0146
   10MOL   H144 2322   4.934   3.675   3.448 -0.9350  0.2993 -0.3908
   10MOL   H145 2323   5.009   3.783   3.326 -0.4281 -1.5153 -1.0885
   10MOL   O146 2324   5.135   3.705   3.610 -1.3078  0.6596  0.1925
   10MOL   C147 2325   5.227   3.769   3.713  0.2964  0.8066  0.6988
   10MOL   C148 2326   5.163   3.876   3.804 -0.1079  0.4613  0.2641
   10MOL   C149 2327   5.282   3.652   3.798 -0.1308  0.0788  0.3391
   10MOL   C150 2328   5.416   3.597   3.750  0.0806 -0.6248 -0.6264
   10MOL   O151 2329   5.508   3.574   3.826 -0.2655 -0.0311  0.2949
   10MOL   H152 2330   5.308   3.817   3.658  0.9156 -0.1244  0.7824
   10MOL   H153 2331   5.243   3.911   3.869  2.0453  0.3830 -2.2183
   10MOL   H154 2332   5.071   3.850   3.855 -0.4853 -1.7475 -1.4622
   10MOL   H155 2333   5.133   3.958   3.738  1.6921  0.0890 -1.0397
   10MOL   H156 2334   5.204   3.576   3.800  0.4353 -0.5409 -0.8185
   10MOL   H157 2335   5.301   3.679   3.902  0.6340  0.6835  0.0413
   10MOL   O158 2336   5.427   3.586   3.621  0.0398 -0.0789 -0.2795
   10MOL   C159 2337   5.549   3.544   3.555  0.0227 -0.2122  0.0374
   10MOL   C160 2338   5.510   3.420   3.476 -0.2473  0.4374  0.2067
   10MOL   C161 2339   5.599   3.666   3.470  0.1050  0.3651  0.2125
   10MOL   C162 2340   5.748   3.655   3.422 -0.5186  0.8348  0.4475
   10MOL   O163 2341   5.769   3.678   3.303 -0.3015 -0.2505  0.1293
   10MOL   H164 2342   5.629   3.517   3.624 -0.4358  0.6473  0.9064
   10MOL   H165 2343   5.591   3.393   3.408 -0.6564 -1.1126  0.3171
   10MOL   H166 2344   5.426   3.434   3.407 -0.7802  0.0442  0.7765
   10MOL   H167 2345   5.497   3.338   3.546  2.1447  0.4458  0.6997
   10MOL   H168 2346   5.597   3.749   3.541 -0.8869  1.6294 -1.2566
   10MOL   H169 2347   5.526   3.687   3.391 -0.9824 -1.9876  0.5474
   10MOL   O170 2348   5.830   3.601   3.506  0.0682 -0.1099  0.2566
   10MOL   C171 2349   5.968   3.599   3.479  0.0126 -0.5356 -0.2087
   10MOL   C172 2350   6.030   3.565   3.616  0.3386  0.3827 -0.3748
   10MOL   C173 2351   6.014   3.496   3.371 -0.1544 -0.2669  0.0452
   10MOL   C174 2352   6.049   3.548   3.237  0.4195 -0.1387 -0.1141
   10MOL   O175 2353   6.094   3.666   3.227  0.1562 -0.0938 -0.5495
   10MOL   H176 2354   6.001   3.700   3.458  0.4798 -0.2970  1.5730
   10MOL   H177 2355   6.138   3.562   3.630  0.5256  1.9949 -1.2919
   10MOL   H178 2356   5.989   3.472   3.655  1.0629 -0.6822 -2.1218
   10MOL   H179 2357   6.006   3.637   3.695 -0.3458  0.0873 -0.3150
   10MOL   H180 2358   5.935   3.423   3.353 -0.2773 -0.3228  0.7790
   10MOL   H181 2359   6.099   3.439   3.408  0.8563 -0.8964 -3.1329
   10MOL   O182 2360   6.021   3.455   3.141  0.4889 -0.4120 -0.0715
   10MOL   C183 2361   6.031   3.487   2.996 -1.1867 -0.0864 -0.1721
   10MOL   C184 2362   6.178   3.451   2.961 -0.0895  0.3183  0.0833
   10MOL   C185 2363   5.921   3.408   2.912  0.1672 -0.4184 -0.6569
   10MOL   C186 2364   5.955   3.401   2.763  0.3886  0.4652 -0.4819
   10MOL   O187 2365   5.961   3.498   2.691  0.0052  0.3633  0.1938
   10MOL   H188 2366   6.024   3.593   2.974  2.8863  0.0443 -1.2035
   10MOL   H189 2367   6.204   3.435   2.856  1.8856 -1.1430  0.7640
   10MOL   H190 2368   6.211   3.359   3.009  1.4903  1.1012  0.5211
   10MOL   H191 2369   6.246   3.532   2.987  1.1784 -0.3737 -1.0125
   10MOL   H192 2370   5.836   3.475   2.927  0.4521 -0.5836  1.9721
   10MOL   H193 2371   5.909   3.309   2.956 -1.7926  0.8269  1.7239
   10MOL   O194 2372   5.977   3.268   2.723  0.3711 -0.4317 -0.2026
   10MOL   C195 2373   5.992   3.236   2.586  0.1276 -0.9318  0.2854
   10MOL   C196 2374   6.051   3.097   2.582 -0.5211 -0.1491  0.2437
   10MOL   C197 2375   5.858   3.254   2.503  0.6341  0.1622 -0.2447
   10MOL   C198 2376   5.746   3.165   2.555 -0.6452  0.2315 -0.9964
   10MOL   O199 2377   5.716   3.139   2.673 -0.8703 -0.1345 -0.5853
   10MOL   H200 2378   6.069   3.300   2.543  0.5117 -1.7860 -0.2991
   10MOL   H201 2379   6.084   3.072   2.482  0.6841  2.7016 -0.1025
   10MOL   H202 2380   5.974   3.021   2.592  0.4058 -1.2247 -0.6002
   10MOL   H203 2381   6.138   3.075   2.645 -0.7011 -1.6840 -0.0113
   10MOL   H204 2382   5.868   3.240   2.396 -1.9844  1.1583 -0.6619
   10MOL   H205 2383   5.827   3.358   2.512  0.5192  0.0427  0.8940
   10MOL   O206 2384   5.673   3.110   2.449  0.2066  0.2123 -0.4598
   10MOL   C207 2385   5.549   3.049   2.490 -0.7486 -0.2972 -0.3907
   10MOL   C208 2386   5.444   3.157   2.517 -0.7786  0.2154  0.0125
   10MOL   C209 2387   5.501   2.951   2.379  0.1115  0.8880 -0.2888
   10MOL   C210 2388   5.579   2.816   2.381  0.4024 -0.9369 -0.2947
   10MOL   O211 2389   5.546   2.711   2.321 -0.1826  0.1132 -0.2392
   10MOL   H212 2390   5.565   2.992   2.581  2.2999 -0.8438 -1.2380
   10MOL   H213 2391   5.344   3.119   2.537 -0.2384 -0.2896  1.8538
   10MOL   H214 2392   5.428   3.215   2.426 -1.7278 -0.5655 -0.3296
   10MOL   H215 2393   5.481   3.226   2.592  0.4553 -1.0016  0.5437
   10MOL   H216 2394   5.492   2.996   2.280  1.4547 -0.8828 -1.2452
   10MOL   H217 2395   5.400   2.932   2.416 -0.4220 -0.6895 -2.4634
   10MOL   O218 2396   5.693   2.820   2.450  0.0813 -0.0333 -0.6842
   10MOL   C219 2397   5.793   2.722   2.429  0.4469 -0.5013  0.6155
   10MOL   C220 2398   5.931   2.779   2.436 -0.7090 -0.2698 -0.1518
   10MOL   C221 2399   5.763   2.590   2.514  0.0588 -0.8566 -0.0762
   10MOL   C222 2400   5.808   2.458   2.462  0.2067  0.5663 -0.0906
   10MOL   O223 2401   5.926   2.427   2.453 -0.4973  0.1803  0.1632
   10MOL   H224 2402   5.786   2.694   2.324 -1.0317  0.5357  0.4256
   10MOL   H225 2403   5.998   2.698   2.411 -1.5683 -1.2329  0.6052
   10MOL   H226 2404   5.951   2.807   2.540  0.1208 -2.3429  0.2544
   10MOL   H227 2405   5.944   2.861   2.365 -1.5816  0.0721  0.0625
   10MOL   H228 2406   5.657   2.582   2.538 -0.0481  0.2152 -0.1526
   10MOL   H229 2407   5.803   2.606   2.614 -0.0651 -2.7021  0.2846
   10MOL   O230 2408   5.705   2.374   2.431  0.1577 -0.6150  0.4027
   10MOL   C231 2409   5.740   2.255   2.366  0.2724  0.0182  0.1528
   10MOL   C232 2410   5.658   2.137   2.415  0.6340  0.1467  0.3872
   10MOL   C233 2411   5.747   2.269   2.214  0.2572 -0.1304 -1.0176
   10MOL   C234 2412   5.622   2.265   2.125 -0.4514  0.4885 -0.0907
   10MOL   O235 2413   5.543   2.169   2.122 -0.5833  1.3058 -0.6574
   10MOL   H236 2414   5.844   2.231   2.388  1.3007  2.8588 -1.3029
   10MOL   H237 2415   5.676   2.050   2.352 -0.9483  0.4765 -0.5506
   10MOL   H238 2416   5.552   2.152   2.395  0.4791 -0.0705  1.0589
   10MOL   H239 2417   5.673   2.103   2.517 -0.7034  0.0385  0.5505
   10MOL   H240 2418   5.806   2.183   2.184  1.2647  0.6655 -1.3508
   10MOL   H241 2419   5.811   2.354   2.188  0.8281 -0.6284 -1.2429
   10MOL   H242 2420   5.609   2.349   2.057  2.5958 -0.2384 -1.7058
   11MOL     O1 2421   2.356   4.844   3.856 -0.5711  0.6625 -0.1406
   11MOL     C2 2422   2.385   4.919   3.732  0.4982  0.2976 -0.3162
   11MOL     C3 2423   2.457   5.050   3.781  0.8399 -0.1569 -0.5100
   11MOL     C4 2424   2.469   4.831   3.629  0.5824  0.0643  0.1225
   11MOL     C5 2425   2.522   4.906   3.507  0.2974  0.3712  0.3906
   11MOL     O6 2426   2.639   4.895   3.469 -0.2758 -0.2379 -0.1436
   11MOL     H7 2427   2.287   4.934   3.686 -0.5195 -1.1868  1.2931
   11MOL     H8 2428   2.499   5.106   3.698  0.3381 -0.2120 -0.8015
   11MOL     H9 2429   2.533   5.019   3.853  1.5340 -0.3616 -1.3250
   11MOL    H10 2430   2.389   5.110   3.842 -1.0874 -3.6131  0.8648
   11MOL    H11 2431   2.415   4.742   3.598 -1.0663  1.2040 -0.3360
   11MOL    H12 2432   2.569   4.814   3.669  0.7212  1.1675  0.2676
   11MOL    H13 2433   2.305   4.770   3.826  2.0007 -0.6982 -1.3236
   11MOL    O14 2434   2.423   4.960   3.432 -0.0072 -0.0350 -0.3933
   11MOL    C15 2435   2.453   5.038   3.315 -0.6042  0.5555  0.3873
   11MOL    C16 2436   2.465   4.935   3.204 -0.2743  0.6467  0.5241
   11MOL    C17 2437   2.331   5.129   3.268  0.1086  0.6414  0.1614
   11MOL    C18 2438   2.313   5.250   3.366 -0.2056  0.0254  0.6622
   11MOL    O19 2439   2.220   5.331   3.361 -0.1728  0.4018  0.5440
   11MOL    H20 2440   2.549   5.090   3.318  0.3183 -1.0668 -0.6647
   11MOL    H21 2441   2.530   4.851   3.230  0.5722  1.0979 -0.0992
   11MOL    H22 2442   2.491   4.974   3.106  0.5443  1.3166  0.9903
   11MOL    H23 2443   2.363   4.904   3.182  0.1619  0.8714 -1.9641
   11MOL    H24 2444   2.242   5.068   3.282 -0.5537  1.2037 -1.4414
   11MOL    H25 2445   2.338   5.164   3.165 -0.7568 -1.1262 -0.5165
   11MOL    O26 2446   2.416   5.263   3.454 -0.2311 -0.7079  0.3136
   11MOL    C27 2447   2.440   5.385   3.528 -0.0806 -0.0253 -0.4005
   11MOL    C28 2448   2.334   5.399   3.645  0.3099 -0.4156  0.2174
   11MOL    C29 2449   2.582   5.376   3.584  0.3244  0.1280  0.5534
   11MOL    C30 2450   2.686   5.449   3.501  0.2045 -0.6398 -1.1081
   11MOL    O31 2451   2.731   5.406   3.394  0.0279 -0.4992 -0.3220
   11MOL    H32 2452   2.413   5.473   3.470 -0.3347  0.0196 -0.2105
   11MOL    H33 2453   2.350   5.492   3.699  0.3777  0.3777 -1.1339
   11MOL    H34 2454   2.327   5.313   3.712  1.1149 -0.3747  0.3539
   11MOL    H35 2455   2.240   5.412   3.591 -0.4265 -2.0635  1.0823
   11MOL    H36 2456   2.622   5.275   3.593  0.2184  0.0636  0.2629
   11MOL    H37 2457   2.585   5.427   3.681 -1.2687 -2.6478  2.1327
   11MOL    O38 2458   2.724   5.569   3.554  0.3871  0.7012  0.2478
   11MOL    C39 2459   2.814   5.657   3.487  0.0214  0.0976 -0.2827
   11MOL    C40 2460   2.757   5.798   3.490 -0.5994  0.6475  0.0350
   11MOL    C41 2461   2.951   5.649   3.548  0.6911 -0.5804  0.1453
   11MOL    C42 2462   3.039   5.536   3.503  0.1362  0.3707  0.0787
   11MOL    O43 2463   3.044   5.424   3.555  0.1731 -0.2001 -0.1292
   11MOL    H44 2464   2.829   5.638   3.381 -0.5113 -2.4886  0.0558
   11MOL    H45 2465   2.680   5.807   3.413 -2.0009  0.6104  1.3979
   11MOL    H46 2466   2.825   5.880   3.466 -0.4817  0.0601 -1.6853
   11MOL    H47 2467   2.713   5.820   3.588  0.5331  0.1541  0.6595
   11MOL    H48 2468   2.946   5.622   3.654 -0.7397  0.0970  0.2629
   11MOL    H49 2469   3.014   5.737   3.538 -1.1536  1.0095  2.0143
   11MOL    O50 2470   3.099   5.577   3.385 -0.5463  0.1877 -0.5149
   11MOL    C51 2471   3.165   5.502   3.281 -0.0155 -1.0647  0.5507
   11MOL    C52 2472   3.278   5.441   3.355  0.1682  0.1909  0.4510
   11MOL    C53 2473   3.084   5.389   3.212  0.4670 -0.1246  0.6790
   11MOL    C54 2474   2.992   5.430   3.102 -0.9596  0.2029 -0.4313
   11MOL    O55 2475   2.993   5.539   3.046 -0.4076 -0.2015  0.1386
   11MOL    H56 2476   3.211   5.571   3.210 -0.4904 -1.6573 -0.3353
   11MOL    H57 2477   3.346   5.513   3.402 -1.2936  2.1227 -0.3199
   11MOL    H58 2478   3.351   5.393   3.290 -0.3995 -0.0903  0.0255
   11MOL    H59 2479   3.252   5.357   3.419  0.7187 -0.2113  0.1559
   11MOL    H60 2480   3.029   5.336   3.290  0.5268  0.1148  0.8877
   11MOL    H61 2481   3.150   5.311   3.174 -1.2335 -2.1623  1.7899
   11MOL    O62 2482   2.902   5.341   3.073 -0.3654  0.6843 -0.2440
   11MOL    C63 2483   2.791   5.374   2.992 -0.6553 -0.1778 -0.7525
   11MOL    C64 2484   2.845   5.359   2.842 -0.5072  0.3554 -0.3409
   11MOL    C65 2485   2.689   5.269   3.036 -0.1269  0.7087 -0.0029
   11MOL    C66 2486   2.561   5.272   2.954  0.0596  0.2896 -0.5120
   11MOL    O67 2487   2.525   5.177   2.888 -0.0455  0.0552  0.0297
   11MOL    H68 2488   2.749   5.474   3.003  1.1969  0.5341 -0.0264
   11MOL    H69 2489   2.768   5.388   2.769  0.3028  0.6835 -1.0709
   11MOL    H70 2490   2.878   5.258   2.819 -3.5652 -0.9769  0.7810
   11MOL    H71 2491   2.932   5.417   2.812  1.1897 -1.5916  0.7170
   11MOL    H72 2492   2.670   5.283   3.142  1.6585  2.3468  0.1319
   11MOL    H73 2493   2.726   5.167   3.025 -0.8987  0.2534  1.4525
   11MOL    O74 2494   2.502   5.395   2.947 -0.3718 -0.1147 -0.3982
   11MOL    C75 2495   2.383   5.417   2.871 -0.2142  0.8804  0.5989
   11MOL    C76 2496   2.251   5.369   2.931 -0.2118 -0.3193 -0.5412
   11MOL    C77 2497   2.374   5.570   2.842 -0.4955 -0.2506 -0.7890
   11MOL    C78 2498   2.268   5.618   2.753 -0.2571  1.0155  0.6377
   11MOL    O79 2499   2.227   5.553   2.661 -0.0081 -0.3790  0.4069
   11MOL    H80 2500   2.409   5.371   2.776  0.7699  2.3883  0.1252
   11MOL    H81 2501   2.161   5.408   2.883 -0.9819 -0.8393  0.4517
   11MOL    H82 2502   2.233   5.403   3.034 -0.7529  0.2581 -0.8222
   11MOL    H83 2503   2.247   5.260   2.935  1.8476 -0.3514  1.7650
   11MOL    H84 2504   2.469   5.592   2.793 -0.4441  0.1476 -0.5136
   11MOL    H85 2505   2.359   5.627   2.933  0.2218 -1.2886 -0.0080
   11MOL    O86 2506   2.231   5.743   2.787  0.1263  0.2655 -0.8034
   11MOL    C87 2507   2.117   5.802   2.736  1.0077  0.4253  0.1524
   11MOL    C88 2508   1.989   5.732   2.783  0.1647 -0.0165 -0.7859
   11MOL    C89 2509   2.114   5.946   2.787 -1.0424 -1.1347  0.3535
   11MOL    C90 2510   2.212   6.025   2.698  0.1459 -0.0268 -0.3183
   11MOL    O91 2511   2.335   5.999   2.698 -0.1826 -0.3551 -0.1378
   11MOL    H92 2512   2.117   5.809   2.627  0.3201  0.0856  0.1305
   11MOL    H93 2513   1.994   5.624   2.765  1.0079  0.1417 -1.5695
   11MOL    H94 2514   1.897   5.764   2.735  0.0121 -0.6557 -0.9316
   11MOL    H95 2515   1.982   5.741   2.891  1.2920  0.9939 -0.7820
   11MOL    H96 2516   2.142   5.967   2.891 -0.4611  0.5428 -0.1275
   11MOL    H97 2517   2.020   5.995   2.762 -0.2574  0.1939 -0.0731
   11MOL    O98 2518   2.153   6.123   2.633  0.2324 -0.5482  0.3632
   11MOL    C99 2519   2.223   6.217   2.556  0.1482  0.2577  0.6208
   11MOL   C100 2520   2.160   6.216   2.414 -0.6626 -0.2358 -0.1925
   11MOL   C101 2521   2.234   6.354   2.620 -0.3611 -0.0749  0.1713
   11MOL   C102 2522   2.329   6.348   2.738 -0.4899  0.0193 -0.1922
   11MOL   O103 2523   2.288   6.332   2.849  0.3152 -0.7148  0.3947
   11MOL   H104 2524   2.319   6.170   2.534  0.9246  2.8211 -1.8200
   11MOL   H105 2525   2.237   6.266   2.355 -0.9637  0.7067  0.2123
   11MOL   H106 2526   2.075   6.281   2.434 -0.6513 -0.3708  0.2948
   11MOL   H107 2527   2.114   6.126   2.374  1.1640 -0.6796 -1.3321
   11MOL   H108 2528   2.141   6.398   2.657  0.2080  1.3686 -0.0759
   11MOL   H109 2529   2.270   6.425   2.546 -0.0819  0.6448  0.9884
   11MOL   O110 2530   2.464   6.351   2.712  0.5876 -0.0708  0.1939
   11MOL   C111 2531   2.563   6.325   2.810 -0.2492  0.7800 -0.1680
   11MOL   C112 2532   2.679   6.241   2.743 -0.3326 -0.3528  0.7002
   11MOL   C113 2533   2.610   6.467   2.862  0.7556 -0.1528  0.0289
   11MOL   C114 2534   2.731   6.463   2.957  0.5639 -0.0143 -0.5048
   11MOL   O115 2535   2.843   6.506   2.927 -0.1243 -0.7318  0.0686
   11MOL   H116 2536   2.522   6.265   2.891  0.0552 -0.3893 -0.8710
   11MOL   H117 2537   2.741   6.185   2.813 -1.9160 -0.0932  2.3243
   11MOL   H118 2538   2.754   6.299   2.690  0.7825 -0.0516  2.5610
   11MOL   H119 2539   2.639   6.171   2.669 -2.0097  0.2520  1.0154
   11MOL   H120 2540   2.525   6.527   2.897  0.4162 -0.9958  0.6635
   11MOL   H121 2541   2.646   6.533   2.784  2.7408 -0.5548  0.5937
   11MOL   O122 2542   2.694   6.389   3.076 -0.4103  0.4297 -0.2163
   11MOL   C123 2543   2.787   6.345   3.171  0.1314 -0.3967 -0.5013
   11MOL   C124 2544   2.722   6.360   3.313 -0.3551 -0.5222 -0.7897
   11MOL   C125 2545   2.829   6.199   3.130 -0.3535  0.1318 -0.1467
   11MOL   C126 2546   2.731   6.090   3.164 -0.2633  0.3493  0.1407
   11MOL   O127 2547   2.757   6.021   3.259  0.5715 -0.1097  0.1584
   11MOL   H128 2548   2.877   6.405   3.175 -0.4177  0.5072 -1.5757
   11MOL   H129 2549   2.626   6.309   3.321 -1.0106  0.4141 -2.4180
   11MOL   H130 2550   2.706   6.468   3.323  0.9291 -0.4798  1.0747
   11MOL   H131 2551   2.782   6.311   3.390 -1.2195  0.5205  0.5797
   11MOL   H132 2552   2.921   6.170   3.181  0.9721  1.8291 -1.5110
   11MOL   H133 2553   2.836   6.190   3.021 -1.9220 -0.5312 -0.2009
   11MOL   O134 2554   2.613   6.081   3.087 -0.2848  0.6631 -0.5296
   11MOL   C135 2555   2.504   5.998   3.124  0.2676 -0.4377 -0.6200
   11MOL   C136 2556   2.383   6.075   3.074  0.4686 -0.7417  0.2633
   11MOL   C137 2557   2.527   5.860   3.060  0.1540 -0.9139 -0.0573
   11MOL   C138 2558   2.467   5.750   3.151  0.1083 -0.3916  0.0665
   11MOL   O139 2559   2.537   5.667   3.203 -0.1111 -0.3529 -0.9772
   11MOL   H140 2560   2.500   5.983   3.232 -2.0360 -0.1891 -0.6433
   11MOL   H141 2561   2.284   6.034   3.094  0.1032 -1.4087 -2.6383
   11MOL   H142 2562   2.382   6.102   2.968 -0.4129 -0.3462  0.3672
   11MOL   H143 2563   2.387   6.171   3.125 -0.3246 -0.9216  0.6640
   11MOL   H144 2564   2.631   5.830   3.046  0.8827  1.8911 -1.1568
   11MOL   H145 2565   2.471   5.864   2.967 -2.8755 -0.2830  1.7081
   11MOL   O146 2566   2.332   5.763   3.158 -0.1778 -0.0028 -0.2640
   11MOL   C147 2567   2.245   5.678   3.224  0.6359 -0.4761 -0.4931
   11MOL   C148 2568   2.242   5.714   3.373 -0.5483 -0.2800  0.6003
   11MOL   C149 2569   2.106   5.674   3.162  0.6856  0.3109 -0.0047
   11MOL   C150 2570   2.015   5.800   3.186  0.2800  0.7658  0.1524
   11MOL   O151 2571   2.036   5.909   3.126  0.1514  0.1988  0.0365
   11MOL   H152 2572   2.283   5.577   3.210 -2.0458 -1.6868  0.7430
   11MOL   H153 2573   2.183   5.651   3.440 -0.9433 -0.5179  0.0280
   11MOL   H154 2574   2.220   5.820   3.381 -1.7997 -0.4335 -0.6797
   11MOL   H155 2575   2.343   5.700   3.413  0.8352  0.2130 -2.5814
   11MOL   H156 2576   2.057   5.589   3.209 -0.0199  1.1578  0.8110
   11MOL   H157 2577   2.118   5.655   3.055  1.6075 -2.1842  0.5116
   11MOL   O158 2578   1.919   5.783   3.282  0.3177  0.2270  0.0263
   11MOL   C159 2579   1.812   5.880   3.294 -0.7482 -0.5431  0.2055
   11MOL   C160 2580   1.707   5.809   3.374  0.3387 -0.1502  0.3387
   11MOL   C161 2581   1.850   6.007   3.363 -0.3004 -0.6830  0.4608
   11MOL   C162 2582   1.742   6.116   3.345 -0.6010 -0.0490 -0.2734
   11MOL   O163 2583   1.635   6.098   3.288  0.0731 -0.1723  0.1355
   11MOL   H164 2584   1.779   5.904   3.193  0.4745  0.8747  0.1246
   11MOL   H165 2585   1.744   5.746   3.455  0.7052  2.7833  2.5378
   11MOL   H166 2586   1.658   5.734   3.312 -2.7379  1.6607  0.4341
   11MOL   H167 2587   1.620   5.868   3.403 -1.7065 -1.9841 -1.7962
   11MOL   H168 2588   1.939   6.051   3.319 -1.4631  0.7505 -0.4658
   11MOL   H169 2589   1.877   5.990   3.468  0.1321 -1.0391  0.2921
   11MOL   O170 2590   1.781   6.239   3.397 -0.1117 -0.2050 -0.2847
   11MOL   C171 2591   1.707   6.356   3.377 -0.2356  0.2996 -0.4174
   11MOL   C172 2592   1.711   6.415   3.518  0.7990 -0.3921 -0.0595
   11MOL   C173 2593   1.774   6.448   3.274  0.3797 -0.0458 -0.0720
   11MOL   C174 2594   1.740   6.407   3.133 -0.2851  0.5794  0.1600
   11MOL   O175 2595   1.643   6.451   3.073  0.4183  0.1267 -0.2452
   11MOL   H176 2596   1.605   6.336   3.346 -0.3908 -0.5889  0.6419
   11MOL   H177 2597   1.810   6.403   3.564  0.4368  0.1535  0.8910
   11MOL   H178 2598   1.638   6.364   3.580  0.4401  0.1080 -0.0717
   11MOL   H179 2599   1.679   6.518   3.505 -2.3876 -1.4086 -0.4571
   11MOL   H180 2600   1.881   6.456   3.293  0.6915 -0.3309 -1.6281
   11MOL   H181 2601   1.733   6.548   3.281  2.8085  0.8785  1.2138
   11MOL   O182 2602   1.821   6.318   3.080  0.6199  0.2308 -0.0861
   11MOL   C183 2603   1.801   6.265   2.948  1.6242  0.5917 -0.1040
   11MOL   C184 2604   1.933   6.228   2.893  0.3330 -0.3250 -0.1587
   11MOL   C185 2605   1.701   6.145   2.968  0.0658  0.1844  0.0186
   11MOL   C186 2606   1.671   6.070   2.834 -0.1634 -0.5180 -0.6324
   11MOL   O187 2607   1.721   5.962   2.811  0.0311 -0.1611 -0.2775
   11MOL   H188 2608   1.750   6.332   2.879  1.2983  0.0038 -0.4343
   11MOL   H189 2609   1.917   6.222   2.785  1.4854 -0.4711 -0.3295
   11MOL   H190 2610   1.969   6.134   2.933 -0.1651 -0.7972 -0.8129
   11MOL   H191 2611   1.997   6.314   2.916 -2.0437  1.5602 -0.4169
   11MOL   H192 2612   1.606   6.174   3.012 -0.4768 -0.8117 -0.4681
   11MOL   H193 2613   1.756   6.073   3.029  1.5593  1.8456  0.6618
   11MOL   O194 2614   1.587   6.136   2.753 -0.4894 -0.6881 -0.0217
   11MOL   C195 2615   1.543   6.095   2.629 -0.6029  0.0791 -0.5218
   11MOL   C196 2616   1.391   6.073   2.623 -1.1342  0.3408 -0.3225
   11MOL   C197 2617   1.597   6.198   2.526  0.2524  0.4206  0.4308
   11MOL   C198 2618   1.729   6.159   2.469 -0.8874  0.0090  0.5722
   11MOL   O199 2619   1.828   6.233   2.485  0.3594 -0.2301 -0.5230
   11MOL   H200 2620   1.579   5.996   2.601 -0.7836  0.6777 -2.9877
   11MOL   H201 2621   1.357   6.049   2.522 -0.6886  0.6304 -0.5440
   11MOL   H202 2622   1.337   6.163   2.652  1.0739  1.2017  1.2930
   11MOL   H203 2623   1.370   5.994   2.694  1.3596 -1.4656 -1.5176
   11MOL   H204 2624   1.595   6.300   2.565  1.3519  1.2012 -1.4566
   11MOL   H205 2625   1.522   6.205   2.448 -2.0992  1.8718  2.7608
   11MOL   O206 2626   1.723   6.043   2.397  0.0876 -0.2688  0.4236
   11MOL   C207 2627   1.840   5.973   2.367 -0.0760 -0.2439  1.0330
   11MOL   C208 2628   1.865   5.864   2.474 -0.1192 -0.2746  0.4544
   11MOL   C209 2629   1.843   5.911   2.225 -0.1288  0.4586  0.0147
   11MOL   C210 2630   1.980   5.879   2.174  1.0269 -0.5327 -0.6309
   11MOL   O211 2631   2.071   5.845   2.256 -0.1617 -0.2236 -0.2179
   11MOL   H212 2632   1.926   6.039   2.373 -1.2504  1.5849 -1.2796
   11MOL   H213 2633   1.776   5.815   2.514 -1.3039  1.6223  0.2123
   11MOL   H214 2634   1.904   5.913   2.563  0.5475 -0.5221  0.2974
   11MOL   H215 2635   1.932   5.786   2.439  1.0681  0.6683  0.6213
   11MOL   H216 2636   1.782   5.967   2.154 -1.2454 -1.7556 -0.8001
   11MOL   H217 2637   1.786   5.819   2.237 -1.2964  1.2696  0.9058
   11MOL   O218 2638   2.005   5.920   2.043 -0.3920  0.3472  0.8303
   11MOL   C219 2639   2.126   5.883   1.980  0.0332 -0.3719  0.0964
   11MOL   C220 2640   2.082   5.848   1.840 -0.2959 -0.9568 -0.4174
   11MOL   C221 2641   2.247   5.980   1.981 -0.5097 -0.0211  0.0700
   11MOL   C222 2642   2.339   5.976   2.107  0.4907 -0.2466 -0.4741
   11MOL   O223 2643   2.373   6.076   2.174  0.8605 -0.9454 -0.0572
   11MOL   H224 2644   2.146   5.783   2.018  1.3308 -0.8830 -1.8337
   11MOL   H225 2645   2.011   5.766   1.838 -0.0260 -1.1719 -1.4070
   11MOL   H226 2646   2.160   5.812   1.773  0.9555  0.2723  0.3583
   11MOL   H227 2647   2.043   5.937   1.792 -0.7976 -1.0486 -0.1878
   11MOL   H228 2648   2.209   6.080   1.962  3.0835  1.9753  2.7195
   11MOL   H229 2649   2.315   5.956   1.899 -0.6806 -1.1408  0.2435
   11MOL   O230 2650   2.381   5.851   2.132 -0.1387 -0.6781 -0.4770
   11MOL   C231 2651   2.469   5.833   2.237  0.0022  1.1256 -0.1777
   11MOL   C232 2652   2.398   5.806   2.373  0.1947 -0.0055 -0.2427
   11MOL   C233 2653   2.552   5.713   2.189 -0.3546  0.0894  0.2341
   11MOL   C234 2654   2.681   5.749   2.119  0.2469 -0.0813  0.1047
   11MOL   O235 2655   2.793   5.733   2.171  0.0072  0.2132  0.1553
   11MOL   H236 2656   2.534   5.916   2.267  1.6093  0.2472 -1.1434
   11MOL   H237 2657   2.345   5.894   2.409  2.3147  1.3011 -0.2254
   11MOL   H238 2658   2.469   5.779   2.451  1.3609  1.3424 -0.8280
   11MOL   H239 2659   2.329   5.721   2.368 -0.9088  0.9244 -1.0029
   11MOL   H240 2660   2.510   5.650   2.111  1.6061  0.7217 -1.3935
   11MOL   H241 2661   2.569   5.651   2.277 -0.1936 -0.1635  0.0246
   11MOL   H242 2662   2.658   5.779   2.017 -1.9799 -0.4254  0.4810
   12MOL     O1 2663   2.561   6.572   6.901 -0.2898 -1.2190 -0.0597
   12MOL     C2 2664   2.499   6.619   6.784 -0.3608  0.2628 -0.5530
   12MOL     C3 2665   2.447   6.496   6.710  0.8167  0.5118 -0.5430
   12MOL     C4 2666   2.387   6.716   6.825  0.1855 -0.7061  1.0284
   12MOL     C5 2667   2.342   6.804   6.706 -0.1531 -0.4906  0.6720
   12MOL     O6 2668   2.413   6.898   6.666 -0.1967 -0.0676  0.2381
   12MOL     H7 2669   2.573   6.673   6.724  0.4720 -0.6040 -0.3191
   12MOL     H8 2670   2.530   6.428   6.690  0.2665  0.2576 -2.0178
   12MOL     H9 2671   2.379   6.523   6.630  2.0062  1.0495 -1.3959
   12MOL    H10 2672   2.379   6.441   6.774  0.6996 -0.2032 -1.2810
   12MOL    H11 2673   2.411   6.790   6.902 -0.5340 -1.0226  1.5551
   12MOL    H12 2674   2.301   6.658   6.858 -1.0701  1.9644  2.6343
   12MOL    H13 2675   2.653   6.583   6.880  0.0918  0.4488  2.3478
   12MOL    O14 2676   2.240   6.756   6.641 -0.1659 -0.5157 -0.5905
   12MOL    C15 2677   2.189   6.813   6.517 -0.2746  0.5149  0.4518
   12MOL    C16 2678   2.272   6.755   6.402  0.7114 -0.2170 -0.2697
   12MOL    C17 2679   2.033   6.788   6.506 -0.0428  0.2425  0.4350
   12MOL    C18 2680   2.003   6.636   6.531 -0.7043  0.3531  0.2114
   12MOL    O19 2681   2.005   6.557   6.439  0.1539  0.3714  0.3453
   12MOL    H20 2682   2.210   6.920   6.507 -2.6045  0.9434 -0.3429
   12MOL    H21 2683   2.296   6.651   6.419  1.9097 -0.0818 -1.0847
   12MOL    H22 2684   2.371   6.800   6.405 -0.1431  1.6943  0.1880
   12MOL    H23 2685   2.226   6.765   6.304  1.1008  0.8842 -0.3488
   12MOL    H24 2686   2.006   6.812   6.403  0.2670 -1.7288 -0.1206
   12MOL    H25 2687   1.977   6.847   6.579 -2.0692 -0.0110 -0.8877
   12MOL    O26 2688   1.979   6.601   6.655 -0.4284  0.5945 -0.1448
   12MOL    C27 2689   1.981   6.460   6.693 -0.3678  0.0345  0.8641
   12MOL    C28 2690   2.044   6.444   6.824  0.8042 -0.8315  0.8865
   12MOL    C29 2691   1.825   6.431   6.708  0.0915 -0.1106  0.0886
   12MOL    C30 2692   1.790   6.290   6.742 -0.1301  0.3027  0.5000
   12MOL    O31 2693   1.701   6.265   6.820 -0.4831  0.1409  0.0378
   12MOL    H32 2694   2.027   6.394   6.620  0.4885  2.0724 -0.4738
   12MOL    H33 2695   2.031   6.346   6.871  2.3025 -0.7201  1.5498
   12MOL    H34 2696   2.008   6.513   6.900 -0.4000 -1.0272  0.5186
   12MOL    H35 2697   2.151   6.461   6.814  0.6690  0.0807  0.9673
   12MOL    H36 2698   1.783   6.461   6.612  1.2071  0.9032 -0.0975
   12MOL    H37 2699   1.805   6.505   6.785  5.3136 -0.5403  2.1155
   12MOL    O38 2700   1.873   6.200   6.682 -0.2184 -0.0586  0.3746
   12MOL    C39 2701   1.835   6.067   6.665 -0.4502  0.1277 -0.1395
   12MOL    C40 2702   1.885   6.037   6.524 -0.1916  0.4358  0.2189
   12MOL    C41 2703   1.890   5.979   6.784  0.0780 -0.1403  0.4334
   12MOL    C42 2704   2.042   5.955   6.789  0.2352 -0.5336  0.3758
   12MOL    O43 2705   2.080   5.840   6.788  0.2175  0.2016  0.1901
   12MOL    H44 2706   1.727   6.064   6.672 -0.6273  1.6344 -1.7414
   12MOL    H45 2707   1.988   6.071   6.511 -0.1605  0.1519 -0.2917
   12MOL    H46 2708   1.828   6.106   6.461  1.0036  2.3312  1.1702
   12MOL    H47 2709   1.869   5.934   6.492  0.7034  1.0809 -2.4056
   12MOL    H48 2710   1.833   5.887   6.777  0.6757 -0.3299 -2.9161
   12MOL    H49 2711   1.862   6.018   6.882 -1.0666  1.1706 -0.3989
   12MOL    O50 2712   2.121   6.064   6.799  0.0369  0.2587 -0.5227
   12MOL    C51 2713   2.253   6.051   6.842  0.4975  0.8003 -0.4081
   12MOL    C52 2714   2.312   6.186   6.803  0.4394  0.0872  0.3104
   12MOL    C53 2715   2.268   6.017   6.988 -0.1903 -0.1686  0.2085
   12MOL    C54 2716   2.220   6.123   7.089 -0.2247 -0.1430 -0.0603
   12MOL    O55 2717   2.298   6.205   7.133 -0.4460  0.3308  0.0373
   12MOL    H56 2718   2.299   5.973   6.783 -0.0610  0.2519 -0.1265
   12MOL    H57 2719   2.275   6.264   6.869 -0.9987  0.9699 -1.4956
   12MOL    H58 2720   2.293   6.219   6.701 -1.6054 -0.3484  0.5307
   12MOL    H59 2721   2.417   6.201   6.827  0.6057  0.1555 -0.4499
   12MOL    H60 2722   2.371   5.988   7.009 -0.9429 -2.8709  0.2644
   12MOL    H61 2723   2.219   5.927   7.024  0.2015 -0.9727 -1.2312
   12MOL    O62 2724   2.091   6.089   7.141 -0.4006 -0.1844 -0.2513
   12MOL    C63 2725   2.022   6.174   7.233  0.9894 -0.0642 -0.7740
   12MOL    C64 2726   1.882   6.210   7.169 -0.6252  0.0229 -0.5372
   12MOL    C65 2727   2.011   6.129   7.378  0.2629  0.6116  0.2779
   12MOL    C66 2728   1.934   6.003   7.410 -0.8633  0.2520 -0.1489
   12MOL    O67 2729   1.822   6.005   7.452 -0.2160  0.0382 -0.3702
   12MOL    H68 2730   2.071   6.272   7.236  0.9436 -0.0414 -0.7740
   12MOL    H69 2731   1.884   6.230   7.061  1.6933 -0.9559 -0.7158
   12MOL    H70 2732   1.836   6.281   7.238  1.0270 -0.1685  0.7911
   12MOL    H71 2733   1.821   6.120   7.176 -1.7460  0.8083 -0.1272
   12MOL    H72 2734   1.976   6.215   7.435 -0.5812  1.8363 -2.0274
   12MOL    H73 2735   2.112   6.112   7.417  0.0697 -0.3963  0.3435
   12MOL    O74 2736   2.002   5.887   7.378  0.2148 -0.1803 -0.1293
   12MOL    C75 2737   1.938   5.758   7.370 -0.0983  0.0397 -0.0219
   12MOL    C76 2738   2.053   5.671   7.309 -0.4588 -0.2025  0.8141
   12MOL    C77 2739   1.900   5.708   7.522  0.3307  0.5020 -0.0116
   12MOL    C78 2740   1.881   5.562   7.540 -0.6799 -0.7173  0.3287
   12MOL    O79 2741   1.954   5.493   7.615  0.4200  0.1097 -0.1754
   12MOL    H80 2742   1.855   5.764   7.299  0.2975 -2.6366 -0.7601
   12MOL    H81 2743   2.028   5.565   7.312  0.2607 -0.3643  0.9916
   12MOL    H82 2744   2.149   5.688   7.356 -0.6356 -2.1133  1.8984
   12MOL    H83 2745   2.066   5.680   7.201  0.4228 -2.2227  0.7419
   12MOL    H84 2746   1.806   5.751   7.558  1.3834  1.6335  1.4804
   12MOL    H85 2747   1.974   5.741   7.596  0.3010  0.9500 -0.1778
   12MOL    O86 2748   1.780   5.515   7.460 -0.6025  0.5422  0.2485
   12MOL    C87 2749   1.762   5.375   7.439 -0.2924  0.5824 -0.4470
   12MOL    C88 2750   1.658   5.326   7.537  0.4083  0.5688 -0.5166
   12MOL    C89 2751   1.722   5.366   7.292 -0.9383  0.5460  0.1117
   12MOL    C90 2752   1.693   5.222   7.253 -0.3023 -0.3477  0.2546
   12MOL    O91 2753   1.587   5.185   7.198 -0.3241 -0.0936 -0.3935
   12MOL    H92 2754   1.860   5.331   7.459 -1.6693 -2.6429 -0.5129
   12MOL    H93 2755   1.567   5.385   7.526  0.5067  0.6014 -1.1516
   12MOL    H94 2756   1.696   5.335   7.639 -2.0818  1.0771  0.4009
   12MOL    H95 2757   1.622   5.224   7.525  2.4718 -0.0824 -1.4936
   12MOL    H96 2758   1.800   5.400   7.225 -0.4266 -0.6358  0.1006
   12MOL    H97 2759   1.630   5.419   7.265  0.2486  1.0705 -3.0414
   12MOL    O98 2760   1.794   5.138   7.283 -0.5586 -0.0302  0.1733
   12MOL    C99 2761   1.780   4.995   7.274 -0.2859 -0.0266 -0.5217
   12MOL   C100 2762   1.800   4.940   7.136 -0.0083 -0.2813  0.4879
   12MOL   C101 2763   1.885   4.929   7.364 -0.2672 -0.0467 -0.1520
   12MOL   C102 2764   1.875   4.948   7.518  0.2149 -0.5869  0.6574
   12MOL   O103 2765   1.810   5.033   7.579 -0.0514  0.1123  0.0212
   12MOL   H104 2766   1.679   4.974   7.311 -0.7337  3.3345  0.3276
   12MOL   H105 2767   1.757   5.003   7.058  0.9253 -1.1782 -0.7689
   12MOL   H106 2768   1.766   4.837   7.125  1.6227 -0.5673 -2.4241
   12MOL   H107 2769   1.905   4.942   7.106 -0.4859  2.2693 -1.2117
   12MOL   H108 2770   1.981   4.973   7.338 -0.7944  0.9028 -0.5165
   12MOL   H109 2771   1.886   4.824   7.335  0.4802 -0.0042 -0.2741
   12MOL   O110 2772   1.955   4.859   7.574 -0.7879 -0.0539 -0.3574
   12MOL   C111 2773   1.963   4.860   7.715  0.5102  0.4536  0.0696
   12MOL   C112 2774   1.979   4.718   7.767  0.1525  0.5370 -0.0418
   12MOL   C113 2775   2.067   4.965   7.762 -0.5776 -0.3990 -0.5984
   12MOL   C114 2776   2.217   4.929   7.764 -0.7052 -0.5143  0.0967
   12MOL   O115 2777   2.263   4.832   7.812 -0.3335  0.0839 -0.3740
   12MOL   H116 2778   1.867   4.894   7.754  0.6592 -0.7838  1.5818
   12MOL   H117 2779   2.075   4.679   7.733 -0.0295 -0.5985  0.7202
   12MOL   H118 2780   1.901   4.658   7.721  0.9781 -0.4115 -0.2146
   12MOL   H119 2781   1.958   4.707   7.873 -3.7998 -1.0629 -0.9127
   12MOL   H120 2782   2.034   4.976   7.866 -1.6038  0.6943 -1.0282
   12MOL   H121 2783   2.056   5.063   7.716 -0.2340 -0.8716 -1.6757
   12MOL   O122 2784   2.295   5.021   7.697 -0.4344  0.7457  0.1091
   12MOL   C123 2785   2.436   4.999   7.681 -0.9146 -0.2102  0.4035
   12MOL   C124 2786   2.467   5.032   7.533  0.3197  0.1193  0.3789
   12MOL   C125 2787   2.524   5.095   7.771  0.4516  0.5544 -0.4596
   12MOL   C126 2788   2.501   5.079   7.918  0.5283  0.2806  0.6408
   12MOL   O127 2789   2.413   5.150   7.978 -0.7370  0.2463 -0.0925
   12MOL   H128 2790   2.458   4.895   7.703 -0.7965 -0.3206 -0.2257
   12MOL   H129 2791   2.483   5.138   7.515  1.8765 -0.1966 -0.1770
   12MOL   H130 2792   2.390   4.990   7.468  0.1852  1.7104 -0.5156
   12MOL   H131 2793   2.558   4.979   7.508 -0.3350 -1.1939  0.7373
   12MOL   H132 2794   2.502   5.200   7.750 -0.0772  0.8088  1.2376
   12MOL   H133 2795   2.631   5.078   7.759  0.1320 -1.3040 -0.7945
   12MOL   O134 2796   2.573   4.985   7.974  0.5350  0.4430 -0.0312
   12MOL   C135 2797   2.564   4.961   0.135  0.1921  0.2133 -0.4923
   12MOL   C136 2798   2.442   4.862   0.156  0.0580  0.0797 -0.4650
   12MOL   C137 2799   2.702   4.911   0.176  0.2183  0.6032  0.1379
   12MOL   C138 2800   2.746   4.914   0.322  0.1806  0.2950  0.1277
   12MOL   O139 2801   2.849   4.972   0.347 -0.3058 -0.1536  0.1478
   12MOL   H140 2802   2.556   5.057   0.186 -0.1965 -0.2734  0.3632
   12MOL   H141 2803   2.351   4.887   0.101  1.1654  0.8263 -1.9834
   12MOL   H142 2804   2.431   4.857   0.265 -2.5784  0.8991 -0.6515
   12MOL   H143 2805   2.475   4.768   0.114 -2.5393 -0.8708 -0.5098
   12MOL   H144 2806   2.771   4.967   0.112 -0.4508 -0.3601 -1.4325
   12MOL   H145 2807   2.723   4.810   0.140 -0.7915 -0.1861  1.7323
   12MOL   O146 2808   2.660   4.856   0.399 -0.0815 -0.4128 -0.2229
   12MOL   C147 2809   2.685   4.855   0.544  0.2551  0.5111 -0.2621
   12MOL   C148 2810   2.544   4.850   0.613  0.2523  0.2556 -0.0888
   12MOL   C149 2811   2.773   4.736   0.576  0.3179 -0.1687  0.3672
   12MOL   C150 2812   2.833   4.731   0.717 -0.3992 -1.1696 -0.2609
   12MOL   O151 2813   2.812   4.825   0.795  0.0278 -0.2589  0.0870
   12MOL   H152 2814   2.727   4.953   0.568  0.8379  0.1686  0.1461
   12MOL   H153 2815   2.484   4.768   0.574  2.1456 -0.7309 -1.0111
   12MOL   H154 2816   2.479   4.936   0.597 -0.6674 -0.7022 -1.5645
   12MOL   H155 2817   2.565   4.842   0.720 -1.9435  1.8122  0.4916
   12MOL   H156 2818   2.858   4.716   0.510  1.3512  1.4584  1.1882
   12MOL   H157 2819   2.703   4.654   0.560 -0.0998  0.5340 -1.6479
   12MOL   O158 2820   2.916   4.626   0.730 -0.7533 -0.2342  0.2178
   12MOL   C159 2821   2.979   4.591   0.850 -0.2090  0.8484 -0.3374
   12MOL   C160 2822   3.033   4.448   0.828 -0.1865  0.7267 -0.5248
   12MOL   C161 2823   3.104   4.686   0.857  0.4441 -0.2685 -0.1436
   12MOL   C162 2824   3.214   4.660   0.958  0.7317 -0.3148  0.1338
   12MOL   O163 2825   3.305   4.579   0.934  0.3120 -0.2632  0.5390
   12MOL   H164 2826   2.909   4.592   0.934 -2.2257 -1.9255 -1.9058
   12MOL   H165 2827   3.096   4.419   0.912 -0.3570  2.1876  0.1304
   12MOL   H166 2828   3.086   4.444   0.732 -0.9099  1.3416 -0.9586
   12MOL   H167 2829   2.954   4.375   0.810  0.1353  0.4060 -0.6459
   12MOL   H168 2830   3.070   4.789   0.869  0.2304  0.0543 -3.0144
   12MOL   H169 2831   3.145   4.679   0.756  0.1352 -1.3552 -0.2016
   12MOL   O170 2832   3.200   4.718   1.072  0.3042 -0.4382  0.2232
   12MOL   C171 2833   3.302   4.702   1.175 -0.4180  0.0471  0.8681
   12MOL   C172 2834   3.294   4.831   1.259  0.5843 -0.0820 -0.3833
   12MOL   C173 2835   3.259   4.580   1.254  0.2395 -0.9189 -0.7048
   12MOL   C174 2836   3.373   4.534   1.349 -0.3534  0.3889  0.2775
   12MOL   O175 2837   3.455   4.458   1.310 -0.4860 -0.1383 -0.5731
   12MOL   H176 2838   3.405   4.692   1.140  0.2524  2.2185  2.1339
   12MOL   H177 2839   3.190   4.851   1.287  1.2590  2.4731  0.4433
   12MOL   H178 2840   3.344   4.918   1.217 -1.2729  1.1910 -0.0321
   12MOL   H179 2841   3.355   4.814   1.347 -1.3565  1.2140  1.2630
   12MOL   H180 2842   3.244   4.492   1.192  0.1871  1.1117 -3.6990
   12MOL   H181 2843   3.165   4.609   1.300  0.8130 -0.3957  0.1481
   12MOL   O182 2844   3.361   4.594   1.472 -0.2820  0.1696 -0.2034
   12MOL   C183 2845   3.472   4.583   1.563 -0.2542 -0.1324 -0.4590
   12MOL   C184 2846   3.546   4.717   1.570  0.3623 -0.1615  0.3841
   12MOL   C185 2847   3.435   4.523   1.697 -0.0016  0.3131  0.1933
   12MOL   C186 2848   3.422   4.372   1.704  0.0987 -0.1184  0.2129
   12MOL   O187 2849   3.336   4.315   1.766 -0.2348  0.4126  1.2012
   12MOL   H188 2850   3.540   4.507   1.523 -0.2481 -0.9508  1.0791
   12MOL   H189 2851   3.635   4.704   1.632  1.3332  0.4651 -0.8251
   12MOL   H190 2852   3.477   4.795   1.599 -0.4984 -0.5437 -0.5973
   12MOL   H191 2853   3.576   4.741   1.467 -1.4149  1.5149  0.2476
   12MOL   H192 2854   3.339   4.559   1.734  0.2183 -0.1235  1.1918
   12MOL   H193 2855   3.517   4.536   1.767 -0.5898 -1.1346  1.1751
   12MOL   O194 2856   3.518   4.308   1.628 -0.3596  0.1244  0.3949
   12MOL   C195 2857   3.519   4.165   1.610  0.0569 -0.3228  0.0475
   12MOL   C196 2858   3.568   4.123   1.469  0.4296  0.1575 -0.0391
   12MOL   C197 2859   3.597   4.107   1.727  0.4062  0.4432 -0.1664
   12MOL   C198 2860   3.744   4.124   1.712 -0.2929 -0.4729  0.2853
   12MOL   O199 2861   3.788   4.238   1.721 -0.0860 -0.7196  0.1331
   12MOL   H200 2862   3.419   4.126   1.626  0.5213 -0.5245  2.5447
   12MOL   H201 2863   3.588   4.016   1.463 -2.6614 -0.4087 -1.2310
   12MOL   H202 2864   3.665   4.168   1.444  1.0758 -2.0085 -1.5935
   12MOL   H203 2865   3.505   4.145   1.383  0.1847 -2.5796 -0.5965
   12MOL   H204 2866   3.586   4.000   1.742 -0.5201  0.7171  1.2658
   12MOL   H205 2867   3.577   4.169   1.814 -2.7020  1.5067 -1.5498
   12MOL   O206 2868   3.808   4.009   1.696  0.7711  0.5636  0.0566
   12MOL   C207 2869   3.945   4.006   1.659  0.2509 -0.6170 -0.1893
   12MOL   C208 2870   4.030   3.973   1.782  0.4432  0.6552  0.0305
   12MOL   C209 2871   3.953   3.896   1.554  1.0559  0.0955  0.2121
   12MOL   C210 2872   3.966   3.947   1.406  0.5452  0.2946 -0.1650
   12MOL   O211 2873   3.886   3.902   1.322 -0.1157  0.1174  0.3157
   12MOL   H212 2874   3.971   4.104   1.618 -2.4046 -0.2553 -1.0870
   12MOL   H213 2875   4.133   3.972   1.747  0.8329 -2.3300  1.1230
   12MOL   H214 2876   4.004   3.877   1.826  1.9699  1.4051  2.7158
   12MOL   H215 2877   4.031   4.061   1.848 -0.6916 -0.8363  2.1071
   12MOL   H216 2878   3.879   3.818   1.571 -0.6171  1.6517  0.3457
   12MOL   H217 2879   4.047   3.847   1.576  0.1204 -1.2929  1.1898
   12MOL   O218 2880   4.059   4.039   1.382  0.5401  1.0679 -0.8169
   12MOL   C219 2881   4.058   4.107   1.254  0.3481  0.2762 -0.4441
   12MOL   C220 2882   4.027   4.251   1.287  0.3603 -0.4517 -0.2534
   12MOL   C221 2883   4.194   4.085   1.187 -0.5626 -0.0734  0.6875
   12MOL   C222 2884   4.200   4.129   1.039 -0.8414 -0.3747 -0.2408
   12MOL   O223 2885   4.098   4.152   0.976  0.4906  0.2051  0.3383
   12MOL   H224 2886   3.988   4.069   1.181 -0.2751 -0.5710  0.5816
   12MOL   H225 2887   4.110   4.310   1.326 -1.9458  2.8827 -0.1841
   12MOL   H226 2888   3.958   4.261   1.370 -0.3305  1.7296 -1.0614
   12MOL   H227 2889   3.983   4.302   1.202  0.4202 -0.0245 -0.0281
   12MOL   H228 2890   4.208   3.978   1.177 -1.7020 -0.0567 -1.3631
   12MOL   H229 2891   4.280   4.132   1.235 -0.5229  0.8710 -0.2998
   12MOL   O230 2892   4.330   4.142   0.991 -0.3800 -0.2375  0.6608
   12MOL   C231 2893   4.355   4.176   0.856 -0.0743  0.8467  0.3688
   12MOL   C232 2894   4.495   4.241   0.843 -0.5614  0.0523 -0.3015
   12MOL   C233 2895   4.342   4.043   0.771  0.3010  0.7092 -0.4484
   12MOL   C234 2896   4.444   3.928   0.815  0.6557  0.2712 -0.0548
   12MOL   O235 2897   4.557   3.925   0.769  0.0108  0.2087 -0.4203
   12MOL   H236 2898   4.285   4.252   0.821  0.0914  0.5246 -0.6914
   12MOL   H237 2899   4.568   4.174   0.888  1.4514  2.2038 -0.2985
   12MOL   H238 2900   4.515   4.335   0.894 -2.8574  0.2569  0.2825
   12MOL   H239 2901   4.517   4.261   0.738 -0.4287 -0.5210 -0.3862
   12MOL   H240 2902   4.363   4.060   0.666 -1.1513 -1.0751 -1.0515
   12MOL   H241 2903   4.245   3.996   0.783  0.0486  1.3721  0.1559
   12MOL   H242 2904   4.404   3.847   0.876 -0.5679  0.2079 -0.9291
   13MOL     O1 2905   0.834   2.903   7.537  0.0595 -0.4708  0.1388
   13MOL     C2 2906   0.840   3.034   7.601  0.3863  0.2900  0.0417
   13MOL     C3 2907   0.927   3.008   7.722 -0.6106 -0.4164 -0.4620
   13MOL     C4 2908   0.896   3.133   7.501  0.7900  0.2973  0.0029
   13MOL     C5 2909   0.902   3.274   7.555  0.9580  0.7133  0.6380
   13MOL     O6 2910   1.010   3.325   7.583  0.1904  0.1178  0.7278
   13MOL     H7 2911   0.746   3.065   7.646  0.0516 -1.4370  0.5431
   13MOL     H8 2912   0.909   3.091   7.790  0.9181 -1.6075  1.4750
   13MOL     H9 2913   1.033   3.015   7.695  0.1087 -3.4166  1.2394
   13MOL    H10 2914   0.902   2.910   7.763 -0.3934 -0.6702 -0.9406
   13MOL    H11 2915   0.843   3.132   7.405 -1.7014  2.0176  1.2994
   13MOL    H12 2916   0.997   3.098   7.479  1.2346 -0.5543  3.1968
   13MOL    H13 2917   0.919   2.878   7.505  0.4861  0.9603  0.1197
   13MOL    O14 2918   0.789   3.326   7.588 -0.2127  0.2796  0.1360
   13MOL    C15 2919   0.775   3.455   7.654  0.3269 -0.5722 -0.5605
   13MOL    C16 2920   0.747   3.554   7.539  0.0782  0.6411 -0.0075
   13MOL    C17 2921   0.664   3.447   7.760 -0.0330  0.1148  0.4540
   13MOL    C18 2922   0.647   3.574   7.835  0.2400  0.9036 -0.1415
   13MOL    O19 2923   0.533   3.620   7.862 -0.0148 -0.6303 -0.1996
   13MOL    H20 2924   0.862   3.487   7.712 -1.3633  0.2804  1.5972
   13MOL    H21 2925   0.740   3.653   7.585  0.3815  0.0130  1.4118
   13MOL    H22 2926   0.659   3.518   7.485  0.0671 -0.1803  0.5571
   13MOL    H23 2927   0.838   3.566   7.481  0.1296 -2.5367 -0.6645
   13MOL    H24 2928   0.676   3.360   7.825 -0.5253  1.7979  2.8533
   13MOL    H25 2929   0.568   3.432   7.711  0.5541  0.2419 -0.7602
   13MOL    O26 2930   0.761   3.619   7.884 -0.2079  0.1199 -0.3172
   13MOL    C27 2931   0.784   3.753   7.937 -0.3071 -0.5723  0.4094
   13MOL    C28 2932   0.872   3.749   0.083 -0.2257  0.0719  0.8720
   13MOL    C29 2933   0.820   3.849   7.819  0.0758  0.1756  0.0267
   13MOL    C30 2934   0.964   3.846   7.772 -0.0442  0.2069 -0.8184
   13MOL    O31 2935   1.048   3.920   7.819 -0.1378 -0.1901 -0.0504
   13MOL    H32 2936   0.688   3.793   7.970 -0.3223 -0.9014  0.7716
   13MOL    H33 2937   0.917   3.848   0.095  1.1085  0.0382 -3.2338
   13MOL    H34 2938   0.959   3.688   0.060 -1.5555 -0.0960 -4.3738
   13MOL    H35 2939   0.832   3.692   0.167 -0.7357 -1.3158 -0.2955
   13MOL    H36 2940   0.806   3.951   7.855 -0.5933  1.3431 -3.3985
   13MOL    H37 2941   0.767   3.832   7.725 -2.1722 -0.6996  1.3992
   13MOL    O38 2942   0.987   3.744   7.687  0.0663 -0.1712  0.0879
   13MOL    C39 2943   1.122   3.735   7.632 -0.3821  0.2196 -0.3432
   13MOL    C40 2944   1.193   3.612   7.693  0.3495 -0.0242 -0.5840
   13MOL    C41 2945   1.128   3.708   7.481 -0.0888  0.2962  0.6100
   13MOL    C42 2946   1.063   3.822   7.396  0.1553 -0.4828  0.5031
   13MOL    O43 2947   1.130   3.918   7.350  0.0795 -0.1250  0.3498
   13MOL    H44 2948   1.186   3.820   7.658  1.5831  0.1265 -4.4181
   13MOL    H45 2949   1.149   3.519   7.657 -0.2774  0.0532 -0.0447
   13MOL    H46 2950   1.184   3.618   7.801 -0.3424  0.4652 -0.6623
   13MOL    H47 2951   1.294   3.597   7.655  0.3333  1.1451 -1.1105
   13MOL    H48 2952   1.070   3.615   7.475 -2.1631  1.4235  2.3923
   13MOL    H49 2953   1.230   3.700   7.445  0.1111  2.6425  0.5769
   13MOL    O50 2954   0.928   3.803   7.374  0.2221  0.0121  0.2467
   13MOL    C51 2955   0.859   3.879   7.273  0.0528 -0.4557 -0.2449
   13MOL    C52 2956   0.801   3.774   7.169  0.0222  0.1223 -0.2396
   13MOL    C53 2957   0.735   3.953   7.335 -0.3412  0.0543 -0.1278
   13MOL    C54 2958   0.770   4.073   7.422 -0.3981 -0.0969  0.5624
   13MOL    O55 2959   0.788   4.065   7.541  0.0819  0.1545  0.0695
   13MOL    H56 2960   0.927   3.953   7.232  1.0881 -1.6114 -0.6614
   13MOL    H57 2961   0.883   3.739   7.106  0.4222  3.6597 -1.8170
   13MOL    H58 2962   0.740   3.830   7.098 -1.4074 -0.8759  0.1842
   13MOL    H59 2963   0.750   3.688   7.212 -0.5389  1.0215  0.9027
   13MOL    H60 2964   0.678   3.900   7.411  0.6521  0.3917  0.8594
   13MOL    H61 2965   0.653   3.984   7.270 -0.3931 -0.8741 -0.5148
   13MOL    O62 2966   0.771   4.187   7.345 -0.1573 -0.2208  0.1296
   13MOL    C63 2967   0.804   4.312   7.410 -0.1700 -0.3330 -0.1467
   13MOL    C64 2968   0.900   4.375   7.312 -0.3117  0.1662 -0.3022
   13MOL    C65 2969   0.666   4.380   7.426 -0.4930 -0.0199 -0.0947
   13MOL    C66 2970   0.674   4.522   7.489  1.0688 -0.1470 -0.8611
   13MOL    O67 2971   0.598   4.615   7.455 -0.0274  0.6331 -0.3335
   13MOL    H68 2972   0.854   4.289   7.504 -1.0675  0.9783  0.6625
   13MOL    H69 2973   0.953   4.459   7.358  2.7221 -1.5051 -0.6243
   13MOL    H70 2974   0.853   4.400   7.217 -1.2713  1.7716  0.5821
   13MOL    H71 2975   0.980   4.304   7.290 -1.1451 -1.1355  0.8279
   13MOL    H72 2976   0.601   4.317   7.486  0.4265 -1.6059 -0.7221
   13MOL    H73 2977   0.622   4.398   7.328  0.7582  0.2885 -0.6143
   13MOL    O74 2978   0.762   4.525   7.585 -0.0427 -0.2703 -0.5946
   13MOL    C75 2979   0.804   4.634   7.663  0.2032  0.2445  0.6287
   13MOL    C76 2980   0.726   4.621   7.798  0.1653 -0.2617 -0.6012
   13MOL    C77 2981   0.959   4.648   7.661 -0.6924  0.7957 -0.7367
   13MOL    C78 2982   1.035   4.550   7.754 -0.1433  0.7984 -0.0040
   13MOL    O79 2983   1.125   4.589   7.834  0.2074 -0.7241 -0.1299
   13MOL    H80 2984   0.775   4.726   7.612 -0.1863  0.0255  0.4530
   13MOL    H81 2985   0.750   4.709   7.858 -0.6083  1.2652 -2.4572
   13MOL    H82 2986   0.748   4.528   7.850  1.8414  0.6635  0.3864
   13MOL    H83 2987   0.621   4.615   7.770 -0.4611  0.6981  1.4786
   13MOL    H84 2988   0.977   4.749   7.699 -0.5926  0.8528 -0.9334
   13MOL    H85 2989   0.997   4.641   7.559 -2.4237 -1.5991 -1.2484
   13MOL    O86 2990   0.998   4.416   7.738  0.2747  0.1509  0.3345
   13MOL    C87 2991   1.074   4.318   7.806  0.2036 -0.3416 -0.3185
   13MOL    C88 2992   0.965   4.243   7.883  0.0190 -0.2703  0.4458
   13MOL    C89 2993   1.149   4.230   7.697  0.9280  0.5708  0.3293
   13MOL    C90 2994   1.276   4.298   7.639  0.0914 -0.0118  0.7400
   13MOL    O91 2995   1.393   4.251   7.657  1.0544  0.0346  0.1555
   13MOL    H92 2996   1.144   4.352   7.883 -0.2537 -0.7391  0.2714
   13MOL    H93 2997   1.003   4.172   7.957 -2.4652 -1.8873  0.2431
   13MOL    H94 2998   0.916   4.185   7.805  0.5317 -1.6160  1.1024
   13MOL    H95 2999   0.891   4.315   7.918 -0.1369 -0.2521  0.0789
   13MOL    H96 3000   1.081   4.184   7.625 -0.3731  0.7557  1.4201
   13MOL    H97 3001   1.177   4.143   7.757  0.3983  0.3831  0.3025
   13MOL    O98 3002   1.257   4.413   7.576 -0.0578 -0.7978  0.0131
   13MOL    C99 3003   1.361   4.472   7.505 -0.6147 -1.0665 -0.0430
   13MOL   C100 3004   1.309   4.543   7.378  0.2399  0.3402 -0.0019
   13MOL   C101 3005   1.455   4.560   7.598 -0.1202  0.4487 -0.1481
   13MOL   C102 3006   1.590   4.601   7.535 -1.0151  0.1056 -0.5985
   13MOL   O103 3007   1.625   4.713   7.536  0.3008 -0.1616 -0.1603
   13MOL   H104 3008   1.422   4.393   7.461 -0.6403 -1.1419  0.0571
   13MOL   H105 3009   1.391   4.572   7.312  0.7225  1.5721  1.1138
   13MOL   H106 3010   1.254   4.630   7.414  0.9180  1.3763 -1.4172
   13MOL   H107 3011   1.245   4.471   7.327  2.0103 -0.4874 -1.1271
   13MOL   H108 3012   1.487   4.501   7.684  2.0046  1.7584 -0.0089
   13MOL   H109 3013   1.403   4.647   7.640 -0.6005 -0.1836  0.5965
   13MOL   O110 3014   1.649   4.506   7.479  0.1979  0.3462 -0.1241
   13MOL   C111 3015   1.785   4.520   7.420  0.3311 -0.0918  0.7549
   13MOL   C112 3016   1.859   4.401   7.475  0.3007  0.1450 -0.3707
   13MOL   C113 3017   1.758   4.517   7.266  0.0211 -0.6813 -0.1868
   13MOL   C114 3018   1.882   4.569   7.181  0.1151  0.3753 -0.0327
   13MOL   O115 3019   1.988   4.605   7.236 -0.1132  0.3726  0.2203
   13MOL   H116 3020   1.834   4.614   7.443  2.5061 -0.9900 -0.0608
   13MOL   H117 3021   1.811   4.307   7.449 -1.5934  0.3024  2.3172
   13MOL   H118 3022   1.863   4.411   7.584  0.4639 -0.8800 -0.2750
   13MOL   H119 3023   1.961   4.410   7.439  0.9438  1.3437  1.6173
   13MOL   H120 3024   1.670   4.575   7.238 -0.3155 -2.5393 -3.1390
   13MOL   H121 3025   1.721   4.418   7.237 -1.0119 -0.7783  1.4155
   13MOL   O122 3026   1.864   4.573   7.048 -0.1320 -0.3651 -0.4380
   13MOL   C123 3027   1.963   4.618   6.956  0.1615  0.1786  0.2888
   13MOL   C124 3028   2.080   4.525   6.954  0.1269 -1.2386 -0.4558
   13MOL   C125 3029   1.900   4.638   6.816  0.7592 -0.5044  0.2351
   13MOL   C126 3030   1.935   4.760   6.740 -0.2128 -0.1818 -0.0755
   13MOL   O127 3031   1.882   4.868   6.757 -0.0198 -0.0707  0.1987
   13MOL   H128 3032   1.991   4.720   6.981 -0.9179  0.6043 -0.2071
   13MOL   H129 3033   2.144   4.531   6.866  1.3685  1.5371  0.5756
   13MOL   H130 3034   2.059   4.418   6.965 -0.5781 -0.9737  0.8556
   13MOL   H131 3035   2.145   4.548   7.039 -0.3004  0.8110 -0.6693
   13MOL   H132 3036   1.792   4.645   6.829  0.9875  1.1509  1.3604
   13MOL   H133 3037   1.919   4.553   6.750 -2.7163  0.2169 -1.8629
   13MOL   O134 3038   2.051   4.746   6.669 -0.4397 -0.6022  0.0917
   13MOL   C135 3039   2.095   4.862   6.589  0.3146  0.2412  0.4835
   13MOL   C136 3040   2.185   4.947   6.686  0.0102  0.3464 -0.2988
   13MOL   C137 3041   2.152   4.800   6.459  0.1744 -0.0053  0.2840
   13MOL   C138 3042   2.200   4.904   6.358 -0.2080  0.4019  0.4854
   13MOL   O139 3043   2.166   4.911   6.238  0.7403 -0.3790 -0.0488
   13MOL   H140 3044   2.011   4.923   6.558 -0.7255 -1.5253 -0.2615
   13MOL   H141 3045   2.216   5.037   6.632  0.5193 -0.8675 -2.0584
   13MOL   H142 3046   2.277   4.891   6.702 -0.8099 -0.4903  1.5495
   13MOL   H143 3047   2.149   4.982   6.782 -1.5109 -2.0628  0.0463
   13MOL   H144 3048   2.070   4.755   6.404  1.4008 -1.5956 -0.2856
   13MOL   H145 3049   2.234   4.734   6.488 -0.5638 -1.7571 -1.5141
   13MOL   O146 3050   2.299   4.977   6.413 -0.4512  0.2033  0.0316
   13MOL   C147 3051   2.372   5.078   6.346 -0.4161 -0.3122 -0.1395
   13MOL   C148 3052   2.398   5.202   6.440  0.1601 -0.1220  0.3882
   13MOL   C149 3053   2.499   5.022   6.282 -0.3559  0.3737  0.6728
   13MOL   C150 3054   2.526   5.077   6.146  0.7660  0.1148  0.0445
   13MOL   O151 3055   2.635   5.117   6.112 -0.2444 -0.0754  0.0226
   13MOL   H152 3056   2.299   5.112   6.272  0.1099  0.0385 -0.5005
   13MOL   H153 3057   2.298   5.239   6.460 -0.5490 -0.5279 -2.2543
   13MOL   H154 3058   2.446   5.279   6.381  0.7272 -0.1300  0.8285
   13MOL   H155 3059   2.449   5.184   6.535  2.7511  3.4602 -0.2267
   13MOL   H156 3060   2.471   4.918   6.270 -0.0540 -0.0382  3.2577
   13MOL   H157 3061   2.585   5.014   6.348  1.0530  0.4594 -1.1139
   13MOL   O158 3062   2.417   5.062   6.064 -0.0368  0.0492 -0.6989
   13MOL   C159 3063   2.415   5.086   5.928 -0.3363 -0.2782  0.3569
   13MOL   C160 3064   2.368   4.958   5.852 -0.1624 -0.0602  0.6394
   13MOL   C161 3065   2.323   5.208   5.893 -0.1858  0.2430 -0.0371
   13MOL   C162 3066   2.399   5.340   5.899  0.4049  0.3816  0.3680
   13MOL   O163 3067   2.428   5.406   5.798 -0.1143 -0.1942 -0.2873
   13MOL   H164 3068   2.517   5.115   5.906  0.1169 -0.5017  2.1309
   13MOL   H165 3069   2.449   4.886   5.865  0.6323  0.6681 -0.1887
   13MOL   H166 3070   2.341   4.962   5.747 -0.7153  1.2556  0.8253
   13MOL   H167 3071   2.275   4.911   5.884  1.6158 -2.3823  2.7235
   13MOL   H168 3072   2.225   5.209   5.941 -1.0324  0.2644 -1.7376
   13MOL   H169 3073   2.292   5.202   5.789 -1.0906  0.8225  0.1933
   13MOL   O170 3074   2.432   5.376   6.025 -0.1848  0.3081  0.1414
   13MOL   C171 3075   2.505   5.493   6.046 -0.6801  0.0639 -0.4351
   13MOL   C172 3076   2.428   5.595   6.133 -0.0713 -0.2531  0.0840
   13MOL   C173 3077   2.646   5.449   6.107 -0.4092  0.7491  0.2677
   13MOL   C174 3078   2.750   5.420   5.996  0.0943 -0.1185  0.2936
   13MOL   O175 3079   2.854   5.487   5.995  0.1327  1.4404  0.5881
   13MOL   H176 3080   2.517   5.553   5.955 -0.3505  0.3671 -0.1954
   13MOL   H177 3081   2.377   5.543   6.214  0.2811  2.4285  2.0901
   13MOL   H178 3082   2.357   5.653   6.074  0.1661  0.5836  0.6098
   13MOL   H179 3083   2.499   5.670   6.168 -0.8839  0.5905 -0.0515
   13MOL   H180 3084   2.635   5.363   6.173 -1.2185  1.4980  1.1188
   13MOL   H181 3085   2.686   5.536   6.161  0.1097  0.3275  0.5721
   13MOL   O182 3086   2.715   5.327   5.911 -0.1135 -0.4268  0.1972
   13MOL   C183 3087   2.781   5.321   5.780  0.7208 -0.2828  0.2403
   13MOL   C184 3088   2.735   5.185   5.717 -0.0594  0.2888  0.7116
   13MOL   C185 3089   2.745   5.455   5.704  0.4307 -0.7917 -0.1418
   13MOL   C186 3090   2.775   5.446   5.556  0.1797  0.7250 -0.2076
   13MOL   O187 3091   2.689   5.482   5.476 -0.5383 -0.1048 -0.2413
   13MOL   H188 3092   2.889   5.315   5.791  0.7607 -0.6953 -0.3632
   13MOL   H189 3093   2.776   5.184   5.616  0.4555  2.1960  0.8843
   13MOL   H190 3094   2.626   5.179   5.715 -0.1388  0.5322  2.7550
   13MOL   H191 3095   2.771   5.099   5.774  0.6133 -0.3035 -0.5800
   13MOL   H192 3096   2.803   5.538   5.742 -1.6460  0.4577  0.3939
   13MOL   H193 3097   2.638   5.478   5.713  0.3258 -1.2749 -0.1183
   13MOL   O194 3098   2.912   5.426   5.532 -0.4921 -0.6756  0.1835
   13MOL   C195 3099   2.962   5.426   5.400 -0.1139  0.5007  0.0024
   13MOL   C196 3100   3.111   5.475   5.384  0.6658 -0.2059  0.5432
   13MOL   C197 3101   2.929   5.289   5.334 -0.7577 -0.3823  0.0696
   13MOL   C198 3102   3.017   5.169   5.354 -0.0296  0.0399  0.0544
   13MOL   O199 3103   2.985   5.075   5.430  0.6488 -0.3771 -0.1315
   13MOL   H200 3104   2.909   5.504   5.346  0.3606  1.1152  0.4145
   13MOL   H201 3105   3.180   5.393   5.401  1.5617  0.4762  0.2321
   13MOL   H202 3106   3.147   5.553   5.451  3.5339 -0.7236 -0.3273
   13MOL   H203 3107   3.125   5.505   5.280  0.1531  1.2309  0.8678
   13MOL   H204 3108   2.927   5.296   5.225 -0.5583 -2.2663 -0.0773
   13MOL   H205 3109   2.836   5.247   5.371 -0.4185  0.0982  1.5138
   13MOL   O206 3110   3.134   5.183   5.292  0.3302  0.3779  0.2503
   13MOL   C207 3111   3.243   5.091   5.318 -0.3028 -0.6093  0.1236
   13MOL   C208 3112   3.265   5.034   5.181 -0.4792 -0.0637  0.3887
   13MOL   C209 3113   3.372   5.168   5.370  0.1805 -0.4666 -0.3476
   13MOL   C210 3114   3.373   5.183   5.525  0.0965  0.7220 -0.2339
   13MOL   O211 3115   3.480   5.171   5.590  0.2147 -0.0992 -0.1158
   13MOL   H212 3116   3.214   5.012   5.388  1.6966 -0.8706  0.6716
   13MOL   H213 3117   3.178   5.004   5.123  0.6769 -2.2215 -0.3022
   13MOL   H214 3118   3.323   4.942   5.192 -0.1015 -0.0384 -1.3156
   13MOL   H215 3119   3.312   5.112   5.122 -0.4202 -1.0155 -0.8343
   13MOL   H216 3120   3.381   5.263   5.316 -0.1488  0.6051  1.4311
   13MOL   H217 3121   3.462   5.119   5.333  0.1774 -0.0061 -0.9881
   13MOL   O218 3122   3.251   5.205   5.573  0.1353  0.1757  0.1837
   13MOL   C219 3123   3.221   5.189   5.708 -0.2586  0.4413 -0.1001
   13MOL   C220 3124   3.180   5.322   5.772 -0.2455 -0.2092 -0.1480
   13MOL   C221 3125   3.109   5.085   5.709 -0.2578  0.2865 -0.0787
   13MOL   C222 3126   3.096   5.009   5.842 -0.5609 -0.1516  0.6454
   13MOL   O223 3127   3.163   4.908   5.871  0.0384 -0.5271  0.6182
   13MOL   H224 3128   3.306   5.155   5.767 -1.4294 -2.9975 -0.2942
   13MOL   H225 3129   3.097   5.373   5.724 -0.4913 -1.4928 -1.1258
   13MOL   H226 3130   3.264   5.391   5.772  0.6709 -1.2010  3.1669
   13MOL   H227 3131   3.157   5.305   5.877 -0.4737 -1.3903 -0.3831
   13MOL   H228 3132   3.134   5.014   5.631  0.4605  0.1078  0.3139
   13MOL   H229 3133   3.018   5.137   5.677 -0.3690  1.1955  1.6395
   13MOL   O230 3134   3.022   5.078   5.936  0.0017  0.2111  0.1672
   13MOL   C231 3135   3.004   5.028   6.066 -0.4236 -1.4026 -0.2016
   13MOL   C232 3136   2.975   5.154   6.149 -0.5746  0.2235  0.3925
   13MOL   C233 3137   2.889   4.920   6.071 -0.1042 -0.3356 -0.4855
   13MOL   C234 3138   2.882   4.855   6.208  0.0624  0.3737  0.0147
   13MOL   O235 3139   2.989   4.834   6.270  0.0660  0.5493 -0.3846
   13MOL   H236 3140   3.100   4.991   6.101 -0.8460 -1.5820  0.7846
   13MOL   H237 3141   2.936   5.119   6.245 -2.2739  0.7922 -0.0666
   13MOL   H238 3142   2.895   5.207   6.096 -0.4064  0.1833  0.1002
   13MOL   H239 3143   3.067   5.211   6.155 -0.4771 -0.2340  4.4472
   13MOL   H240 3144   2.909   4.840   6.001 -0.4621  1.3798 -2.5886
   13MOL   H241 3145   2.788   4.955   6.049  0.0903 -0.4136 -1.5204
   13MOL   H242 3146   2.785   4.827   6.249 -0.9921  0.9575 -2.0144
   14MOL     O1 3147   5.723   2.163   3.965  0.7920 -0.0856 -0.7201
   14MOL     C2 3148   5.857   2.189   4.009  0.4129 -0.9525 -0.3619
   14MOL     C3 3149   5.922   2.258   3.889  0.7658  0.3946  0.1013
   14MOL     C4 3150   5.848   2.280   4.129  0.1084 -0.0679 -0.1345
   14MOL     C5 3151   5.976   2.287   4.212  0.1183  0.5386  0.1053
   14MOL     O6 3152   5.984   2.245   4.329  0.1788 -0.6824 -0.1936
   14MOL     H7 3153   5.910   2.095   4.018  0.9858 -0.8458 -2.4224
   14MOL     H8 3154   6.017   2.311   3.893  0.4349  0.9271  1.2005
   14MOL     H9 3155   5.845   2.329   3.857  0.4800  0.0066 -0.0682
   14MOL    H10 3156   5.925   2.194   3.801 -0.9044  0.4869 -0.0470
   14MOL    H11 3157   5.764   2.256   4.194 -0.8549  0.2239 -1.2498
   14MOL    H12 3158   5.810   2.373   4.087 -3.3268 -1.2235  0.2961
   14MOL    H13 3159   5.732   2.099   3.896 -0.2906  1.3608 -2.2227
   14MOL    O14 3160   6.078   2.347   4.147 -0.2162  0.3502 -0.2281
   14MOL    C15 3161   6.208   2.368   4.212 -0.7263 -0.1239  1.1065
   14MOL    C16 3162   6.320   2.387   4.108  0.2884 -0.8302  0.1834
   14MOL    C17 3163   6.192   2.481   4.318  0.9505 -0.7989 -0.1260
   14MOL    C18 3164   6.329   2.519   4.370  0.0003 -0.7672 -0.4029
   14MOL    O19 3165   6.386   2.433   4.434  0.5014  0.6945  0.2503
   14MOL    H20 3166   6.220   2.268   4.254 -0.4900 -1.7966 -2.6778
   14MOL    H21 3167   6.307   2.323   4.021  1.1016 -1.7094  0.7101
   14MOL    H22 3168   6.424   2.373   4.136  0.6058  2.1070  0.6530
   14MOL    H23 3169   6.309   2.489   4.070  2.0470 -0.6840  0.0395
   14MOL    H24 3170   6.133   2.453   4.405 -1.4467  1.9362 -0.8104
   14MOL    H25 3171   6.140   2.565   4.272  0.4766 -0.5474  0.8430
   14MOL    O26 3172   6.371   2.643   4.330 -0.0298  0.5312 -0.3114
   14MOL    C27 3173   6.503   2.689   4.365 -0.4684  0.1349 -0.5811
   14MOL    C28 3174   6.593   2.700   4.242 -0.1642 -0.3609  0.2510
   14MOL    C29 3175   6.492   2.818   4.450 -0.4993 -0.2413  0.0902
   14MOL    C30 3176   6.626   2.857   4.517 -1.1036 -0.0451 -1.3188
   14MOL    O31 3177   6.736   2.841   4.465 -0.3824  0.2924  0.3508
   14MOL    H32 3178   6.555   2.610   4.421  1.2305  2.5256  1.3658
   14MOL    H33 3179   6.698   2.719   4.261 -0.3430  1.5111 -0.5938
   14MOL    H34 3180   6.580   2.788   4.179 -0.9666 -0.7941 -0.2054
   14MOL    H35 3181   6.575   2.617   4.173  3.9881 -2.9008  2.0667
   14MOL    H36 3182   6.425   2.800   4.534  0.1252  0.6030  0.7796
   14MOL    H37 3183   6.471   2.911   4.397 -0.6290  1.0873  2.4167
   14MOL    O38 3184   6.610   2.915   4.627  0.1051 -0.4219  0.5752
   14MOL    C39 3185   6.715   2.978   4.706 -0.1039  0.4473  1.0394
   14MOL    C40 3186   6.648   3.107   4.751  0.1902  0.3227  0.2465
   14MOL    C41 3187   6.744   2.892   4.830  0.6334  0.0761  0.4377
   14MOL    C42 3188   6.859   2.961   4.910 -0.0934  0.0004  0.0250
   14MOL    O43 3189   6.833   3.009   5.020 -0.1633 -0.0620 -0.0042
   14MOL    H44 3190   6.807   3.005   4.652  0.7628 -1.5811  1.4487
   14MOL    H45 3191   6.619   3.165   4.663  0.5589 -0.5551 -0.4489
   14MOL    H46 3192   6.711   3.184   4.796 -2.2974  1.6824  1.5532
   14MOL    H47 3193   6.558   3.099   4.812  0.8386  0.8983  1.2868
   14MOL    H48 3194   6.788   2.795   4.805  1.9032 -0.4827  4.5680
   14MOL    H49 3195   6.658   2.866   4.892 -0.2881  1.0827 -0.3986
   14MOL    O50 3196   6.974   2.965   4.847 -0.0392  0.1457 -0.3726
   14MOL    C51 3197   7.091   3.034   4.897  0.0042 -0.5869  0.3521
   14MOL    C52 3198   7.191   2.931   4.952 -0.6690  0.5675 -0.8328
   14MOL    C53 3199   7.146   3.123   4.776  0.6331 -0.6781 -0.1859
   14MOL    C54 3200   7.062   3.255   4.742  0.4368  0.3318 -0.2302
   14MOL    O55 3201   7.043   3.285   4.627  0.2397  0.0440 -0.6829
   14MOL    H56 3202   7.065   3.094   4.984  0.8166  0.2111  0.0459
   14MOL    H57 3203   7.144   2.883   5.038 -1.8493  0.4414 -1.5278
   14MOL    H58 3204   7.276   2.991   4.984 -0.4772  0.4905 -1.1996
   14MOL    H59 3205   7.229   2.868   4.871  3.7491  1.1496  0.6662
   14MOL    H60 3206   7.159   3.065   4.685 -0.7678 -0.7082 -0.3743
   14MOL    H61 3207   7.245   3.161   4.803  0.0909  2.3253 -2.1946
   14MOL    O62 3208   7.027   3.328   4.855 -0.6987  0.1321  0.1552
   14MOL    C63 3209   6.972   3.464   4.841 -0.2882 -0.6439  0.2285
   14MOL    C64 3210   6.821   3.466   4.874  0.1815 -0.4310  0.4019
   14MOL    C65 3211   7.042   3.574   4.920 -0.0557 -1.1222 -0.2647
   14MOL    C66 3212   7.186   3.589   4.871  0.7712  0.0393  0.9299
   14MOL    O67 3213   7.278   3.579   4.951 -0.5237  0.1990 -0.3593
   14MOL    H68 3214   6.973   3.498   4.737  1.4859 -2.0610 -0.2388
   14MOL    H69 3215   6.779   3.399   4.799  0.4450 -1.0329  0.7879
   14MOL    H70 3216   6.771   3.562   4.861 -0.1632 -0.1520  3.4256
   14MOL    H71 3217   6.801   3.422   4.972 -2.3987 -0.3572 -0.0458
   14MOL    H72 3218   7.032   3.548   5.025 -0.2457 -0.5140 -0.1294
   14MOL    H73 3219   6.994   3.671   4.909  0.6611 -0.9426 -2.0024
   14MOL    O74 3220   7.200   3.609   4.741 -0.2016  0.3309 -0.1270
   14MOL    C75 3221   7.331   3.618   4.683  0.5263  0.1044  0.1028
   14MOL    C76 3222   7.388   3.484   4.638 -0.6151  0.0583 -1.2057
   14MOL    C77 3223   7.331   3.720   4.564  0.9093 -0.0019  0.2000
   14MOL    C78 3224   7.316   3.869   4.615  0.2420  0.4153  0.2623
   14MOL    O79 3225   7.343   3.897   4.736  0.0956 -0.0119  0.4806
   14MOL    H80 3226   7.397   3.660   4.759 -0.6133  0.8589  0.6768
   14MOL    H81 3227   7.341   3.435   4.553 -0.2307 -0.7680 -0.9436
   14MOL    H82 3228   7.383   3.416   4.723 -2.2981  0.5861 -0.8656
   14MOL    H83 3229   7.487   3.506   4.598  0.4328 -2.2339 -0.0074
   14MOL    H84 3230   7.242   3.694   4.506  0.8483 -1.1834  0.8108
   14MOL    H85 3231   7.420   3.707   4.502  0.8016 -4.4732  0.8426
   14MOL    O86 3232   7.285   3.957   4.512 -0.4276  0.7746  0.2707
   14MOL    C87 3233   7.244   4.093   4.534 -0.3691  0.1127 -0.0283
   14MOL    C88 3234   7.373   4.169   4.506  0.5093  0.3712  0.4714
   14MOL    C89 3235   7.126   4.140   4.447 -0.7790  0.9411  0.5193
   14MOL    C90 3236   6.989   4.072   4.466  0.6411  0.1183 -0.2327
   14MOL    O91 3237   6.886   4.136   4.451  0.4381 -0.0605 -0.5716
   14MOL    H92 3238   7.214   4.103   4.638 -1.2327  1.2572 -0.3811
   14MOL    H93 3239   7.451   4.120   4.565  0.7264  1.8853  1.4823
   14MOL    H94 3240   7.350   4.269   4.545 -0.8207 -0.0564  0.7809
   14MOL    H95 3241   7.403   4.172   4.402 -1.1879  2.4039  0.0017
   14MOL    H96 3242   7.144   4.141   4.340  1.8349  0.3678  0.9209
   14MOL    H97 3243   7.104   4.246   4.465  1.6033  1.3425  1.3919
   14MOL    O98 3244   6.992   3.935   4.505 -0.0465 -0.7265 -0.5434
   14MOL    C99 3245   6.873   3.852   4.522  1.2351  0.4844 -0.7006
   14MOL   C100 3246   6.915   3.707   4.544 -0.6127  0.0355 -0.6922
   14MOL   C101 3247   6.770   3.908   4.629  0.5897  0.2787  0.4030
   14MOL   C102 3248   6.826   3.907   4.770  0.0702 -0.5678  0.1207
   14MOL   O103 3249   6.787   3.825   4.853  0.1506 -0.2024 -0.1910
   14MOL   H104 3250   6.829   3.844   4.422 -2.3030  1.1018  0.7360
   14MOL   H105 3251   6.990   3.666   4.477 -0.8031  0.6647 -1.2914
   14MOL   H106 3252   6.831   3.639   4.529 -0.4396  0.3174 -3.0768
   14MOL   H107 3253   6.975   3.694   4.634 -0.2914  0.2997 -0.8722
   14MOL   H108 3254   6.676   3.853   4.635  0.1258  1.1732  1.6274
   14MOL   H109 3255   6.737   4.009   4.605 -0.8450 -0.0017  1.0859
   14MOL   O110 3256   6.923   4.008   4.801  0.5183 -0.1328  0.5200
   14MOL   C111 3257   6.970   4.037   4.939  0.2504  0.9831 -0.4583
   14MOL   C112 3258   7.106   3.966   4.950 -0.4921  0.4185  0.8588
   14MOL   C113 3259   6.994   4.191   4.934  0.4001  0.1863  0.1067
   14MOL   C114 3260   7.011   4.248   5.069 -0.1041 -0.2080 -0.1062
   14MOL   O115 3261   7.124   4.276   5.113 -0.1237  0.2209 -0.0897
   14MOL   H116 3262   6.901   4.009   5.019  2.8018  0.1351  1.5427
   14MOL   H117 3263   7.151   3.969   4.851  0.0305  0.2287  1.0920
   14MOL   H118 3264   7.093   3.865   4.988 -0.0321 -0.2746 -0.7646
   14MOL   H119 3265   7.174   4.024   5.012  2.3847 -1.3992 -0.5274
   14MOL   H120 3266   6.912   4.239   4.881  0.5287 -0.4946 -0.7144
   14MOL   H121 3267   7.073   4.211   4.862 -0.4946  0.1981 -0.8873
   14MOL   O122 3268   6.892   4.242   5.138 -0.1489  0.8245  0.1152
   14MOL   C123 3269   6.886   4.278   5.279 -0.8770 -0.2015  0.4259
   14MOL   C124 3270   6.918   4.425   5.303 -0.4664  1.0192 -0.0081
   14MOL   C125 3271   6.750   4.235   5.339 -0.7318  0.3607 -0.1071
   14MOL   C126 3272   6.754   4.087   5.383  0.1386 -0.2829  0.1153
   14MOL   O127 3273   6.726   4.062   5.504 -0.5416  0.5238  0.3898
   14MOL   H128 3274   6.959   4.215   5.330 -1.8811 -1.2326  0.6044
   14MOL   H129 3275   6.838   4.497   5.323 -2.0693 -1.2966  2.1820
   14MOL   H130 3276   6.987   4.468   5.231  0.9559 -0.8576  0.1909
   14MOL   H131 3277   6.960   4.431   5.403 -0.1556  1.1381 -0.1462
   14MOL   H132 3278   6.673   4.250   5.263 -1.5016  2.3433  1.0187
   14MOL   H133 3279   6.730   4.300   5.424 -0.1057 -0.1635  0.4458
   14MOL   O134 3280   6.777   4.001   5.281 -0.5636  0.5413 -0.4600
   14MOL   C135 3281   6.765   3.863   5.303  0.1347  0.1137 -0.1220
   14MOL   C136 3282   6.649   3.817   5.207  0.2241 -0.6497  0.5244
   14MOL   C137 3283   6.893   3.779   5.269 -0.0904 -0.2273  0.6537
   14MOL   C138 3284   6.911   3.639   5.336  0.2262  0.2540 -0.3839
   14MOL   O139 3285   6.913   3.535   5.267  0.1253  0.0224  0.1451
   14MOL   H140 3286   6.725   3.844   5.402 -1.2122 -1.0658 -0.8751
   14MOL   H141 3287   6.676   3.848   5.105 -1.6750 -0.0575  0.1821
   14MOL   H142 3288   6.548   3.847   5.235 -0.6157 -2.1856 -0.7823
   14MOL   H143 3289   6.649   3.709   5.216  1.5372 -0.7207 -0.1703
   14MOL   H144 3290   6.968   3.848   5.309 -0.6456 -0.0011  1.3128
   14MOL   H145 3291   6.907   3.773   5.161 -1.7560 -1.1180  0.4781
   14MOL   O146 3292   6.904   3.643   5.461 -0.6111  0.2866  0.6008
   14MOL   C147 3293   6.912   3.524   5.538 -0.5334  0.1466  0.4200
   14MOL   C148 3294   7.044   3.540   5.616  0.1389 -0.0445 -0.3963
   14MOL   C149 3295   6.779   3.504   5.616  0.1868  0.3822  0.1437
   14MOL   C150 3296   6.743   3.586   5.739 -0.1061 -0.2352 -0.0070
   14MOL   O151 3297   6.645   3.662   5.743  0.0126 -0.1991  0.1617
   14MOL   H152 3298   6.930   3.435   5.477 -1.1708  0.0482  0.3728
   14MOL   H153 3299   7.135   3.547   5.555 -1.0469  0.2152 -2.1795
   14MOL   H154 3300   7.047   3.460   5.690 -0.1521 -0.6561 -1.0454
   14MOL   H155 3301   7.046   3.633   5.674 -1.1342 -0.8276  0.9159
   14MOL   H156 3302   6.796   3.399   5.640 -0.5541  0.0879 -0.5715
   14MOL   H157 3303   6.692   3.520   5.552 -0.3708 -0.8527  0.5741
   14MOL   O158 3304   6.831   3.564   5.841 -0.2656 -0.1437  0.0649
   14MOL   C159 3305   6.818   3.643   5.967 -0.1745  0.0162 -0.0740
   14MOL   C160 3306   6.685   3.619   6.046  0.4254  0.3956 -0.6464
   14MOL   C161 3307   6.953   3.624   6.054 -0.1038 -0.4413  0.1314
   14MOL   C162 3308   7.075   3.686   5.989  0.4236  0.7346  0.2011
   14MOL   O163 3309   7.066   3.787   5.919  0.3582  0.3822 -0.3203
   14MOL   H164 3310   6.807   3.751   5.951 -1.9434 -0.6115 -3.6263
   14MOL   H165 3311   6.596   3.635   5.984 -1.4206 -1.7171  1.3710
   14MOL   H166 3312   6.677   3.692   6.127  0.3140  1.6040 -1.7248
   14MOL   H167 3313   6.679   3.516   6.081  0.6079  1.1203  1.6411
   14MOL   H168 3314   6.966   3.517   6.075  0.4783 -0.5797 -0.9297
   14MOL   H169 3315   6.937   3.662   6.155 -0.3454  0.7394 -0.3476
   14MOL   O170 3316   7.186   3.623   6.019  0.6810  0.9728 -0.5880
   14MOL   C171 3317   7.305   3.661   5.947 -0.5520 -0.3943  0.2591
   14MOL   C172 3318   7.400   3.700   6.065  0.5132 -0.4797  0.2268
   14MOL   C173 3319   7.353   3.534   5.861 -0.1774 -0.0969  0.1160
   14MOL   C174 3320   7.490   3.563   5.795 -0.1982  0.3298 -0.4690
   14MOL   O175 3321   7.522   3.674   5.747 -0.0248 -0.4629 -0.3872
   14MOL   H176 3322   7.288   3.750   5.887 -1.4279  0.0808  1.2076
   14MOL   H177 3323   7.366   3.796   6.104 -2.5647 -2.2975  2.2459
   14MOL   H178 3324   7.495   3.718   6.014  1.1719  0.4471  1.7272
   14MOL   H179 3325   7.420   3.618   6.134  0.9113 -2.8717 -2.6826
   14MOL   H180 3326   7.288   3.509   5.777  0.0228  1.2171 -0.4333
   14MOL   H181 3327   7.357   3.442   5.920 -0.7208  0.0673  0.4087
   14MOL   O182 3328   7.578   3.456   5.803 -0.7774  0.5130 -0.0102
   14MOL   C183 3329   7.709   3.470   5.751 -0.1791  0.1563 -0.1202
   14MOL   C184 3330   7.793   3.550   5.847  0.6378 -0.2704 -0.7675
   14MOL   C185 3331   7.769   3.331   5.734  0.1547  0.5064 -0.5712
   14MOL   C186 3332   7.745   3.276   5.591 -0.1200  0.0574  0.3969
   14MOL   O187 3333   7.655   3.314   5.514 -0.2328  0.3304  0.5012
   14MOL   H188 3334   7.701   3.527   5.658 -2.7099  0.4473  0.2284
   14MOL   H189 3335   7.887   3.564   5.794  1.7371  0.4637  1.3217
   14MOL   H190 3336   7.811   3.486   5.934 -0.0870  2.8352  1.7878
   14MOL   H191 3337   7.749   3.644   5.880  1.9220  0.3530 -0.8363
   14MOL   H192 3338   7.743   3.258   5.811 -1.2865  0.9458 -0.6358
   14MOL   H193 3339   7.878   3.324   5.736  0.1780  1.0709  0.9975
   14MOL   O194 3340   7.820   3.165   5.568 -0.1923 -0.4397 -0.7188
   14MOL   C195 3341   7.801   3.084   5.456  0.1192 -0.2995 -0.4858
   14MOL   C196 3342   7.934   3.069   5.378 -0.0524 -0.1334 -0.2827
   14MOL   C197 3343   7.746   2.945   5.498  0.5039  0.1917  0.7586
   14MOL   C198 3344   7.605   2.937   5.564  0.7076 -0.5230 -0.4403
   14MOL   O199 3345   7.505   2.896   5.507 -0.3510 -0.0006 -0.1278
   14MOL   H200 3346   7.725   3.111   5.382 -0.7239 -0.1679  0.4109
   14MOL   H201 3347   7.913   3.005   5.292 -2.1207 -0.3185  0.3171
   14MOL   H202 3348   0.029   3.034   5.449  0.2447  1.7690  0.3528
   14MOL   H203 3349   7.965   3.167   5.343  0.7211  0.7378  2.6460
   14MOL   H204 3350   7.816   2.881   5.552 -1.1401 -3.0333 -0.7845
   14MOL   H205 3351   7.738   2.888   5.406  0.2508  0.9893  0.2921
   14MOL   O206 3352   7.616   2.979   5.695 -0.1916  0.0956 -0.0355
   14MOL   C207 3353   7.494   2.984   5.773  0.4509 -0.5252 -0.0810
   14MOL   C208 3354   7.519   2.899   5.897 -0.2570 -0.6559  0.0022
   14MOL   C209 3355   7.474   3.131   5.794 -0.0291 -0.7774 -0.0437
   14MOL   C210 3356   7.352   3.166   5.874  0.4197 -0.5120  0.0523
   14MOL   O211 3357   7.357   3.199   5.991 -0.4863  0.2530  0.3959
   14MOL   H212 3358   7.407   2.933   5.733 -0.5161 -0.2536  1.5823
   14MOL   H213 3359   7.525   2.795   5.866 -0.1820 -0.6065 -0.1470
   14MOL   H214 3360   7.449   2.918   5.978  0.3603 -0.1906  0.4407
   14MOL   H215 3361   7.615   2.912   5.948  0.0042  1.3701 -0.9473
   14MOL   H216 3362   7.476   3.192   5.704 -3.0657 -0.9747 -0.2978
   14MOL   H217 3363   7.549   3.181   5.856  0.1231  0.2585 -1.0364
   14MOL   O218 3364   7.244   3.138   5.804  0.0325  0.4720 -0.3953
   14MOL   C219 3365   7.132   3.107   5.878 -0.6791  0.5075  0.7892
   14MOL   C220 3366   7.033   3.215   5.859 -0.0725 -0.4904 -0.2830
   14MOL   C221 3367   7.067   2.973   5.834 -0.3706  0.2596 -0.4746
   14MOL   C222 3368   7.152   2.849   5.866  0.2773  0.4616 -0.1831
   14MOL   O223 3369   7.193   2.827   5.984 -0.6141 -0.3017 -0.5755
   14MOL   H224 3370   7.154   3.091   5.983 -1.0036 -2.7485  0.4148
   14MOL   H225 3371   6.939   3.193   5.910 -0.5780 -1.1854 -1.4834
   14MOL   H226 3372   7.009   3.227   5.753  1.0516  0.0249 -0.4852
   14MOL   H227 3373   7.083   3.308   5.885 -0.9930 -0.0183 -0.1901
   14MOL   H228 3374   7.043   2.975   5.727  1.5094  0.2707 -0.9192
   14MOL   H229 3375   6.972   2.973   5.888  0.3297 -0.8693  0.7923
   14MOL   O230 3376   7.160   2.763   5.770  0.1842  0.6046  0.4737
   14MOL   C231 3377   7.210   2.629   5.786  0.3332 -0.4826 -0.3113
   14MOL   C232 3378   7.103   2.527   5.746 -0.3759 -0.0326 -0.1706
   14MOL   C233 3379   7.339   2.599   5.697  0.3168  0.4409 -0.1704
   14MOL   C234 3380   7.314   2.603   5.547  0.1848 -0.4864  0.1697
   14MOL   O235 3381   7.338   2.508   5.473 -0.2422 -0.2058  0.5945
   14MOL   H236 3382   7.227   2.604   5.891 -1.1751 -0.9317 -0.1691
   14MOL   H237 3383   7.137   2.423   5.736  0.1061  0.3561 -3.1401
   14MOL   H238 3384   7.055   2.556   5.652  1.5354  0.3838 -1.0459
   14MOL   H239 3385   7.019   2.519   5.816  1.6162  0.8270  2.3872
   14MOL   H240 3386   7.370   2.503   5.737  0.1722  1.4421  2.4710
   14MOL   H241 3387   7.414   2.672   5.728  1.6016 -0.7948 -0.3063
   14MOL   H242 3388   7.283   2.703   5.515  0.4313  0.2828  2.2709
   15MOL     O1 3389   4.274   1.147   1.598 -0.3571  0.1161  0.0461
   15MOL     C2 3390   4.313   1.071   1.488  0.1108  0.0738  0.0785
   15MOL     C3 3391   4.190   0.978   1.466  0.2730 -0.6532  0.4459
   15MOL     C4 3392   4.361   1.141   1.364  0.0378  0.3067 -0.0630
   15MOL     C5 3393   4.398   1.051   1.245  0.2425 -0.2802  0.6025
   15MOL     O6 3394   4.512   1.028   1.214 -0.2276  0.6814  0.1178
   15MOL     H7 3395   4.398   1.018   1.532 -0.2393 -0.8615 -0.3456
   15MOL     H8 3396   4.095   1.030   1.454  0.9731  0.5833  0.2203
   15MOL     H9 3397   4.169   0.911   1.549 -0.7682  0.4273  1.0636
   15MOL    H10 3398   4.185   0.908   1.383  0.1988  1.0790 -1.0504
   15MOL    H11 3399   4.451   1.199   1.387 -0.0497  0.0038  1.0318
   15MOL    H12 3400   4.280   1.205   1.329 -0.2377 -0.9459 -1.7986
   15MOL    H13 3401   4.352   1.188   1.631 -1.1551  0.0519  2.1482
   15MOL    O14 3402   4.291   1.007   1.179 -0.4485  0.3890 -0.2880
   15MOL    C15 3403   4.295   0.921   1.063  0.7017  0.4496 -0.6810
   15MOL    C16 3404   4.234   0.790   1.108  0.2290 -0.1366  0.3806
   15MOL    C17 3405   4.207   0.976   0.949 -0.1166  0.3115  0.7464
   15MOL    C18 3406   4.244   0.919   0.813 -0.0601 -0.2525  0.1251
   15MOL    O19 3407   4.349   0.852   0.794 -0.4077  0.4730 -0.2695
   15MOL    H20 3408   4.401   0.907   1.039  1.0144  0.2458  0.7590
   15MOL    H21 3409   4.243   0.720   1.025  0.3522 -1.1025  1.2065
   15MOL    H22 3410   4.127   0.798   1.126  0.1799 -0.0645  0.0659
   15MOL    H23 3411   4.278   0.757   1.202  1.7567  1.4897  0.2601
   15MOL    H24 3412   4.224   1.083   0.945 -0.4361  0.2804 -2.5494
   15MOL    H25 3413   4.098   0.970   0.961 -0.2633 -1.1780 -1.0469
   15MOL    O26 3414   4.155   0.942   0.715  0.4264  0.2472 -0.5822
   15MOL    C27 3415   4.170   0.882   0.582  0.3069 -0.1438 -0.3088
   15MOL    C28 3416   4.118   0.741   0.579  0.3596  0.4199  0.2218
   15MOL    C29 3417   4.089   0.965   0.475 -0.3360 -0.0065  0.1333
   15MOL    C30 3418   4.165   1.094   0.440  0.4699  0.0789  0.3228
   15MOL    O31 3419   4.127   1.199   0.487 -0.3099 -0.3730  0.7285
   15MOL    H32 3420   4.277   0.873   0.562  0.4437 -0.9050  0.7208
   15MOL    H33 3421   4.024   0.730   0.634  0.3240  0.8514  0.2453
   15MOL    H34 3422   4.190   0.681   0.634  1.7969 -0.4829 -2.5506
   15MOL    H35 3423   4.112   0.698   0.479  0.7264  0.2743  0.2623
   15MOL    H36 3424   3.988   0.993   0.503 -0.3521  1.6062 -1.4839
   15MOL    H37 3425   4.094   0.907   0.383  3.0061 -2.1034  1.4959
   15MOL    O38 3426   4.265   1.082   0.353  0.2217  0.1357 -1.1718
   15MOL    C39 3427   4.360   1.180   0.346  0.0411  0.1807 -0.6294
   15MOL    C40 3428   4.478   1.147   0.447 -0.4819 -0.1968 -0.5674
   15MOL    C41 3429   4.415   1.177   0.198 -0.2209 -0.8561 -0.2048
   15MOL    C42 3430   4.302   1.214   0.094 -0.7920  0.2788  0.3246
   15MOL    O43 3431   4.307   1.325   0.039  0.0400  0.5466 -0.3649
   15MOL    H44 3432   4.324   1.282   0.359  2.4118  1.6553 -4.5610
   15MOL    H45 3433   4.507   1.043   0.433  1.4155 -0.2590  3.2335
   15MOL    H46 3434   4.435   1.149   0.547  0.5500  0.0733 -0.1306
   15MOL    H47 3435   4.567   1.209   0.438  0.0158 -0.8024  0.1436
   15MOL    H48 3436   4.442   1.074   0.177 -1.3821 -2.3256  4.7415
   15MOL    H49 3437   4.498   1.247   0.189 -0.7985  0.1047  1.6251
   15MOL    O50 3438   4.215   1.114   0.068 -0.3718 -0.2037 -0.3242
   15MOL    C51 3439   4.099   1.137   7.968 -0.8674 -0.2133  0.1444
   15MOL    C52 3440   4.133   1.057   7.841 -0.3498  0.2130  0.0971
   15MOL    C53 3441   3.968   1.105   0.059  0.1174  0.1689 -0.7438
   15MOL    C54 3442   3.846   1.085   7.946  0.1035 -1.0496 -0.1490
   15MOL    O55 3443   3.816   0.970   7.905  0.5004 -0.0786  0.8605
   15MOL    H56 3444   4.095   1.241   7.936 -0.7232 -0.0159  0.7495
   15MOL    H57 3445   4.092   1.117   7.759 -0.9449 -0.1363  0.1330
   15MOL    H58 3446   4.084   0.960   7.849  2.1730 -0.9141  2.3879
   15MOL    H59 3447   4.240   1.052   7.822 -0.7679  1.6927 -3.1859
   15MOL    H60 3448   3.942   1.174   0.139 -1.5469  1.0648 -2.0470
   15MOL    H61 3449   3.991   1.018   0.121  0.8927  0.2080 -0.9675
   15MOL    O62 3450   3.786   1.203   7.906  0.3398  0.3551  0.7664
   15MOL    C63 3451   3.680   1.196   7.805 -0.1808  0.1192  0.5674
   15MOL    C64 3452   3.559   1.279   7.844 -0.0897  0.1189  0.3899
   15MOL    C65 3453   3.751   1.231   7.676  0.5954  0.1778 -0.1885
   15MOL    C66 3454   3.668   1.208   7.546  0.2538 -0.0541 -0.1011
   15MOL    O67 3455   3.660   1.304   7.461 -0.4197 -0.3556  0.0836
   15MOL    H68 3456   3.647   1.092   7.797 -2.6604  0.9979 -0.8721
   15MOL    H69 3457   3.477   1.264   7.774 -0.1118 -0.3195  0.5100
   15MOL    H70 3458   3.591   1.384   7.850 -0.3001  0.3985 -2.6169
   15MOL    H71 3459   3.518   1.260   7.943 -2.6384 -0.1178 -0.6768
   15MOL    H72 3460   3.845   1.178   7.666  0.3883 -0.4107  0.8480
   15MOL    H73 3461   3.765   1.339   7.686 -3.0265  0.4714  2.8796
   15MOL    O74 3462   3.603   1.094   7.535 -0.7987 -0.4061  0.0324
   15MOL    C75 3463   3.508   1.074   7.432  0.2964 -0.4060  0.0577
   15MOL    C76 3464   3.576   0.987   7.329 -0.8265  0.1818 -0.1496
   15MOL    C77 3465   3.386   0.992   7.492  0.1795 -0.3156  0.5435
   15MOL    C78 3466   3.288   1.076   7.586 -0.7067 -0.3195  0.6706
   15MOL    O79 3467   3.239   1.038   7.686  0.7594 -0.6374  0.2096
   15MOL    H80 3468   3.472   1.167   7.388 -1.5196 -0.2147  1.8801
   15MOL    H81 3469   3.605   0.887   7.361  0.5914  0.6593  0.1084
   15MOL    H82 3470   3.678   1.019   7.309 -0.8404  1.2803  1.4078
   15MOL    H83 3471   3.524   0.981   7.233 -0.5734  2.8894 -0.4967
   15MOL    H84 3472   3.425   0.918   7.562 -0.2733 -0.3312  0.7794
   15MOL    H85 3473   3.327   0.950   7.411  0.6200  2.6683 -1.4132
   15MOL    O86 3474   3.256   1.196   7.538 -0.2909 -0.0727 -0.1724
   15MOL    C87 3475   3.186   1.289   7.621  0.7304  0.0037  0.1011
   15MOL    C88 3476   3.218   1.430   7.580 -0.5423 -0.8828 -0.0669
   15MOL    C89 3477   3.040   1.255   7.649 -0.0695 -0.2533  0.0531
   15MOL    C90 3478   2.954   1.272   7.532  0.5458  0.3033  0.1418
   15MOL    O91 3479   2.996   1.284   7.417  0.1016 -0.3622  0.3484
   15MOL    H92 3480   3.225   1.283   7.723  1.2281  0.9337 -0.0295
   15MOL    H93 3481   3.184   1.454   7.479 -0.3122  0.4861  0.1666
   15MOL    H94 3482   3.323   1.456   7.593 -0.9707 -0.1866  2.2855
   15MOL    H95 3483   3.158   1.495   7.645 -0.1508  2.2570 -2.7251
   15MOL    H96 3484   2.998   1.320   7.726  0.7234 -0.7701  0.9300
   15MOL    H97 3485   3.038   1.152   7.684  2.5993 -0.5340 -0.4889
   15MOL    O98 3486   2.817   1.270   7.561 -0.0180 -0.2839  0.0031
   15MOL    C99 3487   2.721   1.279   7.454  0.2218 -0.2364 -0.4779
   15MOL   C100 3488   2.611   1.172   7.460 -0.3716  0.5169 -0.5388
   15MOL   C101 3489   2.671   1.424   7.427 -0.1079 -0.8771 -0.3716
   15MOL   C102 3490   2.649   1.466   7.280  0.2416 -0.2179 -0.2772
   15MOL   O103 3491   2.727   1.437   7.190 -0.0753 -0.9072  0.4167
   15MOL   H104 3492   2.766   1.248   7.360  2.6615  3.3851 -0.5965
   15MOL   H105 3493   2.563   1.164   7.362 -3.7903 -0.0530  1.1002
   15MOL   H106 3494   2.536   1.206   7.532 -0.1740 -1.4564  0.6206
   15MOL   H107 3495   2.655   1.076   7.484  0.4976  0.2714 -2.9543
   15MOL   H108 3496   2.749   1.495   7.453 -0.1308 -1.1847  0.5389
   15MOL   H109 3497   2.597   1.455   7.501  0.6548  1.9253 -0.7401
   15MOL   O110 3498   2.530   1.531   7.267  0.9581 -0.2762  0.2739
   15MOL   C111 3499   2.483   1.577   7.136  0.0481  0.6997  0.6818
   15MOL   C112 3500   2.336   1.535   7.152  0.5412  0.2459 -0.2533
   15MOL   C113 3501   2.509   1.730   7.108  0.5629  0.0041 -0.9016
   15MOL   C114 3502   2.419   1.823   7.186 -0.9534  0.6072 -0.1484
   15MOL   O115 3503   2.469   1.894   7.276  0.1615 -0.2643  0.3744
   15MOL   H116 3504   2.528   1.510   7.063 -1.8057  0.9146 -0.6804
   15MOL   H117 3505   2.322   1.427   7.153  0.4917  0.2186 -2.1058
   15MOL   H118 3506   2.280   1.564   7.062 -0.5612 -1.2249 -0.0647
   15MOL   H119 3507   2.290   1.579   7.240  0.6544  0.1616 -0.1527
   15MOL   H120 3508   2.491   1.757   7.004 -1.5852  0.6392 -0.3732
   15MOL   H121 3509   2.616   1.749   7.115  0.7277 -0.4837 -1.9512
   15MOL   O122 3510   2.297   1.816   7.137 -0.2394 -0.4655 -0.3615
   15MOL   C123 3511   2.180   1.880   7.194  0.1525 -0.8374 -0.3309
   15MOL   C124 3512   2.175   2.025   7.145 -0.1679  0.0644 -0.1088
   15MOL   C125 3513   2.062   1.788   7.174  0.5684 -0.7192  0.4056
   15MOL   C126 3514   2.045   1.738   7.022  0.2286 -0.0198  0.3732
   15MOL   O127 3515   1.999   1.628   7.007 -0.6150  0.1340 -0.6700
   15MOL   H128 3516   2.191   1.894   7.301  0.5991  1.0718 -0.6039
   15MOL   H129 3517   2.271   2.071   7.170  0.2186 -1.5839  1.5561
   15MOL   H130 3518   2.087   2.081   7.174 -0.9629 -1.9217  1.4206
   15MOL   H131 3519   2.178   2.035   7.036  1.1768 -1.2214 -0.2141
   15MOL   H132 3520   1.972   1.844   7.199 -0.8985 -2.4286 -0.8247
   15MOL   H133 3521   2.068   1.701   7.239  2.2275 -0.0293  1.1774
   15MOL   O134 3522   2.078   1.825   6.926  0.2431 -0.0168 -0.1363
   15MOL   C135 3523   2.039   1.794   6.791 -0.2220 -0.4264  0.4683
   15MOL   C136 3524   1.900   1.844   6.756  0.0284 -0.7140  0.2771
   15MOL   C137 3525   2.137   1.861   6.696  0.9254  1.0060  0.4724
   15MOL   C138 3526   2.262   1.778   6.675  0.2072 -0.4256  0.2369
   15MOL   O139 3527   2.374   1.824   6.707  0.5974 -0.2845 -0.1273
   15MOL   H140 3528   2.048   1.687   6.770 -0.2826 -0.3853  0.2426
   15MOL   H141 3529   1.887   1.952   6.748 -0.2188 -0.8082 -0.7809
   15MOL   H142 3530   1.820   1.806   6.819 -1.9486  3.0925  0.2249
   15MOL   H143 3531   1.883   1.806   6.655  0.1110 -1.6184  0.6027
   15MOL   H144 3532   2.162   1.954   6.746 -0.9313  1.4958  0.5166
   15MOL   H145 3533   2.091   1.880   6.599 -0.2408 -1.4183  0.5158
   15MOL   O146 3534   2.237   1.664   6.608 -0.1387 -0.5595 -0.0129
   15MOL   C147 3535   2.339   1.572   6.576  0.2109  0.1839  0.1500
   15MOL   C148 3536   2.365   1.472   6.684  0.3990  0.4283 -0.3017
   15MOL   C149 3537   2.282   1.494   6.458 -0.3293 -0.6274 -0.5485
   15MOL   C150 3538   2.295   1.562   6.324  0.2460  0.7027  0.0636
   15MOL   O151 3539   2.193   1.585   6.262  0.5519  0.1003 -0.1453
   15MOL   H152 3540   2.434   1.621   6.555  0.1077  0.9335  1.3389
   15MOL   H153 3541   2.409   1.383   6.639 -2.3833 -1.7543  1.0993
   15MOL   H154 3542   2.267   1.443   6.723  0.7106 -1.0470 -0.5954
   15MOL   H155 3543   2.414   1.513   6.772 -0.5903 -0.4921  0.6979
   15MOL   H156 3544   2.175   1.471   6.458  0.3384 -4.0127  0.9412
   15MOL   H157 3545   2.324   1.393   6.461  2.9986  0.7267  0.7726
   15MOL   O158 3546   2.417   1.576   6.280 -0.5485 -0.8327  0.5760
   15MOL   C159 3547   2.437   1.628   6.144 -0.2768  0.4741 -0.4093
   15MOL   C160 3548   2.585   1.683   6.127 -0.0472 -0.0532 -0.6367
   15MOL   C161 3549   2.414   1.513   6.043  0.1711  0.5296  0.7342
   15MOL   C162 3550   2.425   1.559   5.893 -0.0340  0.0724 -0.1280
   15MOL   O163 3551   2.360   1.650   5.843  0.9326  0.2984 -0.6263
   15MOL   H164 3552   2.376   1.718   6.130  0.3120  0.7937 -0.9409
   15MOL   H165 3553   2.655   1.599   6.131  1.7986  1.4312 -1.1470
   15MOL   H166 3554   2.626   1.749   6.204 -0.5451  0.5644 -0.9023
   15MOL   H167 3555   2.608   1.729   6.031 -0.1466  0.4620 -0.4138
   15MOL   H168 3556   2.314   1.470   6.051 -0.1274  1.0904  0.0733
   15MOL   H169 3557   2.492   1.438   6.050 -0.1550  0.3010  1.9158
   15MOL   O170 3558   2.518   1.491   5.827  0.2003 -0.5577  0.3784
   15MOL   C171 3559   2.562   1.541   5.705  0.0577 -0.0180  0.4642
   15MOL   C172 3560   2.717   1.528   5.713 -0.7161 -0.5300  0.3235
   15MOL   C173 3561   2.504   1.460   5.585 -0.1594 -0.1990  0.1028
   15MOL   C174 3562   2.526   1.521   5.446 -0.4176  0.4575  0.4138
   15MOL   O175 3563   2.437   1.571   5.377  0.0742 -0.3562 -0.0645
   15MOL   H176 3564   2.542   1.648   5.701  0.6546  0.0929  0.3955
   15MOL   H177 3565   2.755   1.574   5.804 -1.4833 -1.0002  0.8857
   15MOL   H178 3566   2.775   1.566   5.629 -0.7980 -1.1243 -0.0077
   15MOL   H179 3567   2.750   1.424   5.714 -0.2645 -0.3962 -0.0044
   15MOL   H180 3568   2.396   1.459   5.602  0.1208 -0.6563  1.8869
   15MOL   H181 3569   2.529   1.355   5.595  0.2419  0.1287  2.7624
   15MOL   O182 3570   2.657   1.521   5.414 -0.4338 -0.1464 -0.1308
   15MOL   C183 3571   2.688   1.565   5.281  0.3201 -0.1809 -0.8074
   15MOL   C184 3572   2.690   1.715   5.276 -0.1613  0.0836 -0.2152
   15MOL   C185 3573   2.819   1.498   5.236 -0.2157  0.5276  0.7819
   15MOL   C186 3574   2.797   1.350   5.210 -0.1427 -0.7127 -0.1765
   15MOL   O187 3575   2.750   1.307   5.103  0.5338  0.0797 -0.0076
   15MOL   H188 3576   2.611   1.524   5.215  0.7691 -1.3991 -0.6022
   15MOL   H189 3577   2.764   1.768   5.337 -1.2254 -1.1356  2.1955
   15MOL   H190 3578   2.597   1.757   5.313  0.0397  0.2061  0.1531
   15MOL   H191 3579   2.710   1.729   5.170  1.5801 -0.6477 -0.0073
   15MOL   H192 3580   2.909   1.508   5.297  1.5885  2.8659 -2.1455
   15MOL   H193 3581   2.838   1.541   5.138 -0.1793  2.2296  1.5131
   15MOL   O194 3582   2.837   1.278   5.318  0.1375 -0.3016 -0.2010
   15MOL   C195 3583   2.802   1.144   5.333  0.6346  0.2733  0.3943
   15MOL   C196 3584   2.916   1.060   5.278 -0.1793  0.5095 -0.3248
   15MOL   C197 3585   2.770   1.121   5.485  0.6963 -0.6280 -0.5836
   15MOL   C198 3586   2.753   0.974   5.528 -0.0510 -0.1293  0.2028
   15MOL   O199 3587   2.813   0.931   5.621  0.2548  0.0543 -0.0588
   15MOL   H200 3588   2.714   1.119   5.273 -0.1268  1.5495  0.9544
   15MOL   H201 3589   3.006   1.098   5.327  0.6259 -0.7248 -0.8267
   15MOL   H202 3590   2.929   1.073   5.171 -1.6677 -0.2303 -0.6064
   15MOL   H203 3591   2.894   0.955   5.298 -0.1544  1.1134  3.1703
   15MOL   H204 3592   2.689   1.183   5.522  1.1084 -1.6537  2.1463
   15MOL   H205 3593   2.857   1.153   5.542 -1.6473  1.9903  1.6546
   15MOL   O206 3594   2.686   0.901   5.432 -0.1999 -0.5102  0.6462
   15MOL   C207 3595   2.655   0.764   5.444  0.3921 -0.9273 -0.0703
   15MOL   C208 3596   2.500   0.774   5.486  0.8544 -0.2910 -0.5244
   15MOL   C209 3597   2.693   0.679   5.317  0.7245 -0.8047 -0.0512
   15MOL   C210 3598   2.672   0.738   5.178  0.7555  0.1403  0.6582
   15MOL   O211 3599   2.604   0.843   5.165 -0.4226  0.6282  0.6324
   15MOL   H212 3600   2.724   0.738   5.524 -0.3432 -0.1825  0.8091
   15MOL   H213 3601   2.491   0.838   5.574  1.4131  1.2691 -1.5883
   15MOL   H214 3602   2.472   0.672   5.514 -0.1428 -0.2950 -1.5129
   15MOL   H215 3603   2.434   0.813   5.409  0.9003  2.4067  0.7363
   15MOL   H216 3604   2.633   0.588   5.325 -2.3998  1.0614 -1.2112
   15MOL   H217 3605   2.799   0.652   5.318  0.8572 -0.4107 -1.4699
   15MOL   O218 3606   2.710   0.657   5.071  0.2300 -0.0579  0.0169
   15MOL   C219 3607   2.692   0.699   4.939 -0.3592  0.2411 -0.4699
   15MOL   C220 3608   2.826   0.699   4.871 -0.3995 -0.5920  0.0305
   15MOL   C221 3609   2.601   0.603   4.862 -0.2988 -0.0926 -0.0986
   15MOL   C222 3610   2.455   0.628   4.900  0.3177 -0.6651 -0.1788
   15MOL   O223 3611   2.384   0.542   4.944  0.0396 -0.4065  0.8600
   15MOL   H224 3612   2.667   0.805   4.936 -1.3932 -0.0398 -3.9382
   15MOL   H225 3613   2.908   0.751   4.921 -1.8938  0.8227  1.0466
   15MOL   H226 3614   2.817   0.739   4.770  1.2857  1.1038  0.5198
   15MOL   H227 3615   2.865   0.597   4.864  0.3783 -0.3236  0.3793
   15MOL   H228 3616   2.622   0.500   4.892 -2.0185 -0.0400  1.4010
   15MOL   H229 3617   2.619   0.613   4.755 -0.7069  2.2414  0.0103
   15MOL   O230 3618   2.408   0.761   4.884 -0.5496 -1.2720 -0.1791
   15MOL   C231 3619   2.280   0.812   4.927 -0.1988  0.5231  0.2436
   15MOL   C232 3620   2.307   0.880   5.070 -0.2032  0.4221  0.7471
   15MOL   C233 3621   2.224   0.898   4.821 -0.1454 -0.2505  0.5117
   15MOL   C234 3622   2.323   0.994   4.763  0.6156 -0.0854 -0.7100
   15MOL   O235 3623   2.312   1.041   4.649 -0.0027 -0.3362 -0.1648
   15MOL   H236 3624   2.214   0.725   4.939 -0.8001  0.7723 -1.2236
   15MOL   H237 3625   2.337   0.809   5.147  0.9481  0.7344  0.5933
   15MOL   H238 3626   2.207   0.904   5.107 -0.7165  1.9084 -1.4928
   15MOL   H239 3627   2.357   0.977   5.071 -0.2891  0.5187 -2.1773
   15MOL   H240 3628   2.140   0.959   4.855 -0.5091 -1.2292  1.4090
   15MOL   H241 3629   2.182   0.837   4.740 -0.4197  0.6839 -0.0578
   15MOL   H242 3630   2.408   1.025   4.823  0.5852  0.9105 -1.1749
   16MOL     O1 3631   6.517   1.211   2.262  0.1834 -0.3970  0.1940
   16MOL     C2 3632   6.416   1.317   2.273  0.0214 -0.5872 -0.3293
   16MOL     C3 3633   6.318   1.294   2.156 -0.2989  1.1712  0.3151
   16MOL     C4 3634   6.348   1.329   2.414 -0.3720  0.8572  0.4781
   16MOL     C5 3635   6.252   1.452   2.427 -0.3440  0.1802  0.2270
   16MOL     O6 3636   6.285   1.568   2.453 -0.4343  0.1093 -0.4194
   16MOL     H7 3637   6.461   1.413   2.248 -0.7280  0.6202  2.6828
   16MOL     H8 3638   6.263   1.200   2.160  0.7641  0.4629 -1.3309
   16MOL     H9 3639   6.384   1.293   2.069  0.0291 -0.8902  0.5515
   16MOL    H10 3640   6.256   1.381   2.132 -1.0053  0.3524 -0.8801
   16MOL    H11 3641   6.421   1.349   2.492  1.3231 -0.3748 -0.7485
   16MOL    H12 3642   6.294   1.238   2.440  1.0742 -0.9162 -2.4191
   16MOL    H13 3643   6.585   1.233   2.201 -0.8058  1.8912 -0.1440
   16MOL    O14 3644   6.127   1.421   2.403 -0.0871 -0.4679  0.6509
   16MOL    C15 3645   6.030   1.519   2.410  0.0048 -0.4909  0.5214
   16MOL    C16 3646   5.929   1.466   2.314 -0.8952  0.1924 -1.0114
   16MOL    C17 3647   5.977   1.519   2.553 -0.2804 -0.2685 -0.0859
   16MOL    C18 3648   5.900   1.650   2.573  0.5459 -0.1944  0.0522
   16MOL    O19 3649   5.852   1.717   2.475 -0.5599  0.4937 -0.4038
   16MOL    H20 3650   6.055   1.617   2.370 -0.5275 -0.7482 -0.4464
   16MOL    H21 3651   5.879   1.381   2.360  2.6169 -1.2662  0.2842
   16MOL    H22 3652   5.974   1.435   2.220  1.5920  0.2684  0.1268
   16MOL    H23 3653   5.850   1.538   2.294 -0.3070  1.9085  2.4724
   16MOL    H24 3654   6.062   1.523   2.621 -0.8732  0.4763  0.6122
   16MOL    H25 3655   5.928   1.423   2.569  2.0150 -1.8436 -2.0111
   16MOL    O26 3656   5.880   1.679   2.707  0.0078  0.0407  0.3679
   16MOL    C27 3657   5.834   1.803   2.757 -0.0342 -0.0076  0.0596
   16MOL    C28 3658   5.679   1.794   2.768 -1.3092  0.0415 -0.2286
   16MOL    C29 3659   5.890   1.830   2.902 -0.7503  1.2196 -0.8341
   16MOL    C30 3660   5.891   1.980   2.921 -0.3616  0.2753  0.2215
   16MOL    O31 3661   5.828   2.032   3.008 -0.3499  0.5343 -0.4257
   16MOL    H32 3662   5.863   1.886   2.692  1.4210  0.3908  1.1813
   16MOL    H33 3663   5.640   1.762   2.671  0.5313 -0.9187 -0.6663
   16MOL    H34 3664   5.630   1.891   2.781 -1.8434 -0.3501  0.7093
   16MOL    H35 3665   5.638   1.717   2.833 -0.5911  0.8491  1.1939
   16MOL    H36 3666   5.993   1.796   2.912 -0.2720  2.6255 -0.8860
   16MOL    H37 3667   5.833   1.783   2.982  2.8281  0.8952  1.6034
   16MOL    O38 3668   5.971   2.039   2.837  0.5314 -0.3195  0.0331
   16MOL    C39 3669   5.975   2.184   2.836 -0.3421 -0.1996  0.6369
   16MOL    C40 3670   6.082   2.245   2.915  0.2905  0.5477 -0.1378
   16MOL    C41 3671   5.972   2.230   2.689  0.5487 -0.0887  0.3237
   16MOL    C42 3672   6.107   2.213   2.615  0.2206  0.1562  0.6082
   16MOL    O43 3673   6.169   2.312   2.578  0.0351 -0.3119 -0.0258
   16MOL    H44 3674   5.881   2.225   2.872 -1.3167  0.5713 -2.5757
   16MOL    H45 3675   6.181   2.205   2.893 -0.9664 -2.8274  0.0975
   16MOL    H46 3676   6.068   2.219   3.020 -0.6561  0.4970 -0.2760
   16MOL    H47 3677   6.087   2.353   2.904 -1.3797  0.6676  0.1001
   16MOL    H48 3678   5.946   2.336   2.686  0.1693 -0.2044 -0.9808
   16MOL    H49 3679   5.898   2.183   2.624 -1.3350  1.2160  1.4782
   16MOL    O50 3680   6.130   2.085   2.590 -0.1695  0.3981  0.0899
   16MOL    C51 3681   6.232   2.035   2.510 -0.1647  0.2195 -0.1293
   16MOL    C52 3682   6.302   1.926   2.598  0.0497 -0.1462 -0.9659
   16MOL    C53 3683   6.185   1.988   2.373  0.0685 -0.4018 -0.6521
   16MOL    C54 3684   6.297   1.956   2.282  0.1317  0.0171 -0.2981
   16MOL    O55 3685   6.321   1.844   2.244 -0.7735 -0.4421 -0.2966
   16MOL    H56 3686   6.308   2.112   2.498  0.6066 -0.7313 -1.4239
   16MOL    H57 3687   6.340   1.967   2.691 -0.1596 -0.2575 -0.8307
   16MOL    H58 3688   6.391   1.895   2.544  3.0880  2.9681  2.0604
   16MOL    H59 3689   6.243   1.838   2.626 -0.9062  0.6381 -0.4928
   16MOL    H60 3690   6.121   2.065   2.328  1.7302  2.3780  1.5575
   16MOL    H61 3691   6.116   1.904   2.375  1.4085 -1.5108 -1.1004
   16MOL    O62 3692   6.377   2.062   2.261 -0.5737 -0.1605  0.3009
   16MOL    C63 3693   6.510   2.037   2.212 -0.2655 -0.0773  0.3522
   16MOL    C64 3694   6.544   2.144   2.103 -0.4240 -0.0782 -0.0477
   16MOL    C65 3695   6.601   2.037   2.336 -0.1681  0.7274  0.2763
   16MOL    C66 3696   6.628   2.176   2.398  0.7296  0.5748  0.1698
   16MOL    O67 3697   6.728   2.246   2.362 -0.2973  0.4354  0.1857
   16MOL    H68 3698   6.528   1.942   2.161 -0.8474 -1.0811  1.9863
   16MOL    H69 3699   6.544   2.248   2.137 -0.1573 -0.3839  0.9195
   16MOL    H70 3700   6.474   2.137   2.020 -1.8998 -0.6927  1.2226
   16MOL    H71 3701   6.644   2.123   2.064 -0.1282  1.9040 -0.4259
   16MOL    H72 3702   6.700   2.000   2.311 -1.0187 -1.9835  0.7214
   16MOL    H73 3703   6.568   1.980   2.424 -0.0478 -0.4591 -0.4350
   16MOL    O74 3704   6.532   2.209   2.490  0.0113 -0.4937  0.0370
   16MOL    C75 3705   6.549   2.331   2.559  0.2736 -0.7933 -0.1485
   16MOL    C76 3706   6.476   2.443   2.487 -0.2453  0.0383 -0.4108
   16MOL    C77 3707   6.498   2.300   2.703  0.5275 -0.0927 -0.4674
   16MOL    C78 3708   6.526   2.394   2.822  0.3897  0.2075 -0.5786
   16MOL    O79 3709   6.604   2.487   2.815 -0.1816 -0.2671 -0.1325
   16MOL    H80 3710   6.654   2.359   2.568 -0.4213  2.0016 -0.2548
   16MOL    H81 3711   6.369   2.421   2.495 -0.8575  2.7394 -0.6116
   16MOL    H82 3712   6.499   2.439   2.380 -2.0600 -2.4855 -0.7725
   16MOL    H83 3713   6.491   2.545   2.520  0.5056  0.4160 -1.8627
   16MOL    H84 3714   6.534   2.200   2.727  2.4911  0.4164 -1.2281
   16MOL    H85 3715   6.392   2.275   2.706  0.1372  1.5798  0.7573
   16MOL    O86 3716   6.466   2.356   2.931 -0.4548 -0.4144 -0.0617
   16MOL    C87 3717   6.464   2.438   3.049  0.0168  0.4342 -0.0091
   16MOL    C88 3718   6.321   2.426   3.098 -0.3511  0.0527  0.2043
   16MOL    C89 3719   6.552   2.375   3.166  0.2132  0.8152  0.6226
   16MOL    C90 3720   6.701   2.416   3.169 -0.0132 -0.1857 -0.0573
   16MOL    O91 3721   6.761   2.426   3.279  0.2125  0.0181 -0.4591
   16MOL    H92 3722   6.483   2.544   3.037 -0.7708  0.5581 -0.2325
   16MOL    H93 3723   6.256   2.458   3.016  0.6290  1.3857 -0.0530
   16MOL    H94 3724   6.322   2.490   3.185  0.8432  1.4981 -0.8570
   16MOL    H95 3725   6.285   2.330   3.136 -0.8847 -0.7800 -2.2720
   16MOL    H96 3726   6.540   2.267   3.168  1.5662  0.6577  0.7682
   16MOL    H97 3727   6.515   2.400   3.266  3.7958  1.6825  1.8190
   16MOL    O98 3728   6.766   2.425   3.053  0.0706  0.1333 -0.1177
   16MOL    C99 3729   6.907   2.438   3.042 -0.1562  0.1599  0.6182
   16MOL   C100 3730   6.957   2.335   2.940 -0.2135  0.7991 -0.2316
   16MOL   C101 3731   6.927   2.584   3.018 -0.0185 -0.2780  0.4342
   16MOL   C102 3732   7.068   2.650   3.035  0.0984 -0.2933  0.4879
   16MOL   O103 3733   7.169   2.577   3.065  0.4189 -0.0984 -0.0049
   16MOL   H104 3734   6.957   2.416   3.136  2.0718  0.5571 -0.4321
   16MOL   H105 3735   7.065   2.351   2.940 -0.0370 -0.2694 -2.0268
   16MOL   H106 3736   6.926   2.367   2.840  2.3437  0.6000 -1.1187
   16MOL   H107 3737   6.932   2.229   2.939  1.3799  0.4134 -0.6715
   16MOL   H108 3738   6.862   2.630   3.092  1.9139  1.2947  1.1929
   16MOL   H109 3739   6.877   2.614   2.927 -0.0873  1.3952  1.0044
   16MOL   O110 3740   7.078   2.784   3.002  0.3025 -0.2005 -0.2637
   16MOL   C111 3741   7.198   2.853   3.022 -0.2067  0.5576 -1.1373
   16MOL   C112 3742   7.187   2.983   2.940 -0.4291  0.6143 -0.0957
   16MOL   C113 3743   7.222   2.876   3.172 -0.3096 -0.5476 -0.5391
   16MOL   C114 3744   7.358   2.937   3.223 -0.2836 -0.3464  0.0006
   16MOL   O115 3745   7.362   2.991   3.334  0.1291  0.3524 -0.5021
   16MOL   H116 3746   7.279   2.792   2.981 -0.4744  0.5714 -1.7037
   16MOL   H117 3747   7.214   2.959   2.837  0.0794  0.2439  0.1166
   16MOL   H118 3748   7.266   3.048   2.979 -0.1913 -0.7257  1.7299
   16MOL   H119 3749   7.094   3.038   2.949 -0.5837  0.4373 -0.6046
   16MOL   H120 3750   7.225   2.788   3.237 -0.6195  0.7707  1.2775
   16MOL   H121 3751   7.137   2.930   3.212  0.6390  0.1192  0.5984
   16MOL   O122 3752   7.460   2.913   3.139  0.4292  0.0332 -0.2546
   16MOL   C123 3753   7.590   2.951   3.176  0.0699 -0.0562  0.0308
   16MOL   C124 3754   7.689   2.837   3.156 -0.6899 -0.2318  0.4646
   16MOL   C125 3755   7.618   3.070   3.087 -0.2290  0.2195 -0.3464
   16MOL   C126 3756   7.738   3.150   3.133 -0.5168  0.8915 -0.8207
   16MOL   O127 3757   7.790   3.136   3.247 -0.2029  0.0451  0.2832
   16MOL   H128 3758   7.595   2.965   3.284  0.5849 -0.6112  0.0840
   16MOL   H129 3759   7.781   2.865   3.207 -0.7617  1.4045 -0.2667
   16MOL   H130 3760   7.714   2.827   3.051 -3.2025 -1.3892 -0.0553
   16MOL   H131 3761   7.660   2.739   3.195 -1.0478 -0.0343  0.6976
   16MOL   H132 3762   7.544   3.149   3.099 -0.4048  0.0982 -0.6246
   16MOL   H133 3763   7.627   3.046   2.981  0.6440  3.1988 -1.0223
   16MOL   O134 3764   7.770   3.236   3.038  0.2961  0.4282  0.1644
   16MOL   C135 3765   7.880   3.322   3.066  0.3840  0.5364 -0.1021
   16MOL   C136 3766   7.964   3.339   2.939  0.6198 -0.3641 -0.7964
   16MOL   C137 3767   7.817   3.460   3.112  0.7366 -0.5058  0.5992
   16MOL   C138 3768   7.930   3.556   3.154 -0.6690  0.2642 -0.6154
   16MOL   O139 3769   0.027   3.525   3.247  0.4471  0.7271 -0.1361
   16MOL   H140 3770   7.952   3.294   3.143  0.6965 -0.4340 -0.7392
   16MOL   H141 3771   0.067   3.402   2.971 -0.2902 -1.1742  3.4362
   16MOL   H142 3772   7.905   3.380   2.857 -2.3039 -0.2179  1.2933
   16MOL   H143 3773   0.027   3.242   2.912  0.4962 -0.8482  0.6869
   16MOL   H144 3774   7.758   3.454   3.203  2.0517  1.8782  1.6683
   16MOL   H145 3775   7.755   3.501   3.033  0.2563  0.1407  1.3115
   16MOL   O146 3776   7.953   3.651   3.065 -0.2411  0.3734 -0.6560
   16MOL   C147 3777   0.091   3.727   3.062 -1.0607  0.1077 -0.3989
   16MOL   C148 3778   0.199   3.659   2.978 -0.3124  0.1054  0.6440
   16MOL   C149 3779   0.062   3.875   3.027  0.2424 -0.3322 -0.2028
   16MOL   C150 3780   0.032   3.963   3.153  0.3077  0.0638  0.4840
   16MOL   O151 3781   0.069   3.931   3.266  0.3584  0.4292  0.2808
   16MOL   H152 3782   0.140   3.724   3.159 -1.0367  0.9667 -0.3835
   16MOL   H153 3783   0.150   3.641   2.883 -1.1142  0.1752  1.0429
   16MOL   H154 3784   0.242   3.573   3.031  0.0456 -0.7191 -0.9590
   16MOL   H155 3785   0.281   3.730   2.962 -0.2524 -0.0773  0.1484
   16MOL   H156 3786   7.953   3.871   2.964  1.1434  1.1503 -1.6171
   16MOL   H157 3787   0.144   3.918   2.969 -0.9773  0.9974 -0.9431
   16MOL   O158 3788   7.928   4.064   3.130  0.1843  0.1880 -0.3691
   16MOL   C159 3789   7.881   4.154   3.233 -0.7430 -0.0000  0.3784
   16MOL   C160 3790   7.921   4.295   3.204  0.2834 -0.3741 -0.0087
   16MOL   C161 3791   7.724   4.149   3.221 -0.3760  0.2620  0.2108
   16MOL   C162 3792   7.666   4.008   3.247 -0.0125  0.7178  0.2659
   16MOL   O163 3793   7.639   3.938   3.151  1.0356  0.0832  0.0966
   16MOL   H164 3794   7.912   4.121   3.332 -3.0539 -2.2278  0.4154
   16MOL   H165 3795   7.858   4.369   3.252  0.5610  0.2034 -0.5264
   16MOL   H166 3796   7.912   4.331   3.102  0.7875  1.6318  0.6404
   16MOL   H167 3797   0.048   4.307   3.222  0.9252 -0.8961 -3.1569
   16MOL   H168 3798   7.696   4.188   3.123  1.5477 -1.2319 -0.9872
   16MOL   H169 3799   7.680   4.220   3.291 -0.0415 -1.4103  2.1489
   16MOL   O170 3800   7.644   3.977   3.373 -0.6236  0.0041  0.1094
   16MOL   C171 3801   7.588   3.850   3.404 -0.0124  0.5590  0.1178
   16MOL   C172 3802   7.698   3.747   3.429  0.5847 -0.4798 -0.0317
   16MOL   C173 3803   7.506   3.878   3.534  0.2476 -0.5017  0.2867
   16MOL   C174 3804   7.366   3.946   3.506 -0.0408  0.5592  0.3108
   16MOL   O175 3805   7.275   3.873   3.464 -0.6955 -0.0006 -0.3648
   16MOL   H176 3806   7.528   3.810   3.323  0.7334  0.9331 -0.6343
   16MOL   H177 3807   7.663   3.653   3.471  0.7667 -0.9970 -1.0309
   16MOL   H178 3808   7.773   3.782   3.499  1.9554  1.4575 -2.3945
   16MOL   H179 3809   7.743   3.716   3.335  0.8993  0.0669 -0.0626
   16MOL   H180 3810   7.573   3.933   3.599  0.5595  0.1533 -0.5796
   16MOL   H181 3811   7.470   3.784   3.576  0.7795 -1.7880 -2.0342
   16MOL   O182 3812   7.359   4.076   3.539  0.3761 -0.4738 -0.3111
   16MOL   C183 3813   7.238   4.144   3.527 -0.1398 -0.1227 -0.8120
   16MOL   C184 3814   7.229   4.260   3.631  0.4115  0.0633  0.1138
   16MOL   C185 3815   7.201   4.192   3.379  0.7480  0.0592  0.0085
   16MOL   C186 3816   7.287   4.302   3.312 -0.0997 -0.7233 -0.4651
   16MOL   O187 3817   7.361   4.282   3.216 -0.6039 -0.1155  0.0247
   16MOL   H188 3818   7.160   4.073   3.552 -0.2544 -0.6217 -2.4707
   16MOL   H189 3819   7.212   4.217   3.730 -0.4205 -0.0684 -0.0856
   16MOL   H190 3820   7.150   4.333   3.612 -1.2658 -2.1568 -1.7179
   16MOL   H191 3821   7.324   4.313   3.627  1.4990 -1.7455  1.3174
   16MOL   H192 3822   7.109   4.248   3.398 -0.7355 -2.1340 -0.5146
   16MOL   H193 3823   7.183   4.108   3.311 -0.1084 -1.1416  1.6648
   16MOL   O194 3824   7.272   4.422   3.372 -0.2309  0.0681 -0.8994
   16MOL   C195 3825   7.324   4.544   3.323 -1.1240 -0.9214  0.3930
   16MOL   C196 3826   7.219   4.657   3.337  0.0250  0.2340  0.2648
   16MOL   C197 3827   7.466   4.575   3.373  0.4949  0.9679  0.1188
   16MOL   C198 3828   7.474   4.645   3.513 -0.2116 -0.4345  0.0168
   16MOL   O199 3829   7.540   4.754   3.535  0.0024  0.2123 -0.2656
   16MOL   H200 3830   7.330   4.523   3.216 -0.1520  2.5828 -0.3161
   16MOL   H201 3831   7.188   4.682   3.438  1.6707  0.5369  0.7171
   16MOL   H202 3832   7.130   4.623   3.285 -0.1156  0.3520  0.4288
   16MOL   H203 3833   7.261   4.748   3.295  1.5153  0.7927  2.8557
   16MOL   H204 3834   7.527   4.631   3.303  0.4183  0.4010 -0.4138
   16MOL   H205 3835   7.514   4.477   3.363 -2.0187 -0.4007  0.9504
   16MOL   O206 3836   7.426   4.569   3.611  0.1212 -0.1496  0.1329
   16MOL   C207 3837   7.406   4.622   3.741  0.1465  0.0567  0.7665
   16MOL   C208 3838   7.261   4.601   3.785 -0.5480  0.6067  0.1099
   16MOL   C209 3839   7.518   4.567   3.831  0.6364 -0.1045  0.6549
   16MOL   C210 3840   7.574   4.673   3.922  0.3722 -0.4445  0.0703
   16MOL   O211 3841   7.542   4.685   4.041 -0.1413 -0.1963  0.0776
   16MOL   H212 3842   7.400   4.730   3.741  0.0132  0.0602 -0.3502
   16MOL   H213 3843   7.247   4.500   3.823 -1.0215  1.1253  1.3431
   16MOL   H214 3844   7.183   4.620   3.711  0.9945  0.3358 -1.6232
   16MOL   H215 3845   7.243   4.670   3.868 -0.1910 -1.4839  1.9716
   16MOL   H216 3846   7.598   4.530   3.767  0.5864  1.0706 -0.1143
   16MOL   H217 3847   7.491   4.483   3.894 -2.5191  0.6683  0.4578
   16MOL   O218 3848   7.657   4.756   3.855 -0.3880  0.5412  0.0219
   16MOL   C219 3849   7.724   4.869   3.909  0.0175 -0.5451 -0.7545
   16MOL   C220 3850   7.821   4.825   4.019  0.3554 -0.3396 -0.2977
   16MOL   C221 3851   7.782   4.953   3.796  0.2591 -0.0576 -0.2410
   16MOL   C222 3852   7.814   5.098   3.837 -0.1803 -0.3097 -0.3305
   16MOL   O223 3853   7.734   5.194   3.830 -0.1039 -0.3150  0.0970
   16MOL   H224 3854   7.648   4.921   3.968 -0.7925 -1.9192 -0.5741
   16MOL   H225 3855   7.868   4.905   4.076  0.9344 -0.0436 -1.1820
   16MOL   H226 3856   7.899   4.762   3.976  1.1766  0.6314 -0.2434
   16MOL   H227 3857   7.768   4.757   4.086  1.2490 -1.2942 -0.5401
   16MOL   H228 3858   7.714   4.972   3.713  0.7433  2.3322 -0.1385
   16MOL   H229 3859   7.866   4.902   3.749  0.7244 -1.5946  2.1662
   16MOL   O230 3860   7.948   5.117   3.875 -0.3644 -0.2952 -0.0149
   16MOL   C231 3861   0.008   5.240   3.926 -0.2017  0.4003 -0.3514
   16MOL   C232 3862   0.046   5.219   4.076 -0.1095 -0.5770 -0.7522
   16MOL   C233 3863   0.129   5.288   3.841 -1.2900 -0.0823  0.6795
   16MOL   C234 3864   0.091   5.409   3.758  0.4093  0.7451 -0.4294
   16MOL   O235 3865   0.041   5.391   3.645 -0.0792  0.2583  0.1064
   16MOL   H236 3866   7.913   5.319   3.916  0.9793  1.5465 -0.3455
   16MOL   H237 3867   0.037   5.314   4.128  0.6749 -1.0050  0.1662
   16MOL   H238 3868   0.142   5.172   4.096  0.6326  1.1546 -0.2060
   16MOL   H239 3869   7.954   5.150   4.120  1.1327 -1.1784  0.3497
   16MOL   H240 3870   0.189   5.217   3.785  0.9485  1.3658  1.1937
   16MOL   H241 3871   0.209   5.326   3.904 -0.8174  2.1691 -1.2175
   16MOL   H242 3872   0.098   5.508   3.801 -0.4826  0.5563  0.1628
   17MOL     O1 3873   7.066   2.192   4.409 -0.4149  0.4744 -0.0981
   17MOL     C2 3874   7.073   2.054   4.409  0.5605  0.2982  0.7009
   17MOL     C3 3875   7.023   2.002   4.550 -0.2908  0.1767  0.2964
   17MOL     C4 3876   6.979   1.997   4.303  0.1074 -0.2998  0.0811
   17MOL     C5 3877   7.001   2.020   4.154 -0.2203 -0.3090  0.1070
   17MOL     O6 3878   7.112   2.022   4.106 -0.0126 -0.2403 -0.3079
   17MOL     H7 3879   7.176   2.022   4.395  0.0884 -0.8806 -0.1856
   17MOL     H8 3880   7.103   2.028   4.620  1.1136  1.9368 -1.8657
   17MOL     H9 3881   7.032   1.893   4.551  3.8446  0.4290 -0.1121
   17MOL    H10 3882   6.924   2.037   4.576 -1.6585 -3.9396  1.0680
   17MOL    H11 3883   6.889   2.047   4.339  0.7855  0.4354  0.7903
   17MOL    H12 3884   6.982   1.891   4.326  2.6922 -0.4264 -0.7297
   17MOL    H13 3885   6.978   2.223   4.423 -0.7026 -0.9314  1.3119
   17MOL    O14 3886   6.882   2.033   4.087  0.6334 -0.2940 -0.2417
   17MOL    C15 3887   6.885   2.065   3.945  0.6888 -0.4154  0.1278
   17MOL    C16 3888   6.925   1.937   3.866  0.5184  0.3160  0.6152
   17MOL    C17 3889   6.757   2.131   3.893 -0.9613 -0.2432  0.0344
   17MOL    C18 3890   6.720   2.252   3.967  0.2066 -0.8435  0.1836
   17MOL    O19 3891   6.611   2.257   4.015 -0.6127 -0.5904 -0.4623
   17MOL    H20 3892   6.967   2.135   3.932  1.2723 -0.6250  2.5021
   17MOL    H21 3893   6.936   1.961   3.760  0.0843 -0.4457  0.3992
   17MOL    H22 3894   6.844   1.865   3.864 -0.3015  1.2351  0.3480
   17MOL    H23 3895   7.020   1.895   3.899 -0.0233 -1.5839 -0.2055
   17MOL    H24 3896   6.671   2.067   3.875 -1.1266  0.2721 -1.0346
   17MOL    H25 3897   6.785   2.176   3.797 -0.7374 -0.9455 -0.2371
   17MOL    O26 3898   6.811   2.354   3.966 -0.5503 -0.2779  0.3470
   17MOL    C27 3899   6.778   2.472   4.042 -0.1752  0.0961  0.7602
   17MOL    C28 3900   6.876   2.469   4.162  0.0069 -0.3025  0.3094
   17MOL    C29 3901   6.789   2.595   3.952 -0.3864 -0.2973  0.2687
   17MOL    C30 3902   6.663   2.617   3.867  0.0606 -0.7421  0.6759
   17MOL    O31 3903   6.559   2.656   3.923  0.2611  0.0236  0.2338
   17MOL    H32 3904   6.679   2.472   4.087 -0.5266  0.6015 -0.0006
   17MOL    H33 3905   6.860   2.556   4.225 -0.7048 -1.0328  1.1528
   17MOL    H34 3906   6.983   2.462   4.140 -0.9979 -1.2911 -5.0514
   17MOL    H35 3907   6.848   2.376   4.212 -3.3886  1.0688  1.0835
   17MOL    H36 3908   6.874   2.571   3.889  0.8563  1.3138  1.2827
   17MOL    H37 3909   6.810   2.682   4.015 -0.6133  0.0698 -0.1545
   17MOL    O38 3910   6.668   2.569   3.743 -0.8664 -0.7933  0.5535
   17MOL    C39 3911   6.553   2.566   3.663 -0.2892  0.1677 -0.1716
   17MOL    C40 3912   6.600   2.609   3.523  0.2545  1.2409  0.1093
   17MOL    C41 3913   6.481   2.428   3.667  0.0571  0.4738  0.0564
   17MOL    C42 3914   6.364   2.411   3.570 -0.3859  0.3899  0.1695
   17MOL    O43 3915   6.375   2.328   3.481  0.3243  0.7093  0.2210
   17MOL    H44 3916   6.493   2.652   3.691  0.8990  0.3141  2.0269
   17MOL    H45 3917   6.641   2.709   3.514  2.6589  0.3137  0.4929
   17MOL    H46 3918   6.512   2.596   3.460  0.4010  0.2404  0.1077
   17MOL    H47 3919   6.671   2.533   3.490  0.0219  0.1911  1.9324
   17MOL    H48 3920   6.434   2.419   3.765 -0.4236 -2.3993 -0.4054
   17MOL    H49 3921   6.554   2.347   3.657 -0.1895  0.2470  0.0860
   17MOL    O50 3922   6.268   2.499   3.587 -1.2538 -0.1330  0.0493
   17MOL    C51 3923   6.155   2.489   3.505 -0.5148  0.7446  0.0885
   17MOL    C52 3924   6.056   2.398   3.571  0.1492 -0.3355  0.0002
   17MOL    C53 3925   6.101   2.625   3.468  1.0071 -0.2169  0.4069
   17MOL    C54 3926   6.015   2.636   3.339 -0.8680  0.2033 -0.1404
   17MOL    O55 3927   6.045   2.717   3.250  0.9813 -0.3614  0.1507
   17MOL    H56 3928   6.180   2.445   3.408  1.1146  0.2003  0.7506
   17MOL    H57 3929   6.103   2.310   3.616 -1.1275  0.4646  3.0042
   17MOL    H58 3930   5.985   2.360   3.497  0.0528  0.2936 -0.2382
   17MOL    H59 3931   5.994   2.450   3.643  1.2854  0.7465  0.2049
   17MOL    H60 3932   6.182   2.698   3.462 -0.3915  1.3146 -0.2554
   17MOL    H61 3933   6.031   2.673   3.536 -1.1209  1.2732 -2.7045
   17MOL    O62 3934   5.916   2.557   3.332 -0.6048  0.1206 -0.3993
   17MOL    C63 3935   5.823   2.554   3.220  0.2611  0.0185 -0.5196
   17MOL    C64 3936   5.888   2.457   3.122  0.2450 -0.0065 -0.4103
   17MOL    C65 3937   5.678   2.520   3.254  0.2774 -0.2363  0.0939
   17MOL    C66 3938   5.600   2.635   3.319 -0.2852 -0.2501  0.2179
   17MOL    O67 3939   5.659   2.724   3.377 -0.4929 -0.1816 -0.1442
   17MOL    H68 3940   5.835   2.655   3.179 -1.2755  1.2638  1.9847
   17MOL    H69 3941   5.839   2.459   3.024 -0.2855  2.5606 -0.1316
   17MOL    H70 3942   5.877   2.358   3.166 -1.5087 -0.1657 -1.1656
   17MOL    H71 3943   5.995   2.472   3.111  0.6141 -0.2476  2.4944
   17MOL    H72 3944   5.666   2.431   3.316 -2.4653 -1.2066 -1.7487
   17MOL    H73 3945   5.614   2.497   3.169 -2.8846  2.2445  1.7058
   17MOL    O74 3946   5.465   2.611   3.312  0.5168  0.0525  0.1906
   17MOL    C75 3947   5.370   2.710   3.348  0.0117  0.4983  0.0536
   17MOL    C76 3948   5.291   2.744   3.219 -0.7200 -0.6448  0.2640
   17MOL    C77 3949   5.273   2.654   3.460 -0.0892 -0.3325 -0.3402
   17MOL    C78 3950   5.333   2.648   3.600 -0.2428 -0.1388  0.1192
   17MOL    O79 3951   5.272   2.683   3.702  0.0052  0.3230  0.4252
   17MOL    H80 3952   5.423   2.797   3.387  1.4403 -0.6772  0.7900
   17MOL    H81 3953   5.233   2.660   3.182  1.9416 -0.9303 -3.5594
   17MOL    H82 3954   5.358   2.756   3.134  1.4399 -1.0077  1.8769
   17MOL    H83 3955   5.227   2.831   3.229 -1.6843 -1.3385  0.2360
   17MOL    H84 3956   5.236   2.558   3.426  0.6569 -0.2468 -1.4338
   17MOL    H85 3957   5.187   2.718   3.484 -1.5190 -1.4756 -2.3576
   17MOL    O86 3958   5.456   2.593   3.597  0.4302  0.8284 -0.0764
   17MOL    C87 3959   5.533   2.578   3.715 -0.1624  0.7372 -0.8372
   17MOL    C88 3960   5.590   2.439   3.695  0.2610 -0.0313  0.0276
   17MOL    C89 3961   5.646   2.677   3.723 -0.3741 -0.5172 -0.9142
   17MOL    C90 3962   5.711   2.660   3.861 -0.1940  0.1016 -0.0852
   17MOL    O91 3963   5.820   2.602   3.866  0.0260 -0.3298 -0.2449
   17MOL    H92 3964   5.472   2.576   3.806 -0.4220 -1.2578 -1.0312
   17MOL    H93 3965   5.651   2.411   3.780 -1.3511  1.6913  1.7831
   17MOL    H94 3966   5.647   2.438   3.602  1.3387 -0.7269  0.6997
   17MOL    H95 3967   5.504   2.372   3.689  0.6714 -0.4439 -1.8042
   17MOL    H96 3968   5.615   2.782   3.725  1.0368 -0.0763 -1.6088
   17MOL    H97 3969   5.709   2.679   3.635 -0.8914  0.0622 -1.2727
   17MOL    O98 3970   5.641   2.712   3.963 -0.5967 -0.0558 -0.1727
   17MOL    C99 3971   5.707   2.703   4.091  0.4845  0.9035 -0.4531
   17MOL   C100 3972   5.692   2.841   4.156 -0.5880 -0.5115 -0.0318
   17MOL   C101 3973   5.632   2.591   4.169  0.2956 -0.0863 -0.0015
   17MOL   C102 3974   5.487   2.623   4.227  0.4925  0.0022  0.1212
   17MOL   O103 3975   5.448   2.581   4.338 -0.3930 -0.1378 -0.1867
   17MOL   H104 3976   5.813   2.689   4.073  0.5105 -1.6408  1.4516
   17MOL   H105 3977   5.755   2.911   4.100 -3.1176  0.7407 -1.4229
   17MOL   H106 3978   5.720   2.832   4.260 -1.2099 -1.6686  0.0403
   17MOL   H107 3979   5.587   2.871   4.145  0.0233  1.1237 -1.7351
   17MOL   H108 3980   5.688   2.560   4.258 -3.1891 -0.6699  2.0873
   17MOL   H109 3981   5.624   2.503   4.105  2.3929  1.1163 -1.9846
   17MOL   O110 3982   5.414   2.693   4.142 -0.5328 -0.1290 -0.3835
   17MOL   C111 3983   5.283   2.739   4.161  0.9192 -0.1600  0.6010
   17MOL   C112 3984   5.279   2.883   4.206  0.1004 -0.1619 -0.0652
   17MOL   C113 3985   5.222   2.724   4.019  0.8476  0.1445 -0.3071
   17MOL   C114 3986   5.075   2.758   4.026  0.0305  0.2694  0.0311
   17MOL   O115 3987   4.996   2.678   4.076  0.1750  0.0635 -0.1386
   17MOL   H116 3988   5.242   2.665   4.230  0.2444 -2.0952 -1.7908
   17MOL   H117 3989   5.332   2.958   4.147 -0.1649  0.6015  0.6482
   17MOL   H118 3990   5.318   2.903   4.305  0.6696 -1.1026 -0.0955
   17MOL   H119 3991   5.173   2.909   4.212  0.5928  2.3259 -1.2963
   17MOL   H120 3992   5.241   2.624   3.979  0.3110  1.0420 -2.9302
   17MOL   H121 3993   5.272   2.790   3.948  0.5950 -0.2471 -0.8593
   17MOL   O122 3994   5.054   2.874   3.971  0.1838  0.2391  0.2158
   17MOL   C123 3995   4.928   2.922   3.933  0.3577 -0.8405  0.0535
   17MOL   C124 3996   4.934   3.074   3.921 -0.5203 -0.0621 -0.1887
   17MOL   C125 3997   4.878   2.850   3.803 -0.2085  0.0148  0.2614
   17MOL   C126 3998   4.739   2.901   3.749  1.0711  0.3586  0.2820
   17MOL   O127 3999   4.660   2.955   3.815 -0.0013  0.1612 -0.4174
   17MOL   H128 4000   4.845   2.900   4.000 -1.1017  0.0847 -1.4120
   17MOL   H129 4001   4.833   3.115   3.925 -0.7403 -0.5883 -0.2263
   17MOL   H130 4002   4.980   3.111   3.829 -1.6511  0.2617 -0.6357
   17MOL   H131 4003   4.982   3.098   4.015 -2.0579 -1.0467  0.8688
   17MOL   H132 4004   4.870   2.742   3.808  0.3990 -0.0493 -0.1305
   17MOL   H133 4005   4.950   2.861   3.722 -0.8689  0.3454 -0.2844
   17MOL   O134 4006   4.706   2.844   3.634 -0.2984  0.2196  0.1039
   17MOL   C135 4007   4.590   2.883   3.550  0.0821 -0.0880  0.2818
   17MOL   C136 4008   4.628   2.873   3.405 -0.0286  0.0382 -0.0221
   17MOL   C137 4009   4.474   2.789   3.581 -0.0233 -0.7502  1.3038
   17MOL   C138 4010   4.384   2.841   3.690 -0.3831 -0.3900  0.4459
   17MOL   O139 4011   4.350   2.777   3.790  0.0156  0.2442 -0.0932
   17MOL   H140 4012   4.560   2.985   3.573  0.9934  0.0438  0.9037
   17MOL   H141 4013   4.686   2.953   3.359 -0.7833 -0.6257 -2.2087
   17MOL   H142 4014   4.543   2.864   3.337 -0.0809 -1.2433  0.1943
   17MOL   H143 4015   4.693   2.787   3.389  0.0691  0.0286  0.4257
   17MOL   H144 4016   4.518   2.691   3.603  2.1379 -0.4004 -1.2107
   17MOL   H145 4017   4.399   2.778   3.502  0.7000 -0.5217  0.5727
   17MOL   O146 4018   4.325   2.959   3.653 -0.1996 -0.2673 -0.1363
   17MOL   C147 4019   4.270   3.041   3.749 -0.2240  0.5181  0.0609
   17MOL   C148 4020   4.362   3.165   3.774 -1.2510 -0.2733  0.1129
   17MOL   C149 4021   4.128   3.076   3.702 -0.0492  0.0464  0.4807
   17MOL   C150 4022   4.024   2.964   3.722  0.0968  0.8419 -0.1286
   17MOL   O151 4023   3.967   2.953   3.828  0.0885 -0.1728  0.2273
   17MOL   H152 4024   4.261   2.997   3.849  0.8583  1.1808  0.4546
   17MOL   H153 4025   4.442   3.129   3.840 -2.0581 -1.4239  0.4799
   17MOL   H154 4026   4.323   3.250   3.829 -1.4426  0.7390 -1.5603
   17MOL   H155 4027   4.416   3.213   3.692  0.8661  1.0034  2.1800
   17MOL   H156 4028   4.113   3.114   3.600  1.7158 -0.8172 -0.1162
   17MOL   H157 4029   4.095   3.156   3.768 -0.0704  0.0136  0.5097
   17MOL   O158 4030   4.019   2.872   3.625  0.1230 -0.2044  0.2999
   17MOL   C159 4031   3.923   2.768   3.628 -0.1949  0.3303  0.0252
   17MOL   C160 4032   3.791   2.808   3.559  0.3826  0.4108  0.1721
   17MOL   C161 4033   3.990   2.636   3.558 -0.4732 -0.3781  0.0401
   17MOL   C162 4034   3.898   2.525   3.535  1.0090  0.1687  0.6571
   17MOL   O163 4035   3.848   2.513   3.420 -0.2071  0.2936  0.2370
   17MOL   H164 4036   3.899   2.733   3.729  0.2923  1.5543  0.5725
   17MOL   H165 4037   3.808   2.822   3.452  1.6808  0.3972  0.3653
   17MOL   H166 4038   3.742   2.895   3.602  0.2804 -0.8217  2.6285
   17MOL   H167 4039   3.724   2.724   3.580 -1.1105  1.6461  0.4263
   17MOL   H168 4040   4.072   2.596   3.619  0.9513 -2.2249 -2.9739
   17MOL   H169 4041   4.033   2.640   3.458 -0.9590 -0.9129 -0.1953
   17MOL   O170 4042   3.879   2.456   3.650  0.0430 -0.4400  0.3115
   17MOL   C171 4043   3.794   2.345   3.648  0.3862  0.2696  0.0255
   17MOL   C172 4044   3.867   2.226   3.707 -0.0696 -0.1363  0.5163
   17MOL   C173 4045   3.660   2.374   3.716  0.8980 -0.2899  0.4801
   17MOL   C174 4046   3.561   2.445   3.622 -0.2696 -0.3351  0.4969
   17MOL   O175 4047   3.537   2.563   3.620 -0.0252  0.2775 -0.0938
   17MOL   H176 4048   3.772   2.310   3.547 -2.1372 -0.4535  0.7889
   17MOL   H177 4049   3.819   2.132   3.680 -1.8881  0.8775  0.2142
   17MOL   H178 4050   3.861   2.227   3.815 -1.9310 -0.4880  0.4257
   17MOL   H179 4051   3.972   2.227   3.676 -0.2978 -0.5031 -0.2923
   17MOL   H180 4052   3.689   2.432   3.803  0.1641  0.0502  0.5074
   17MOL   H181 4053   3.601   2.285   3.736 -0.0487  0.1598 -0.1946
   17MOL   O182 4054   3.489   2.353   3.550  0.3425 -0.1127  0.0427
   17MOL   C183 4055   3.388   2.398   3.460 -0.4613  0.0209 -0.4498
   17MOL   C184 4056   3.456   2.417   3.329 -0.2949 -1.0084  0.1420
   17MOL   C185 4057   3.271   2.299   3.474 -0.0862 -0.0784  0.4643
   17MOL   C186 4058   3.201   2.293   3.609 -0.6183  0.1957  0.0839
   17MOL   O187 4059   3.088   2.340   3.619  0.1447 -0.3488  0.0407
   17MOL   H188 4060   3.346   2.493   3.492  1.5036  1.1020 -0.9651
   17MOL   H189 4061   3.547   2.475   3.337  0.5864 -2.3923  0.2724
   17MOL   H190 4062   3.396   2.472   3.256  0.8406 -1.6487 -1.2924
   17MOL   H191 4063   3.493   2.327   3.280  1.3553  0.0733 -0.6683
   17MOL   H192 4064   3.296   2.199   3.440  2.0031  0.6819 -0.3292
   17MOL   H193 4065   3.200   2.331   3.398  0.9152  1.5043  0.1625
   17MOL   O194 4066   3.274   2.231   3.709 -0.1708  0.3432  0.4031
   17MOL   C195 4067   3.216   2.197   3.831 -0.0307 -0.0942  0.5438
   17MOL   C196 4068   3.187   2.047   3.825  0.3070 -0.1091  0.3543
   17MOL   C197 4069   3.323   2.219   3.937  0.8189  0.4605 -0.0987
   17MOL   C198 4070   3.355   2.370   3.950 -0.5003  0.4128  0.1187
   17MOL   O199 4071   3.470   2.413   3.972  0.3022  1.0767  0.4468
   17MOL   H200 4072   3.127   2.258   3.848 -0.9302 -0.9567 -0.9710
   17MOL   H201 4073   3.136   2.028   3.731  3.1742  0.1895 -1.3396
   17MOL   H202 4074   3.143   1.999   3.912  0.0782  3.3076  2.2185
   17MOL   H203 4075   3.280   1.991   3.813  0.1550 -1.4842  4.6349
   17MOL   H204 4076   3.413   2.163   3.910 -0.4454 -0.7609 -1.8875
   17MOL   H205 4077   3.303   2.181   4.038 -1.7208  2.0643  0.0384
   17MOL   O206 4078   3.246   2.445   3.953 -0.0143  0.1897  0.2426
   17MOL   C207 4079   3.255   2.589   3.971  0.4689  0.7066  0.1773
   17MOL   C208 4080   3.217   2.641   3.834  0.1528 -0.7828 -0.8785
   17MOL   C209 4081   3.155   2.647   4.074 -0.2207 -0.4015 -0.3737
   17MOL   C210 4082   3.209   2.619   4.214  0.0591  0.2677  0.0808
   17MOL   O211 4083   3.309   2.679   4.263 -0.2105  0.2015 -0.0277
   17MOL   H212 4084   3.357   2.616   3.999  0.7541 -0.4116  0.2081
   17MOL   H213 4085   3.121   2.595   3.811 -0.5258 -2.7327  4.9998
   17MOL   H214 4086   3.293   2.622   3.759  1.0547 -5.3210  0.9737
   17MOL   H215 4087   3.198   2.748   3.839  2.8020 -0.3598  1.7679
   17MOL   H216 4088   3.053   2.609   4.068 -0.9236  1.6247 -1.6791
   17MOL   H217 4089   3.155   2.756   4.064 -0.6640 -0.3188  0.4544
   17MOL   O218 4090   3.146   2.516   4.270  0.3439  0.1554 -0.4324
   17MOL   C219 4091   3.150   2.504   4.415  0.9036  0.1860 -0.4480
   17MOL   C220 4092   2.998   2.508   4.448 -0.4181 -0.4650  0.1081
   17MOL   C221 4093   3.214   2.372   4.452  0.1091 -0.3237  0.4204
   17MOL   C222 4094   3.362   2.358   4.427 -0.5892 -0.0765 -0.3779
   17MOL   O223 4095   3.405   2.255   4.375  0.2830  0.0680 -0.1846
   17MOL   H224 4096   3.197   2.587   4.467  0.6062 -0.8234  1.4580
   17MOL   H225 4097   2.952   2.579   4.379  1.7782  1.7349  0.8447
   17MOL   H226 4098   2.982   2.553   4.546  0.7044  2.4644 -0.9965
   17MOL   H227 4099   2.944   2.413   4.446  2.9198 -2.4561  1.4496
   17MOL   H228 4100   3.174   2.286   4.399 -0.8254 -0.8372  1.9113
   17MOL   H229 4101   3.187   2.351   4.556  0.2830  1.1500  0.7879
   17MOL   O230 4102   3.429   2.467   4.457  0.6045  0.3302 -0.5606
   17MOL   C231 4103   3.567   2.482   4.433 -0.9182 -1.3939 -0.4744
   17MOL   C232 4104   3.605   2.622   4.384 -0.0158  0.5382 -0.2395
   17MOL   C233 4105   3.633   2.429   4.565  0.8211  0.1879 -0.0698
   17MOL   C234 4106   3.777   2.388   4.556  0.1723  0.0199  0.5396
   17MOL   O235 4107   3.847   2.375   4.657  0.4527 -0.0208  0.2123
   17MOL   H236 4108   3.603   2.426   4.347 -0.2695 -1.3631 -0.2248
   17MOL   H237 4109   3.557   2.639   4.287  1.2531 -0.5074 -1.0638
   17MOL   H238 4110   3.710   2.629   4.356  0.4927 -0.4412  1.3861
   17MOL   H239 4111   3.579   2.700   4.456 -2.4549  0.1611 -0.6615
   17MOL   H240 4112   3.580   2.338   4.596  0.4365  0.3291 -0.3052
   17MOL   H241 4113   3.632   2.490   4.655  0.4120 -0.1702  0.1744
   17MOL   H242 4114   3.808   2.359   4.455 -0.7089 -0.1409  0.3111
   18MOL     O1 4115   0.462   4.798   7.609 -0.0477  0.0628  1.1062
   18MOL     C2 4116   0.509   4.920   7.546 -0.6113 -0.4932  0.9691
   18MOL     C3 4117   0.412   4.970   7.438  0.1001  0.0704 -0.5213
   18MOL     C4 4118   0.538   5.029   7.653  0.0267  0.1899  1.0372
   18MOL     C5 4119   0.678   5.044   7.704 -0.3493 -0.1874  0.1311
   18MOL     O6 4120   0.786   5.030   7.642 -0.1826 -0.0263 -0.4165
   18MOL     H7 4121   0.598   4.893   7.489 -0.7318  0.6954  0.2058
   18MOL     H8 4122   0.365   4.888   7.383  1.2993 -1.5204  0.7844
   18MOL     H9 4123   0.467   5.036   7.371  1.2595 -1.6669 -1.3119
   18MOL    H10 4124   0.330   5.018   7.491  0.7766  2.7570 -1.8292
   18MOL    H11 4125   0.467   5.026   7.735  0.1764 -0.5491  1.1378
   18MOL    H12 4126   0.516   5.131   7.620  0.4359  0.1018  0.4861
   18MOL    H13 4127   0.487   4.726   7.553  2.9758  0.2468  2.0989
   18MOL    O14 4128   0.684   5.096   7.831 -0.1433  0.3412  0.5036
   18MOL    C15 4129   0.808   5.126   7.896  0.3741  0.6963  0.4850
   18MOL    C16 4130   0.781   5.265   7.950 -0.9167  0.0955 -0.2102
   18MOL    C17 4131   0.831   5.017   0.024 -0.0159  0.0855  0.6603
   18MOL    C18 4132   0.968   5.026   0.095  0.3511 -0.4391  0.4660
   18MOL    O19 4133   1.061   4.962   0.050  0.1601 -0.0924 -0.2462
   18MOL    H20 4134   0.889   5.124   7.823 -1.0534  2.2746 -1.2281
   18MOL    H21 4135   0.759   5.342   7.877 -1.5986 -2.3076 -2.6282
   18MOL    H22 4136   0.862   5.301   0.033 -0.6946  1.5886 -1.3417
   18MOL    H23 4137   0.694   5.254   0.036  0.1211  0.3823  1.2381
   18MOL    H24 4138   0.816   4.917   7.963 -1.1395  0.0491  1.1302
   18MOL    H25 4139   0.748   5.015   0.095 -1.5326  0.3981 -1.0627
   18MOL    O26 4140   0.974   5.104   0.201  0.1134  0.8208  0.8481
   18MOL    C27 4141   1.095   5.124   0.278 -0.1034 -0.6326 -1.2830
   18MOL    C28 4142   1.165   5.251   0.231 -0.1787  0.3960 -0.4224
   18MOL    C29 4143   1.059   5.125   0.432  0.2792  0.2395  0.4817
   18MOL    C30 4144   1.016   4.989   0.494 -0.7386 -0.2062  0.1962
   18MOL    O31 4145   1.100   4.911   0.545 -0.1867  0.1049 -0.3032
   18MOL    H32 4146   1.174   5.051   0.266  2.2418  1.7449 -0.6933
   18MOL    H33 4147   1.094   5.334   0.235 -0.8982 -0.2804  1.4197
   18MOL    H34 4148   1.198   5.235   0.129  0.5941  2.4061 -0.5059
   18MOL    H35 4149   1.248   5.287   0.293 -0.8493  0.2096  0.6058
   18MOL    H36 4150   0.973   5.188   0.449 -0.2553 -0.8779  1.9941
   18MOL    H37 4151   1.144   5.168   0.485  0.0742 -1.6885  2.4680
   18MOL    O38 4152   0.886   4.955   0.468  0.5844 -0.1163 -0.1304
   18MOL    C39 4153   0.826   4.828   0.506  0.2910 -0.1810 -0.4097
   18MOL    C40 4154   0.752   4.856   0.635 -0.3377  0.4306  0.0513
   18MOL    C41 4155   0.728   4.791   0.389  0.0942  0.6146  0.8198
   18MOL    C42 4156   0.794   4.741   0.264  0.2880  0.1040 -0.0913
   18MOL    O43 4157   0.733   4.736   0.157  0.3031 -0.3241  0.3914
   18MOL    H44 4158   0.914   4.763   0.509 -0.1219 -0.7660 -0.8646
   18MOL    H45 4159   0.676   4.934   0.625 -0.5549  0.1973 -0.1161
   18MOL    H46 4160   0.816   4.877   0.720 -0.8615  1.5710  0.1874
   18MOL    H47 4161   0.713   4.757   0.657  3.1813 -0.7540  1.2437
   18MOL    H48 4162   0.671   4.877   0.354  0.5811  0.5615 -0.1118
   18MOL    H49 4163   0.650   4.716   0.407  0.1619  0.6440  1.2427
   18MOL    O50 4164   0.920   4.700   0.281 -0.1110  0.1745 -0.5350
   18MOL    C51 4165   0.988   4.655   0.171  0.1896  1.0321  0.5311
   18MOL    C52 4166   1.140   4.668   0.198 -0.3807  0.2761  0.0694
   18MOL    C53 4167   0.948   4.512   0.128  0.5691 -0.3347  0.4184
   18MOL    C54 4168   0.964   4.406   0.235  0.8103 -0.0099  0.8000
   18MOL    O55 4169   0.885   4.394   0.325 -0.3776 -0.0324 -0.5269
   18MOL    H56 4170   0.963   4.714   0.082 -2.4010 -0.1945  0.4136
   18MOL    H57 4171   1.168   4.639   0.300 -2.6853 -0.8800  0.4146
   18MOL    H58 4172   1.168   4.773   0.186 -0.2673  0.4614  1.8327
   18MOL    H59 4173   1.194   4.607   0.125 -2.3762  0.9249 -1.9799
   18MOL    H60 4174   1.014   4.474   0.050  0.7306 -1.6144  1.1836
   18MOL    H61 4175   0.848   4.516   0.082  1.5420  3.2375 -1.5954
   18MOL    O62 4176   1.075   4.338   0.216 -0.3301  0.4572  0.3394
   18MOL    C63 4177   1.109   4.234   0.305  0.8857 -0.0159 -0.1903
   18MOL    C64 4178   1.101   4.105   0.213  0.3896  0.2621  0.1264
   18MOL    C65 4179   1.245   4.252   0.372  0.2922  0.0258 -0.8566
   18MOL    C66 4180   1.372   4.252   0.292  0.7833 -0.0371 -0.5244
   18MOL    O67 4181   1.432   4.148   0.283 -0.4775 -0.1015 -0.0992
   18MOL    H68 4182   1.031   4.224   0.380 -1.9377  0.5293 -2.9692
   18MOL    H69 4183   1.132   4.012   0.260 -1.0434 -1.0080 -1.4261
   18MOL    H70 4184   1.165   4.104   0.125  0.0935  0.8422 -0.0991
   18MOL    H71 4185   0.998   4.096   0.179  0.5894 -0.1404 -0.3833
   18MOL    H72 4186   1.248   4.172   0.446  2.3099  0.5770 -0.3145
   18MOL    H73 4187   1.248   4.350   0.421  1.2486 -1.5138  2.2936
   18MOL    O74 4188   1.392   4.371   0.214  0.4208 -0.1730 -0.4528
   18MOL    C75 4189   1.487   4.380   0.104  0.2415  0.0494 -0.0775
   18MOL    C76 4190   1.462   4.514   0.029 -1.1552 -0.2079  0.3486
   18MOL    C77 4191   1.633   4.351   0.148  0.4806  0.3380 -0.3837
   18MOL    C78 4192   1.724   4.303   0.030 -0.5830 -0.1372 -0.4629
   18MOL    O79 4193   1.687   4.294   7.893 -0.4398  0.3609 -0.6066
   18MOL    H80 4194   1.457   4.303   0.033 -3.5902  2.0980 -0.7993
   18MOL    H81 4195   1.533   4.528   7.927 -2.0537 -0.2844 -0.4593
   18MOL    H82 4196   1.470   4.598   0.098  0.0029  1.0283 -1.2312
   18MOL    H83 4197   1.367   4.517   7.955 -0.2548 -0.5359 -1.3072
   18MOL    H84 4198   1.632   4.269   0.220 -0.6077  1.5195  0.9826
   18MOL    H85 4199   1.676   4.433   0.204  0.0789 -0.7152  1.5319
   18MOL    O86 4200   1.848   4.273   0.069  0.1610 -0.4555 -0.3476
   18MOL    C87 4201   1.946   4.227   7.958  0.1720  0.7024  0.8838
   18MOL    C88 4202   2.008   4.358   7.905  0.2924 -0.2200 -0.2516
   18MOL    C89 4203   2.049   4.147   0.068  0.1435  0.7115 -0.3497
   18MOL    C90 4204   2.165   4.074   7.975  0.3593 -0.4202 -0.3537
   18MOL    O91 4205   2.178   4.059   7.854 -0.2187  0.2909  0.3070
   18MOL    H92 4206   1.905   4.164   7.880  0.7301  1.2770  0.1221
   18MOL    H93 4207   2.057   4.413   0.006 -0.8607 -0.2327  0.4668
   18MOL    H94 4208   1.949   4.432   7.851 -0.3986 -0.1454  0.5908
   18MOL    H95 4209   2.090   4.328   7.840  0.9890 -0.2023  0.6094
   18MOL    H96 4210   1.997   4.067   0.122 -0.6749  1.0282 -0.6586
   18MOL    H97 4211   2.094   4.213   0.142 -2.4726  0.3001  1.6847
   18MOL    O98 4212   2.253   4.033   0.087 -0.0060 -0.2328  0.1856
   18MOL    C99 4213   2.383   3.987   0.053  0.3960  0.0338  0.3476
   18MOL   C100 4214   2.496   4.029   0.146  0.9705 -0.0239  0.1609
   18MOL   C101 4215   2.378   3.842   0.000 -0.2158  0.4470  0.8083
   18MOL   C102 4216   2.332   3.730   0.099 -0.2382 -0.3578  0.3260
   18MOL   O103 4217   2.266   3.759   0.200  0.2487 -1.0867  0.1710
   18MOL   H104 4218   2.403   4.043   7.942 -1.0414  0.6754  0.4140
   18MOL   H105 4219   2.500   3.957   0.228  0.5282 -0.1302  0.0894
   18MOL   H106 4220   2.476   4.131   0.182  1.7447  1.4206 -3.3354
   18MOL   H107 4221   2.593   4.035   0.096  1.5731  3.5708  1.5846
   18MOL   H108 4222   2.473   3.799   7.947  0.1398  1.6067  0.2964
   18MOL   H109 4223   2.320   3.841   7.888  1.4634  0.7962 -0.2701
   18MOL   O110 4224   2.374   3.607   0.064  0.2166  0.6086  0.0516
   18MOL   C111 4225   2.344   3.498   0.153  0.2575  0.5279 -0.5079
   18MOL   C112 4226   2.296   3.385   0.058  0.6083 -0.4418  0.2813
   18MOL   C113 4227   2.469   3.458   0.238 -0.6592  0.2424  0.0404
   18MOL   C114 4228   2.433   3.354   0.344 -0.2046  0.0911  0.2936
   18MOL   O115 4229   2.427   3.391   0.463 -0.0929 -0.4058  0.3427
   18MOL   H116 4230   2.265   3.531   0.221  0.2647  0.7351 -0.5993
   18MOL   H117 4231   2.223   3.424   7.967  1.5795  0.7822 -0.0759
   18MOL   H118 4232   2.256   3.295   0.104 -1.2994  1.4073  2.3459
   18MOL   H119 4233   2.383   3.351   0.001  1.4358 -1.5354  2.1343
   18MOL   H120 4234   2.520   3.545   0.279  0.1201  0.1246 -0.6596
   18MOL   H121 4235   2.546   3.410   0.177  1.4896  1.4874  1.7283
   18MOL   O122 4236   2.416   3.226   0.303  0.1804 -0.2105  0.1804
   18MOL   C123 4237   2.394   3.125   0.405 -0.6338 -0.5685 -0.1006
   18MOL   C124 4238   2.262   3.051   0.352  0.8899  0.0669  1.1458
   18MOL   C125 4239   2.514   3.036   0.417 -0.2873  0.3728 -0.5696
   18MOL   C126 4240   2.606   3.077   0.536 -0.0629  0.5644 -0.6655
   18MOL   O127 4241   2.715   3.130   0.515  0.4378  0.3698  0.1332
   18MOL   H128 4242   2.374   3.171   0.502  0.3427  0.3662 -0.3398
   18MOL   H129 4243   2.219   2.979   0.422  2.8412 -2.2209  0.0581
   18MOL   H130 4244   2.291   2.998   0.261  2.1172  0.0573  1.5371
   18MOL   H131 4245   2.197   3.130   0.313  1.3038  0.7357  1.8094
   18MOL   H132 4246   2.559   3.006   0.323 -2.9403 -1.8449 -1.1747
   18MOL   H133 4247   2.470   2.940   0.442 -1.4545  0.2968 -2.7660
   18MOL   O134 4248   2.562   3.036   0.653  0.0211 -0.2477 -0.4449
   18MOL   C135 4249   2.633   3.048   0.775 -0.1615 -0.1164 -0.7506
   18MOL   C136 4250   2.618   3.186   0.838  0.1581  0.2590  0.1396
   18MOL   C137 4251   2.586   2.942   0.880 -0.6331  0.0282 -0.1186
   18MOL   C138 4252   2.676   2.920   0.999 -0.1797 -1.1068  0.3266
   18MOL   O139 4253   2.735   2.816   1.001 -0.0703 -0.2367  0.6271
   18MOL   H140 4254   2.735   3.017   0.754  0.3473 -1.6896  3.6761
   18MOL   H141 4255   2.677   3.192   0.929 -2.3792 -0.0854  1.8475
   18MOL   H142 4256   2.514   3.211   0.857  0.5549  1.4438  0.7779
   18MOL   H143 4257   2.662   3.250   0.761 -1.5593  0.4003 -0.7367
   18MOL   H144 4258   2.579   2.844   0.833 -1.6278 -0.3587  0.8147
   18MOL   H145 4259   2.488   2.961   0.924  0.3355  0.8633  1.7655
   18MOL   O146 4260   2.682   3.018   1.085  0.3752  0.2976 -0.7618
   18MOL   C147 4261   2.729   2.991   1.223  0.1692  0.3656 -0.0064
   18MOL   C148 4262   2.768   3.124   1.279  0.5427 -0.0560 -0.2547
   18MOL   C149 4263   2.637   2.903   1.308  0.3791  0.0484  0.3795
   18MOL   C150 4264   2.494   2.957   1.313  0.6909  0.3073 -0.6275
   18MOL   O151 4265   2.458   3.010   1.415 -0.3126 -0.0834 -0.0589
   18MOL   H152 4266   2.815   2.925   1.211  0.2798  0.7245 -1.3021
   18MOL   H153 4267   2.836   3.107   1.363 -0.4854  0.1366  0.6322
   18MOL   H154 4268   2.682   3.183   1.312 -1.2369 -1.4808 -2.2290
   18MOL   H155 4269   2.824   3.178   1.203  0.1914  0.3419 -0.2328
   18MOL   H156 4270   2.679   2.879   1.405  2.6241  0.5163 -0.4394
   18MOL   H157 4271   2.630   2.800   1.273 -1.2307 -0.1374  1.1724
   18MOL   O158 4272   2.413   2.934   1.206  0.2227 -0.1532 -0.1043
   18MOL   C159 4273   2.278   2.971   1.216  0.0745 -0.0532 -0.0074
   18MOL   C160 4274   2.258   3.113   1.173 -0.4950  0.4802 -0.1967
   18MOL   C161 4275   2.189   2.872   1.140  0.2222  0.7889  0.5553
   18MOL   C162 4276   2.163   2.746   1.219  0.2717 -0.0484  0.6210
   18MOL   O163 4277   2.109   2.765   1.329  0.6214  0.2018  0.2998
   18MOL   H164 4278   2.256   2.962   1.322  0.6614  1.3635  0.2370
   18MOL   H165 4279   2.330   3.183   1.214 -0.2075  0.3676 -0.5094
   18MOL   H166 4280   2.160   3.140   1.213 -0.1202 -0.9970  1.8079
   18MOL   H167 4281   2.256   3.123   1.064 -2.3460 -2.5253 -0.4999
   18MOL   H168 4282   2.243   2.842   1.050 -1.2057  1.3118 -0.4860
   18MOL   H169 4283   2.098   2.924   1.109 -0.3065  0.6784  1.8609
   18MOL   O170 4284   2.218   2.636   1.177  0.7774  0.4095 -0.1008
   18MOL   C171 4285   2.153   2.515   1.221  0.2718 -0.6524  0.4985
   18MOL   C172 4286   2.080   2.449   1.105  0.6987  0.5818 -0.1178
   18MOL   C173 4287   2.242   2.424   1.314  0.0404  0.5846 -0.0510
   18MOL   C174 4288   2.354   2.346   1.244  0.1080  0.0035  0.5961
   18MOL   O175 4289   2.360   2.227   1.256  0.5952  0.7299 -0.0160
   18MOL   H176 4290   2.069   2.539   1.286  1.1133  1.6376  0.7915
   18MOL   H177 4291   2.156   2.421   1.033 -0.0345 -1.6100 -0.0611
   18MOL   H178 4292   2.000   2.508   1.058  0.0142 -0.5287 -0.3742
   18MOL   H179 4293   2.041   2.357   1.148 -3.2312  1.7909 -0.7992
   18MOL   H180 4294   2.184   2.354   1.374 -0.1778  1.6075  0.9480
   18MOL   H181 4295   2.296   2.482   1.389  0.4730 -2.4374  2.0299
   18MOL   O182 4296   2.438   2.435   1.183 -0.0657  0.2303 -0.3752
   18MOL   C183 4297   2.565   2.379   1.135 -0.1767  0.5077  0.0043
   18MOL   C184 4298   2.539   2.305   1.002 -0.3387  0.1067 -0.1164
   18MOL   C185 4299   2.675   2.487   1.126 -0.3598  0.1872  0.2447
   18MOL   C186 4300   2.814   2.430   1.099 -0.6714 -0.0576 -0.3902
   18MOL   O187 4301   2.878   2.479   1.011  0.4539 -0.1434  0.1773
   18MOL   H188 4302   2.603   2.302   1.202 -1.1318 -1.2767 -1.4677
   18MOL   H189 4303   2.518   2.378   0.925 -0.1832  0.5772  0.2867
   18MOL   H190 4304   2.468   2.224   1.023  2.4022 -1.1608  5.3732
   18MOL   H191 4305   2.637   2.270   0.971 -0.3060  1.7598 -1.9606
   18MOL   H192 4306   2.680   2.541   1.221 -0.5719 -2.5672  1.8712
   18MOL   H193 4307   2.632   2.561   1.059 -0.9498 -0.0202  0.3898
   18MOL   O194 4308   2.852   2.316   1.171 -0.0905 -0.3978 -0.5750
   18MOL   C195 4309   2.973   2.238   1.126 -0.0610  0.2812 -0.8582
   18MOL   C196 4310   3.085   2.279   1.219 -0.0017 -0.2117 -0.1138
   18MOL   C197 4311   2.949   2.091   1.140 -0.4040  0.1295 -0.7585
   18MOL   C198 4312   2.849   2.026   1.040 -0.6560 -0.0993  0.3217
   18MOL   O199 4313   2.807   2.081   0.935 -0.0632  0.0574  0.4226
   18MOL   H200 4314   2.988   2.263   1.021 -1.1817  1.5638 -0.7338
   18MOL   H201 4315   3.181   2.251   1.178 -0.5010  1.0491 -2.2567
   18MOL   H202 4316   3.089   2.234   1.318  1.4494 -0.4127 -0.2616
   18MOL   H203 4317   3.081   2.385   1.243  0.5196 -0.2061 -0.0538
   18MOL   H204 4318   2.918   2.065   1.242  1.2058 -1.4444 -0.6311
   18MOL   H205 4319   3.049   2.051   1.124  0.3876  0.6489  2.4577
   18MOL   O206 4320   2.797   1.919   1.096  0.2509 -0.2867  0.0720
   18MOL   C207 4321   2.679   1.856   1.051  0.3078 -0.2364  0.0989
   18MOL   C208 4322   2.692   1.709   1.088 -0.3973  0.6660  0.1618
   18MOL   C209 4323   2.558   1.926   1.107 -0.1875 -0.5499 -0.3894
   18MOL   C210 4324   2.521   1.924   1.253 -0.7540  0.0704  0.6624
   18MOL   O211 4325   2.570   2.007   1.329 -0.3423  0.1287 -0.0769
   18MOL   H212 4326   2.683   1.863   0.942  0.0324 -0.2360  0.0889
   18MOL   H213 4327   2.615   1.639   1.055 -0.5492  1.0040 -0.2054
   18MOL   H214 4328   2.694   1.690   1.195  1.0264 -0.1392  0.0116
   18MOL   H215 4329   2.784   1.660   1.054  0.5426  0.0221  3.4557
   18MOL   H216 4330   2.478   1.873   1.055 -0.6539  1.1456 -1.4313
   18MOL   H217 4331   2.555   2.032   1.083  0.3528  0.1039  2.2323
   18MOL   O218 4332   2.433   1.835   1.283  0.1237  0.4934  0.2220
   18MOL   C219 4333   2.367   1.837   1.410 -0.7077 -0.3503  0.0689
   18MOL   C220 4334   2.219   1.830   1.367  0.1134 -0.0551 -0.7408
   18MOL   C221 4335   2.410   1.714   1.487 -0.5386  0.3268 -0.5570
   18MOL   C222 4336   2.471   1.751   1.619  0.2218  0.1161  1.1382
   18MOL   O223 4337   2.595   1.757   1.623 -0.1289  0.3831 -0.1945
   18MOL   H224 4338   2.393   1.930   1.462 -0.0918 -0.8341  0.6442
   18MOL   H225 4339   2.202   1.734   1.319  1.6169 -0.6001 -0.2060
   18MOL   H226 4340   2.186   1.895   1.286 -0.2148 -0.1521 -0.6861
   18MOL   H227 4341   2.140   1.822   1.442  1.1130  0.0335  0.3423
   18MOL   H228 4342   2.497   1.667   1.440  1.8341  2.1716  1.8605
   18MOL   H229 4343   2.322   1.651   1.503 -0.5343  0.8353  1.5041
   18MOL   O230 4344   2.380   1.771   1.717 -0.2322 -0.0374 -0.7228
   18MOL   C231 4345   2.419   1.811   1.852 -0.1120 -0.2275  0.5571
   18MOL   C232 4346   2.392   1.952   1.873 -0.5917  0.0619 -0.1282
   18MOL   C233 4347   2.363   1.714   1.952  0.4167 -0.5095  0.1146
   18MOL   C234 4348   2.401   1.572   1.917 -0.1441  0.2684  0.5670
   18MOL   O235 4349   2.515   1.533   1.889 -0.2521 -0.1466  0.9769
   18MOL   H236 4350   2.527   1.798   1.858  0.3461  3.4525  1.9889
   18MOL   H237 4351   2.393   2.003   1.777  2.3340  1.3661  0.5278
   18MOL   H238 4352   2.461   2.006   1.939  0.4417 -1.4302  0.0307
   18MOL   H239 4353   2.290   1.972   1.906 -0.4860  1.7667 -0.7498
   18MOL   H240 4354   2.256   1.714   1.969  0.8121 -0.0381  2.8066
   18MOL   H241 4355   2.422   1.745   2.039  3.0224  0.6060 -1.9679
   18MOL   H242 4356   2.311   1.510   1.919 -0.6428  0.9293 -0.9359
   19MOL     O1 4357   4.676   7.885   4.086 -0.2144  0.6778  0.5563
   19MOL     C2 4358   4.600   7.804   4.163 -0.3266 -0.3317 -0.2177
   19MOL     C3 4359   4.451   7.840   4.130 -0.6648  0.7547 -0.6348
   19MOL     C4 4360   4.641   7.664   4.120 -0.1569 -0.3869 -0.6640
   19MOL     C5 4361   4.589   7.553   4.216  0.3606 -0.2210  0.0516
   19MOL     O6 4362   4.549   7.579   4.327  0.0358 -0.1141 -0.5537
   19MOL     H7 4363   4.623   7.813   4.269  2.7992 -3.0902 -0.5938
   19MOL     H8 4364   4.449   7.945   4.159 -0.4723  0.2575  1.2268
   19MOL     H9 4365   4.379   7.798   4.200 -1.1798  2.9559  0.2209
   19MOL    H10 4366   4.424   7.828   4.025 -0.5068 -1.0750 -0.4737
   19MOL    H11 4367   4.749   7.653   4.106  0.1944  1.4727  0.4209
   19MOL    H12 4368   4.602   7.645   4.020 -1.6866 -1.8955  0.1950
   19MOL    H13 4369   4.770   7.877   4.094 -0.3041 -0.1959  0.7542
   19MOL    O14 4370   4.620   7.433   4.171  0.0464  0.0463 -0.0748
   19MOL    C15 4371   4.588   7.316   4.253  0.8332  0.1673 -0.3090
   19MOL    C16 4372   4.459   7.253   4.200 -0.2353  0.5248 -0.1932
   19MOL    C17 4373   4.708   7.225   4.236  0.3166  1.2918 -0.7773
   19MOL    C18 4374   4.706   7.113   4.338 -0.4014 -0.0983  0.1105
   19MOL    O19 4375   4.719   7.147   4.456 -0.9735  0.1880 -0.2931
   19MOL    H20 4376   4.586   7.342   4.359  1.3364  0.6839 -0.4236
   19MOL    H21 4377   4.436   7.187   4.284 -0.4342  0.1295 -0.5534
   19MOL    H22 4378   4.464   7.190   4.111  2.5493  0.4515 -0.0191
   19MOL    H23 4379   4.379   7.327   4.197 -0.6835  0.3254  3.5976
   19MOL    H24 4380   4.797   7.283   4.257  0.1867  1.3237 -0.3154
   19MOL    H25 4381   4.726   7.187   4.135 -0.8650 -1.2727 -0.0899
   19MOL    O26 4382   4.643   6.992   4.293 -0.4546  0.8526  0.3332
   19MOL    C27 4383   4.644   6.867   4.374  0.3409 -0.0836 -0.4171
   19MOL    C28 4384   4.506   6.873   4.443  0.6272 -0.0341  0.2444
   19MOL    C29 4385   4.666   6.750   4.281  1.0118 -0.7066  0.3078
   19MOL    C30 4386   4.603   6.615   4.323  0.5957  0.3439  0.1907
   19MOL    O31 4387   4.484   6.595   4.291 -0.2535  0.3229  0.6411
   19MOL    H32 4388   4.718   6.868   4.455  1.7166 -1.0418 -1.6484
   19MOL    H33 4389   4.488   6.971   4.486  0.9714 -0.2667  0.9342
   19MOL    H34 4390   4.480   6.792   4.512 -0.9685 -0.5465 -0.9273
   19MOL    H35 4391   4.422   6.857   4.375 -1.1771  1.3375  2.0732
   19MOL    H36 4392   4.772   6.731   4.260  0.9207  1.1709 -2.1187
   19MOL    H37 4393   4.640   6.773   4.178  0.0696  1.3233  0.9872
   19MOL    O38 4394   4.680   6.534   4.396  0.1554 -0.2007  0.0510
   19MOL    C39 4395   4.618   6.409   4.432 -0.6959 -0.4327  0.1311
   19MOL    C40 4396   4.684   6.290   4.356 -0.6884 -0.0129 -0.0369
   19MOL    C41 4397   4.641   6.399   4.582  0.3432 -0.2828  0.4022
   19MOL    C42 4398   4.551   6.493   4.658  0.3060  0.3911 -0.0472
   19MOL    O43 4399   4.590   6.580   4.733  0.0890  0.3572 -0.1740
   19MOL    H44 4400   4.511   6.399   4.413 -0.5166 -0.5527 -0.8482
   19MOL    H45 4401   4.790   6.281   4.378 -0.9221 -0.2362  1.0442
   19MOL    H46 4402   4.670   6.296   4.248  0.2957 -1.7129 -0.2732
   19MOL    H47 4403   4.628   6.204   4.393  0.1641 -0.7908 -0.5557
   19MOL    H48 4404   4.742   6.434   4.601  1.2680 -2.6088 -0.0475
   19MOL    H49 4405   4.631   6.292   4.604 -0.3866  0.1045  2.0061
   19MOL    O50 4406   4.425   6.467   4.630 -0.1035  0.6547  0.0112
   19MOL    C51 4407   4.325   6.551   4.681  0.5448 -0.2821  0.2043
   19MOL    C52 4408   4.246   6.590   4.551 -0.0304 -0.2086  0.0077
   19MOL    C53 4409   4.261   6.462   4.797 -0.0154 -0.4074  0.0889
   19MOL    C54 4410   4.148   6.536   4.871  0.0996 -0.5873 -0.6376
   19MOL    O55 4411   4.147   6.656   4.896  0.2096  0.3435 -0.2968
   19MOL    H56 4412   4.352   6.649   4.721  0.5336  0.2458 -1.0625
   19MOL    H57 4413   4.200   6.510   4.493 -1.3585  1.4419 -1.2739
   19MOL    H58 4414   4.303   6.650   4.480  0.8303  1.4814  2.0764
   19MOL    H59 4415   4.163   6.656   4.578  0.2710  0.0214  0.3732
   19MOL    H60 4416   4.343   6.432   4.863  0.2248 -2.9138 -1.3037
   19MOL    H61 4417   4.220   6.374   4.746  2.6766 -0.0259 -2.8669
   19MOL    O62 4418   4.045   6.455   4.907  0.1087 -0.0130 -0.2623
   19MOL    C63 4419   3.927   6.500   4.963  0.5824  0.0985 -0.3333
   19MOL    C64 4420   3.829   6.377   4.941 -0.7721  0.2863 -0.0181
   19MOL    C65 4421   3.944   6.526   5.118  0.0448 -0.9919  0.2862
   19MOL    C66 4422   3.838   6.617   5.173  0.7513  0.4266 -0.6424
   19MOL    O67 4423   3.736   6.656   5.111 -0.3006 -0.7049 -0.3881
   19MOL    H68 4424   3.891   6.588   4.911 -0.1673 -0.4383 -0.7392
   19MOL    H69 4425   3.735   6.400   4.992 -1.3271  1.3997 -1.4929
   19MOL    H70 4426   3.863   6.285   4.988 -1.0775  0.7455  1.1357
   19MOL    H71 4427   3.820   6.349   4.837 -1.4109  1.0592 -0.1768
   19MOL    H72 4428   4.035   6.581   5.141  0.4739 -0.6621 -2.0967
   19MOL    H73 4429   3.944   6.429   5.168 -1.7697 -2.2683 -2.0947
   19MOL    O74 4430   3.870   6.657   5.301 -0.5946 -0.3922  0.7438
   19MOL    C75 4431   3.785   6.748   5.372  0.7770 -0.0909  0.1371
   19MOL    C76 4432   3.753   6.680   5.503 -0.4154  0.2834 -0.4033
   19MOL    C77 4433   3.866   6.876   5.393 -0.4896 -0.3262 -0.2421
   19MOL    C78 4434   3.782   6.998   5.449 -0.5235 -0.0651 -0.1311
   19MOL    O79 4435   3.661   7.015   5.427 -0.1302  0.0613 -0.0262
   19MOL    H80 4436   3.691   6.777   5.324  0.1267  0.3005  1.6193
   19MOL    H81 4437   3.707   6.584   5.484  4.2883 -1.6675 -2.6422
   19MOL    H82 4438   3.692   6.750   5.561  1.1552  0.8390  0.6251
   19MOL    H83 4439   3.841   6.666   5.566  1.1061 -0.7149 -2.6853
   19MOL    H84 4440   3.925   6.891   5.303  0.1239 -1.0373  0.0399
   19MOL    H85 4441   3.936   6.849   5.472 -0.3955  0.4970 -0.0336
   19MOL    O86 4442   3.855   7.081   5.525  0.3209  0.1248  0.4116
   19MOL    C87 4443   3.804   7.201   5.579  0.7701  0.0423 -0.0607
   19MOL    C88 4444   3.857   7.198   5.720  0.4739  0.0680  0.3359
   19MOL    C89 4445   3.856   7.318   5.492 -0.4823  0.5339 -0.6857
   19MOL    C90 4446   3.830   7.459   5.548  0.2847  1.3487 -0.0891
   19MOL    O91 4447   3.923   7.534   5.585  0.3092 -0.0547  0.6796
   19MOL    H92 4448   3.696   7.201   5.593  0.7570  1.3371 -0.1501
   19MOL    H93 4449   3.830   7.104   5.768  2.6312 -0.5387  0.4171
   19MOL    H94 4450   3.812   7.279   5.777 -0.5056  0.1995 -0.6049
   19MOL    H95 4451   3.966   7.204   5.716  0.6219 -2.8099 -0.6068
   19MOL    H96 4452   3.816   7.304   5.392  0.1803 -0.4020 -0.8290
   19MOL    H97 4453   3.964   7.308   5.501 -0.8604 -1.3212  3.2329
   19MOL    O98 4454   3.705   7.491   5.532 -0.2470  0.2862  0.0320
   19MOL    C99 4455   3.654   7.628   5.549  0.2106 -0.3026  0.2034
   19MOL   C100 4456   3.615   7.682   5.413 -0.3049  0.0924 -0.6523
   19MOL   C101 4457   3.534   7.628   5.642 -0.3442  0.4852  0.2130
   19MOL   C102 4458   3.594   7.619   5.784 -0.3189 -0.3151 -0.5692
   19MOL   O103 4459   3.598   7.509   5.841  0.0179 -0.0795 -0.0331
   19MOL   H104 4460   3.730   7.696   5.588 -0.6487  1.0516 -0.4621
   19MOL   H105 4461   3.570   7.598   5.359 -0.8774 -0.0500  0.0440
   19MOL   H106 4462   3.693   7.745   5.371 -0.4094  1.0810  0.6045
   19MOL   H107 4463   3.530   7.749   5.406 -1.5058 -1.3210  0.1877
   19MOL   H108 4464   3.463   7.546   5.627 -0.1454  0.2612  0.5234
   19MOL   H109 4465   3.483   7.725   5.640  0.7262  1.0420 -2.8407
   19MOL   O110 4466   3.648   7.738   5.832 -0.4519 -0.6757  0.2371
   19MOL   C111 4467   3.685   7.756   5.967 -0.1894  0.7100 -0.3207
   19MOL   C112 4468   3.790   7.868   5.965 -0.1851 -0.0351 -0.3966
   19MOL   C113 4469   3.566   7.772   6.067 -0.0752 -0.3430  0.1388
   19MOL   C114 4470   3.598   7.754   6.215 -0.3538 -0.0297  0.3309
   19MOL   O115 4471   3.605   7.642   6.262 -0.4144  0.3360  0.5235
   19MOL   H116 4472   3.732   7.666   6.007  0.1221  1.3798  0.8388
   19MOL   H117 4473   3.857   7.872   6.051  0.9923 -0.5818 -1.2641
   19MOL   H118 4474   3.751   7.969   5.961  0.5337  0.2698  0.3129
   19MOL   H119 4475   3.859   7.852   5.882  1.3173  2.0333  0.4170
   19MOL   H120 4476   3.497   7.693   6.036  0.4881 -0.4520 -0.8855
   19MOL   H121 4477   3.500   7.857   6.052 -1.5172 -1.5521 -0.5422
   19MOL   O122 4478   3.628   7.873   6.284  0.8829  0.1963  0.1119
   19MOL   C123 4479   3.635   7.876   6.426  0.6868 -0.2914 -0.5299
   19MOL   C124 4480   3.727   0.018   6.475 -0.2141 -0.0761 -0.1180
   19MOL   C125 4481   3.481   7.870   6.480 -0.4059 -0.3330 -0.0262
   19MOL   C126 4482   3.464   7.880   6.630  0.2028  0.2004 -0.0940
   19MOL   O127 4483   3.555   7.870   6.714 -0.5951 -0.2789  0.1128
   19MOL   H128 4484   3.690   7.785   6.450  0.0534 -0.5260  0.0124
   19MOL   H129 4485   3.680   0.116   6.476 -0.0697  0.0513 -2.8337
   19MOL   H130 4486   3.811   0.028   6.407 -0.7275  1.7051 -0.5145
   19MOL   H131 4487   3.767   7.979   6.575  1.2043 -0.1546 -0.6940
   19MOL   H132 4488   3.440   7.769   6.468  0.4309 -0.8828  1.5912
   19MOL   H133 4489   3.408   7.937   6.435 -1.2599 -0.8868  0.5073
   19MOL   O134 4490   3.333   7.897   6.663  0.2961 -0.2702 -0.0517
   19MOL   C135 4491   3.289   7.933   6.794  0.4951 -0.2155 -0.3850
   19MOL   C136 4492   3.208   0.082   6.781 -0.7722 -0.3911 -0.7157
   19MOL   C137 4493   3.215   7.814   6.867  0.5284 -0.0125  0.0158
   19MOL   C138 4494   3.129   7.844   6.996  0.7422 -0.3316  0.3307
   19MOL   O139 4495   3.135   7.949   7.061  0.1312 -0.1084  0.2996
   19MOL   H140 4496   3.377   7.945   6.858 -2.2131  0.4671  3.3625
   19MOL   H141 4497   3.273   0.155   6.733 -1.8279  0.7596 -0.4242
   19MOL   H142 4498   3.163   0.137   6.864 -2.3726 -1.1621 -1.0513
   19MOL   H143 4499   3.138   0.071   6.699  0.7218 -0.1052 -2.0426
   19MOL   H144 4500   3.277   7.729   6.894  0.0886 -0.2685  0.2351
   19MOL   H145 4501   3.140   7.776   6.797  0.8631  1.6642 -1.2883
   19MOL   O146 4502   3.040   7.740   7.027 -0.4730  0.0572  0.0381
   19MOL   C147 4503   2.943   7.752   7.126 -0.1606 -0.7274  1.0854
   19MOL   C148 4504   2.814   7.806   7.078 -0.4715 -0.2023 -0.7341
   19MOL   C149 4505   2.936   7.604   7.178 -0.6990  0.5789 -0.5609
   19MOL   C150 4506   3.037   7.567   7.287 -0.1094 -0.2734  0.1212
   19MOL   O151 4507   3.106   7.655   7.345 -0.5538  0.0202 -0.5538
   19MOL   H152 4508   2.978   7.830   7.194  1.1037  0.3529 -0.7811
   19MOL   H153 4509   2.764   7.730   7.018  2.4265 -2.5309 -0.3032
   19MOL   H154 4510   2.832   7.890   7.010 -2.8667  2.4182  1.7312
   19MOL   H155 4511   2.747   7.845   7.155  0.2223  1.6069 -1.0241
   19MOL   H156 4512   2.946   7.533   7.096  2.5766 -0.0950  0.3230
   19MOL   H157 4513   2.835   7.594   7.216 -0.5341  0.8551 -0.0398
   19MOL   O158 4514   3.031   7.440   7.308  0.3481 -0.2421 -0.3756
   19MOL   C159 4515   3.114   7.373   7.397  0.0150  0.8682  0.2634
   19MOL   C160 4516   3.050   7.380   7.538  0.1280 -0.2959 -0.7151
   19MOL   C161 4517   3.125   7.229   7.339  0.4764 -0.3017 -0.7351
   19MOL   C162 4518   3.222   7.141   7.411 -0.2804 -0.3604  0.1871
   19MOL   O163 4519   3.316   7.087   7.351 -0.4270  0.7844  0.5298
   19MOL   H164 4520   3.211   7.421   7.398 -0.1715  1.2695  2.9393
   19MOL   H165 4521   2.991   7.470   7.557  0.9965 -0.1259  1.2955
   19MOL   H166 4522   3.121   7.356   7.617 -3.2606 -2.5388  1.8037
   19MOL   H167 4523   2.979   7.300   7.556 -2.0848  1.1159 -2.7239
   19MOL   H168 4524   3.158   7.230   7.236 -0.4569 -2.2932 -1.0672
   19MOL   H169 4525   3.025   7.186   7.346 -0.2245  1.4686  0.6279
   19MOL   O170 4526   3.198   7.130   7.544 -0.3187 -0.0518 -1.0576
   19MOL   C171 4527   3.281   7.060   7.634 -0.3891 -0.0041  0.4333
   19MOL   C172 4528   3.403   7.150   7.679 -0.0928 -0.2186 -0.2067
   19MOL   C173 4529   3.194   7.010   7.750  0.0255  0.3401 -0.4293
   19MOL   C174 4530   3.110   6.891   7.716  0.1609 -0.2074 -0.7320
   19MOL   O175 4531   3.134   6.814   7.625  0.1557 -0.1131 -0.0043
   19MOL   H176 4532   3.324   6.972   7.584 -0.5070 -0.1543  0.5965
   19MOL   H177 4533   3.368   7.250   7.705 -0.2393  0.2317 -2.0282
   19MOL   H178 4534   3.460   7.159   7.586 -1.6266  2.1757 -0.9749
   19MOL   H179 4535   3.468   7.115   7.759  2.3688 -2.1475 -2.9448
   19MOL   H180 4536   3.121   7.087   7.776 -3.4479 -1.8693 -3.1816
   19MOL   H181 4537   3.256   6.989   7.837  0.9600 -0.5714 -1.3095
   19MOL   O182 4538   3.013   6.878   7.808  0.4801 -0.0187 -0.0175
   19MOL   C183 4539   2.921   6.772   7.815 -1.3285 -0.3179 -0.2882
   19MOL   C184 4540   2.950   6.685   7.936  0.1752 -0.0978 -0.4130
   19MOL   C185 4541   2.778   6.825   7.784 -0.0626 -0.2047 -0.2185
   19MOL   C186 4542   2.731   6.899   7.907  0.1252  0.9968 -0.2174
   19MOL   O187 4543   2.647   6.851   7.977 -0.4803  0.2797  0.1556
   19MOL   H188 4544   2.948   6.710   7.730  2.2653 -1.6902  1.7576
   19MOL   H189 4545   2.925   6.721   0.056  1.2464 -0.2059 -0.0915
   19MOL   H190 4546   3.059   6.677   7.947  0.0442  1.6256  2.5443
   19MOL   H191 4547   2.903   6.592   7.906  0.5060 -0.2458 -0.4840
   19MOL   H192 4548   2.715   6.747   7.742 -0.6895  0.3099 -0.2358
   19MOL   H193 4549   2.788   6.892   7.699 -2.6387 -1.3069 -1.4305
   19MOL   O194 4550   2.791   7.016   7.925  0.1903  0.4639  0.3574
   19MOL   C195 4551   2.741   7.101   0.046  0.8159 -0.1853  0.8558
   19MOL   C196 4552   2.836   7.113   0.163 -0.7085  0.3191  0.5913
   19MOL   C197 4553   2.707   7.238   7.965  0.2493 -0.3247 -0.3008
   19MOL   C198 4554   2.820   7.324   7.914  0.0698 -0.6550 -0.4718
   19MOL   O199 4555   2.860   7.307   7.804  0.5453 -0.1121  0.0837
   19MOL   H200 4556   2.642   7.069   0.077 -0.1956  2.2611  0.2923
   19MOL   H201 4557   2.795   7.167   0.248 -0.2827 -0.3369  1.2164
   19MOL   H202 4558   2.928   7.161   0.130 -0.1490 -0.6101  0.7911
   19MOL   H203 4559   2.866   7.014   0.197  2.8929  1.0097 -0.3573
   19MOL   H204 4560   2.667   7.300   0.065 -1.0443  1.3594 -2.2025
   19MOL   H205 4561   2.635   7.219   7.885 -0.7434 -0.1527  0.5476
   19MOL   O206 4562   2.866   7.420   0.026 -0.1786  0.2860  0.0286
   19MOL   C207 4563   3.000   7.471   0.004 -0.5709 -0.2095  0.1536
   19MOL   C208 4564   2.988   7.587   7.879  0.6871  0.8426  0.6938
   19MOL   C209 4565   3.087   7.508   0.129 -0.0664  0.8727 -0.1424
   19MOL   C210 4566   3.073   7.650   0.180 -0.4490 -0.2514 -0.1965
   19MOL   O211 4567   2.987   7.684   0.263  0.0681  0.6866  0.1399
   19MOL   H212 4568   3.062   7.393   7.941 -1.5692 -0.5488 -0.6995
   19MOL   H213 4569   2.922   7.670   7.908  1.0117  1.5881 -0.6611
   19MOL   H214 4570   2.954   7.557   7.780  0.0176  1.4278  0.7313
   19MOL   H215 4571   3.083   7.639   7.877  0.8491  0.5127 -0.3961
   19MOL   H216 4572   3.189   7.483   0.096  1.1864  1.5653  3.0714
   19MOL   H217 4573   3.058   7.438   0.207  0.4229  0.9438  0.1025
   19MOL   O218 4574   3.163   7.740   0.125  0.2828  0.0265  1.0978
   19MOL   C219 4575   3.166   7.869   0.177 -0.4212  0.3452  0.3801
   19MOL   C220 4576   3.295   7.866   0.260  0.1606  0.9488 -0.1671
   19MOL   C221 4577   3.182   7.969   0.057  0.1105  0.3809 -0.6760
   19MOL   C222 4578   3.051   0.034   7.970 -0.0697 -0.1364  0.1225
   19MOL   O223 4579   3.012   0.153   7.967  0.2586  0.3922  0.3428
   19MOL   H224 4580   3.085   7.894   0.245  1.0418 -1.1077  2.7167
   19MOL   H225 4581   3.330   7.968   0.274 -1.3637  1.5116 -0.3277
   19MOL   H226 4582   3.384   7.815   0.224 -0.0502 -0.0748  0.7393
   19MOL   H227 4583   3.268   7.830   0.359 -2.8308  0.8240 -0.9855
   19MOL   H228 4584   3.261   7.934   7.969  1.6332 -0.6738  1.5996
   19MOL   H229 4585   3.232   0.080   0.091  0.8181 -0.3125  0.1588
   19MOL   O230 4586   2.984   7.920   7.906  0.2329 -0.3014  0.6561
   19MOL   C231 4587   2.857   7.936   7.853  0.0070  0.9256  0.5669
   19MOL   C232 4588   2.842   7.879   7.716 -0.6826 -0.3387  0.2881
   19MOL   C233 4589   2.753   7.875   7.954  0.3674 -0.1344  0.2121
   19MOL   C234 4590   2.610   7.921   7.932 -0.3381  0.8867  0.2764
   19MOL   O235 4591   2.585   0.061   7.915 -0.2715  0.7852  0.6843
   19MOL   H236 4592   2.830   0.061   7.847  1.3176  1.2874  0.8132
   19MOL   H237 4593   2.743   7.902   7.677 -0.4817  0.6466  0.3578
   19MOL   H238 4594   2.871   7.774   7.707 -1.2994 -0.5204  0.3695
   19MOL   H239 4595   2.904   7.933   7.645  1.4660 -2.4691  0.4873
   19MOL   H240 4596   2.781   7.915   0.071  0.4095 -0.8484  0.5003
   19MOL   H241 4597   2.759   7.766   7.960 -2.2428 -0.2324  2.0248
   19MOL   H242 4598   2.532   7.845   7.939  1.0669 -0.5409  0.8405
   20MOL     O1 4599   2.862   4.693   7.587 -0.3971 -0.0111 -0.1603
   20MOL     C2 4600   2.905   4.619   7.703  0.0367  0.5763  0.7759
   20MOL     C3 4601   2.812   4.665   7.820  0.2779 -0.0918 -0.3970
   20MOL     C4 4602   2.911   4.463   7.663  0.5906 -0.6577 -0.1722
   20MOL     C5 4603   2.990   4.370   7.750  0.5834 -0.0817  0.3926
   20MOL     O6 4604   3.042   4.412   7.855  0.6816 -0.0129 -0.0720
   20MOL     H7 4605   3.007   4.651   7.724  0.9609 -2.5867  1.3833
   20MOL     H8 4606   2.854   4.646   7.918 -0.2709  1.2408  0.1126
   20MOL     H9 4607   2.716   4.614   7.819 -0.6319  1.5567 -2.0155
   20MOL    H10 4608   2.796   4.773   7.814  1.4497  0.1441  0.7437
   20MOL    H11 4609   2.973   4.466   7.574  0.4528  2.0561 -0.2262
   20MOL    H12 4610   2.807   4.436   7.642 -0.4163  2.4822  0.4706
   20MOL    H13 4611   2.787   4.653   7.547  0.0147  0.0763 -1.0299
   20MOL    O14 4612   2.997   4.240   7.697 -0.3091 -0.2294 -0.2165
   20MOL    C15 4613   3.065   4.138   7.764 -0.0500 -0.1214 -0.3760
   20MOL    C16 4614   2.955   4.053   7.833 -0.0823 -0.1525 -0.6314
   20MOL    C17 4615   3.154   4.081   7.661  1.0860 -0.8329 -0.6347
   20MOL    C18 4616   3.249   3.978   7.731  0.1261 -0.8421 -0.2700
   20MOL    O19 4617   3.366   4.010   7.745  0.3452 -0.1829 -0.3920
   20MOL    H20 4618   3.137   4.178   7.835 -2.6242  1.2007  1.5862
   20MOL    H21 4619   2.931   4.108   7.923  0.1212  0.3196 -0.8658
   20MOL    H22 4620   2.980   3.952   7.865 -2.8126 -0.7123 -0.1115
   20MOL    H23 4621   2.875   4.051   7.758 -1.1968 -0.9614  0.5608
   20MOL    H24 4622   3.208   4.159   7.608 -0.6010  0.6732 -0.1891
   20MOL    H25 4623   3.101   4.047   7.572 -0.1657  1.4465 -0.7976
   20MOL    O26 4624   3.196   3.856   7.755 -0.0970 -0.6594  0.5824
   20MOL    C27 4625   3.277   3.751   7.801  0.9388 -0.8350  0.8517
   20MOL    C28 4626   3.232   3.708   7.941  0.2763  0.1548  0.4911
   20MOL    C29 4627   3.298   3.634   7.696 -0.0454  0.3689  0.2489
   20MOL    C30 4628   3.398   3.680   7.590 -0.1437  0.3685 -0.4280
   20MOL    O31 4629   3.362   3.715   7.477  0.3758  0.2611  1.0109
   20MOL    H32 4630   3.382   3.783   7.803  0.0570  2.2257  0.3050
   20MOL    H33 4631   3.307   3.657   0.022 -0.2405 -2.1162 -0.7165
   20MOL    H34 4632   3.148   3.638   7.935  1.4266 -1.3261  1.1235
   20MOL    H35 4633   3.201   3.794   0.019 -1.3570 -0.6576  0.8501
   20MOL    H36 4634   3.202   3.622   7.646  0.4420 -1.9773 -0.1896
   20MOL    H37 4635   3.333   3.545   7.748  1.6309  0.4198 -0.7662
   20MOL    O38 4636   3.524   3.680   7.641  0.2820 -0.0280  0.3257
   20MOL    C39 4637   3.626   3.750   7.561  0.4123 -0.2052 -0.2084
   20MOL    C40 4638   3.695   3.845   7.658 -0.4733 -0.1173 -0.1297
   20MOL    C41 4639   3.699   3.633   7.497 -0.5327  0.0587  0.1363
   20MOL    C42 4640   3.799   3.675   7.387 -0.6785  0.1714  0.1562
   20MOL    O43 4641   3.841   3.789   7.369 -0.5026 -0.3230  0.0256
   20MOL    H44 4642   3.583   3.810   7.480 -0.9341 -0.2447  0.4578
   20MOL    H45 4643   3.629   3.925   7.692  0.7639  1.3629 -1.1526
   20MOL    H46 4644   3.784   3.886   7.610  0.0380 -1.2860 -0.2168
   20MOL    H47 4645   3.743   3.796   7.742 -0.8599  1.7792  1.2116
   20MOL    H48 4646   3.627   3.574   7.442 -1.0519  0.0016  0.8748
   20MOL    H49 4647   3.735   3.562   7.571  0.2975 -0.5886 -0.8748
   20MOL    O50 4648   3.838   3.561   7.309 -0.0527  0.0071  0.0718
   20MOL    C51 4649   3.910   3.579   7.190  0.4664 -0.0265 -0.1380
   20MOL    C52 4650   4.061   3.565   7.230  0.4500  0.0305 -0.4509
   20MOL    C53 4651   3.858   3.465   7.097  0.0449  1.0114 -0.2624
   20MOL    C54 4652   3.858   3.492   6.947 -0.9776 -0.1466 -0.2435
   20MOL    O55 4653   3.903   3.402   6.874  0.3480 -0.1184 -0.1170
   20MOL    H56 4654   3.892   3.677   7.145 -0.2660 -0.3597 -0.5781
   20MOL    H57 4655   4.083   3.641   7.305 -4.0804  1.6412 -0.5878
   20MOL    H58 4656   4.130   3.565   7.146 -0.8389  1.4055 -1.5433
   20MOL    H59 4657   4.088   3.471   7.277  1.2347  0.6670  0.3945
   20MOL    H60 4658   3.753   3.447   7.122 -1.0194  4.1710 -2.1642
   20MOL    H61 4659   3.908   3.370   7.113  1.2526  1.4303 -1.4674
   20MOL    O62 4660   3.798   3.614   6.911  0.6841  0.1160 -0.3533
   20MOL    C63 4661   3.783   3.654   6.775 -0.5202  0.0151  0.2335
   20MOL    C64 4662   3.690   3.782   6.780 -0.1084 -0.1269 -0.2774
   20MOL    C65 4663   3.914   3.685   6.711 -0.7542 -0.3564  0.3757
   20MOL    C66 4664   3.988   3.806   6.768  0.1437 -0.0955  0.2899
   20MOL    O67 4665   3.993   3.912   6.706 -0.1133  0.3374 -0.2564
   20MOL    H68 4666   3.742   3.574   6.712  0.0513 -1.0086  1.1426
   20MOL    H69 4667   3.587   3.757   6.804 -0.4081  1.2159 -0.1674
   20MOL    H70 4668   3.682   3.825   6.681 -1.1540 -0.2841 -0.2635
   20MOL    H71 4669   3.722   3.851   6.858  0.1295 -0.0696 -0.4268
   20MOL    H72 4670   3.896   3.699   6.604  0.2599 -0.3188  0.2082
   20MOL    H73 4671   3.977   3.598   6.727 -0.6686 -0.4057 -0.2000
   20MOL    O74 4672   4.056   3.791   6.886  0.1120  0.0417  0.3237
   20MOL    C75 4673   4.110   3.900   6.950  0.0467 -0.3521  0.0477
   20MOL    C76 4674   4.093   3.879   7.100  0.0614  0.3529  0.3523
   20MOL    C77 4675   4.265   3.925   6.922 -0.3915  0.0256 -0.3382
   20MOL    C78 4676   4.298   3.984   6.786 -0.2156  0.4302 -0.2658
   20MOL    O79 4677   4.325   3.914   6.686  0.2455 -0.5068 -0.4213
   20MOL    H80 4678   4.067   3.998   6.932 -0.0258  0.0616  2.3600
   20MOL    H81 4679   4.107   3.969   7.160  1.1607  1.4973 -1.5356
   20MOL    H82 4680   4.162   3.802   7.133 -0.8001  0.2944  2.0291
   20MOL    H83 4681   3.993   3.844   7.124  0.0987  0.0176  0.0227
   20MOL    H84 4682   4.322   3.833   6.936  0.4389  0.4038 -1.2054
   20MOL    H85 4683   4.297   3.997   6.998 -0.9500 -1.3922  1.2783
   20MOL    O86 4684   4.296   4.120   6.776 -1.1463 -0.9527  0.9556
   20MOL    C87 4685   4.347   4.185   6.657  0.4198  0.6905  0.0196
   20MOL    C88 4686   4.282   4.325   6.653 -0.7836  0.1498 -0.0287
   20MOL    C89 4687   4.500   4.184   6.657  0.4678  0.8158 -0.6753
   20MOL    C90 4688   4.555   4.191   6.513  0.1850 -0.0346 -0.3555
   20MOL    O91 4689   4.613   4.291   6.464 -0.2459 -0.5681  0.9323
   20MOL    H92 4690   4.311   4.138   6.565  0.2870  0.9639 -0.0664
   20MOL    H93 4691   4.295   4.370   6.555 -1.4517  1.6139  0.5320
   20MOL    H94 4692   4.334   4.389   6.725  1.3656 -0.3188 -1.1377
   20MOL    H95 4693   4.179   4.316   6.689 -1.1174  0.3141 -0.9255
   20MOL    H96 4694   4.524   4.080   6.679 -0.2572  0.8501  0.3175
   20MOL    H97 4695   4.547   4.263   6.715 -0.9956  1.4783 -0.3616
   20MOL    O98 4696   4.540   4.073   6.449 -0.2669 -0.0018  0.3168
   20MOL    C99 4697   4.600   4.047   6.324 -0.2247  0.3422 -0.2729
   20MOL   C100 4698   4.740   3.991   6.354 -0.7205  0.3199 -0.1518
   20MOL   C101 4699   4.524   3.939   6.243  0.0233  0.4303 -0.2063
   20MOL   C102 4700   4.391   3.994   6.198  1.0770 -0.4188 -0.7056
   20MOL   O103 4701   4.285   3.933   6.235 -0.0074  0.0652  0.1111
   20MOL   H104 4702   4.603   4.138   6.263  2.3353  1.2018  1.0426
   20MOL   H105 4703   4.740   3.893   6.403  2.7602 -0.4813 -1.6311
   20MOL   H106 4704   4.798   4.065   6.410  0.9905 -1.7334  0.8500
   20MOL   H107 4705   4.800   3.973   6.265  0.6690 -1.2725  1.0633
   20MOL   H108 4706   4.510   3.860   6.316 -0.1708  0.5963 -0.0652
   20MOL   H109 4707   4.589   3.904   6.162  1.3228 -0.0102  0.9965
   20MOL   O110 4708   4.400   4.107   6.127  0.8649 -0.5554 -0.0114
   20MOL   C111 4709   4.280   4.166   6.076 -0.7062  0.5436  0.5525
   20MOL   C112 4710   4.201   4.075   5.976  0.4033  0.7207 -0.3965
   20MOL   C113 4711   4.186   4.233   6.180 -0.0643  0.5961 -0.2863
   20MOL   C114 4712   4.253   4.349   6.252  0.2025 -0.5464 -0.0152
   20MOL   O115 4713   4.373   4.377   6.241  0.1659 -0.2349 -0.4471
   20MOL   H116 4714   4.328   4.244   6.017  3.1195 -1.5250  0.7358
   20MOL   H117 4715   4.271   4.031   5.905  2.7910  0.9995  1.7023
   20MOL   H118 4716   4.123   4.128   5.923 -1.3967 -0.4861  0.9841
   20MOL   H119 4717   4.163   3.987   6.027  2.3624  0.0490 -0.0295
   20MOL   H120 4718   4.159   4.152   6.248 -0.3515 -0.0805 -1.1998
   20MOL   H121 4719   4.098   4.257   6.120  0.1830  1.9147 -0.1277
   20MOL   O122 4720   4.158   4.413   6.328  0.2090  0.4649 -0.3261
   20MOL   C123 4721   4.175   4.538   6.385 -0.6142  0.5744 -0.5214
   20MOL   C124 4722   4.163   4.642   6.262  0.1043 -0.4080 -0.4075
   20MOL   C125 4723   4.051   4.548   6.484 -0.0265 -0.7956 -0.2749
   20MOL   C126 4724   4.052   4.679   6.565  0.2636  0.2846  0.1774
   20MOL   O127 4725   4.143   4.757   6.560 -0.4327  0.5523 -0.3307
   20MOL   H128 4726   4.270   4.540   6.439 -0.2507  0.9922 -1.1616
   20MOL   H129 4727   4.238   4.623   6.186  0.3973  1.4938 -0.6296
   20MOL   H130 4728   4.173   4.743   6.302  1.9098 -1.2434  1.3413
   20MOL   H131 4729   4.060   4.631   6.228 -1.5081  2.1959  3.2432
   20MOL   H132 4730   4.056   4.460   6.549  1.3214  0.0877  0.8462
   20MOL   H133 4731   3.961   4.549   6.423 -0.5763  0.6000  0.5259
   20MOL   O134 4732   3.947   4.702   6.638  0.3896 -0.3906 -0.5793
   20MOL   C135 4733   3.918   4.832   6.686 -0.1943 -0.4410 -0.2140
   20MOL   C136 4734   3.771   4.858   6.694  0.9090  0.2080 -0.0149
   20MOL   C137 4735   4.003   4.854   6.813  0.1042  0.0823 -0.1415
   20MOL   C138 4736   3.958   4.757   6.923  0.0667  0.4231  1.2360
   20MOL   O139 4737   3.854   4.772   6.983  0.2978  0.3984  0.0099
   20MOL   H140 4738   3.957   4.908   6.619 -0.7668 -1.1095 -1.3283
   20MOL   H141 4739   3.724   4.872   6.596 -1.8156 -2.4123  0.8483
   20MOL   H142 4740   3.752   4.946   6.755  3.1881 -0.4232  1.6376
   20MOL   H143 4741   3.720   4.772   6.736 -1.6711  0.8012 -1.7751
   20MOL   H144 4742   3.995   4.954   6.855  0.5247  0.0096  0.1148
   20MOL   H145 4743   4.106   4.822   6.796  0.3646  1.2406 -0.7459
   20MOL   O146 4744   4.050   4.648   6.943  0.2634  0.2532 -0.5664
   20MOL   C147 4745   4.024   4.554   7.042 -0.0866 -0.0413 -0.0564
   20MOL   C148 4746   4.055   4.421   6.979 -0.3108 -0.0954  0.1105
   20MOL   C149 4747   4.111   4.577   7.164 -0.6709 -0.0511  0.3025
   20MOL   C150 4748   4.072   4.699   7.253 -0.3004  0.1843 -0.5036
   20MOL   O151 4749   4.152   4.794   7.253  0.4124 -0.4209 -0.2173
   20MOL   H152 4750   3.919   4.556   7.072  0.0408  0.3294  0.3623
   20MOL   H153 4751   4.157   4.385   6.992 -0.7804 -1.5593 -0.1218
   20MOL   H154 4752   4.018   4.418   6.876 -1.6148  0.2297  0.5655
   20MOL   H155 4753   4.004   4.342   7.035  0.8316  0.5890  2.1718
   20MOL   H156 4754   4.214   4.597   7.135 -1.1719  2.6060  0.2394
   20MOL   H157 4755   4.113   4.487   7.226 -1.3537 -1.5244 -1.7752
   20MOL   O158 4756   3.952   4.684   7.316 -0.2124 -0.6670 -0.5129
   20MOL   C159 4757   3.916   4.795   7.394  0.3531  0.1362  0.0058
   20MOL   C160 4758   3.763   4.812   7.369  0.0159  0.2283  0.6848
   20MOL   C161 4759   3.964   4.775   7.536  0.1802  0.1863 -0.7022
   20MOL   C162 4760   3.927   4.884   7.636  0.6279 -0.0033 -0.0323
   20MOL   O163 4761   3.923   4.864   7.756  0.5925  0.2500  0.3518
   20MOL   H164 4762   3.967   4.878   7.345  2.1788 -1.3421 -0.6104
   20MOL   H165 4763   3.701   4.728   7.402 -2.2477  1.5897  0.0432
   20MOL   H166 4764   3.742   4.815   7.262 -1.2444 -1.4629  0.8687
   20MOL   H167 4765   3.733   4.902   7.423  2.0124 -1.0404  4.0296
   20MOL   H168 4766   4.072   4.762   7.540  0.1026 -0.4382 -0.5490
   20MOL   H169 4767   3.905   4.691   7.573  0.6927  0.6199  1.1379
   20MOL   O170 4768   3.916   5.000   7.573  0.0570  0.2718 -0.2918
   20MOL   C171 4769   3.880   5.111   7.648 -0.5822 -0.2741 -0.3367
   20MOL   C172 4770   3.974   5.227   7.612  0.4707  0.4757  0.4269
   20MOL   C173 4771   3.731   5.156   7.637  0.6135  0.0982  0.1122
   20MOL   C174 4772   3.634   5.076   7.727  0.6697 -0.3384 -0.6454
   20MOL   O175 4773   3.568   5.131   7.817 -0.1950  0.1535 -0.7212
   20MOL   H176 4774   3.893   5.102   7.756 -1.9341 -0.3454 -0.1617
   20MOL   H177 4775   4.073   5.225   7.657  0.2010  1.3580  1.0811
   20MOL   H178 4776   3.922   5.318   7.641  0.1092 -0.0966  1.6037
   20MOL   H179 4777   3.968   5.235   7.503 -0.4562 -0.4227  0.4031
   20MOL   H180 4778   3.701   5.147   7.533 -2.8040  1.6601  0.8600
   20MOL   H181 4779   3.711   5.260   7.665  2.1299  0.1746  0.9556
   20MOL   O182 4780   3.630   4.940   7.689 -0.2096 -0.2532 -0.3017
   20MOL   C183 4781   3.536   4.846   7.738  0.6747 -0.0646 -0.0222
   20MOL   C184 4782   3.462   4.778   7.618 -0.0624 -0.3107 -0.4504
   20MOL   C185 4783   3.623   4.762   7.828 -0.1043  0.4431  0.8000
   20MOL   C186 4784   3.532   4.658   7.899 -0.2338  0.2540  0.6424
   20MOL   O187 4785   3.435   4.689   7.974 -0.2130  0.4196 -0.4280
   20MOL   H188 4786   3.459   4.893   7.798 -0.3348 -1.1249 -0.4805
   20MOL   H189 4787   3.390   4.839   7.564  1.0713  0.4553 -1.1100
   20MOL   H190 4788   3.406   4.694   7.658 -1.8662  1.2033  0.2370
   20MOL   H191 4789   3.534   4.730   7.551  1.1464 -1.1201  1.3948
   20MOL   H192 4790   3.674   4.818   7.906  1.9722 -0.6822  0.2791
   20MOL   H193 4791   3.690   4.708   7.760  0.9873  1.4048  1.1092
   20MOL   O194 4792   3.553   4.535   7.844 -0.3092  0.7082  0.1035
   20MOL   C195 4793   3.480   4.423   7.905  0.1400  0.0620 -1.3264
   20MOL   C196 4794   3.370   4.384   7.808  0.0248  0.1012 -0.0529
   20MOL   C197 4795   3.581   4.312   7.921  0.4210  0.4002 -0.1904
   20MOL   C198 4796   3.681   4.335   0.056 -0.0054 -0.3468 -0.5371
   20MOL   O199 4797   3.804   4.358   0.045 -0.4230 -0.1402  0.6764
   20MOL   H200 4798   3.442   4.451   0.023 -2.0826 -2.3059 -1.4769
   20MOL   H201 4799   3.304   4.311   7.857 -1.1772  1.2717  0.0913
   20MOL   H202 4800   3.396   4.340   7.712 -0.1081  0.8157 -0.4188
   20MOL   H203 4801   3.298   4.459   7.778 -0.0396  0.4754  1.0053
   20MOL   H204 4802   3.633   4.303   7.826 -0.2584 -0.1265 -0.5242
   20MOL   H205 4803   3.533   4.216   7.942 -0.5189  1.2149  1.5536
   20MOL   O206 4804   3.615   4.330   0.169  0.0200 -0.5736  0.1119
   20MOL   C207 4805   3.681   4.346   0.291  0.2430 -0.4214  0.2681
   20MOL   C208 4806   3.658   4.494   0.347  0.4248 -0.4488  0.1976
   20MOL   C209 4807   3.670   4.226   0.378  0.7408 -0.2492  0.1661
   20MOL   C210 4808   3.779   4.203   0.482 -0.5342  0.3640  0.5758
   20MOL   O211 4809   3.783   4.086   0.529  0.2978 -0.1501  1.1196
   20MOL   H212 4810   3.788   4.361   0.275 -0.4007  2.8725 -1.3484
   20MOL   H213 4811   3.727   4.531   0.423  1.0151  0.4199 -0.7396
   20MOL   H214 4812   3.557   4.493   0.387  0.8883  0.3235  1.4108
   20MOL   H215 4813   3.667   4.557   0.258  0.0590  1.1783  1.2882
   20MOL   H216 4814   3.678   4.135   0.320  0.0086  0.7805 -1.5980
   20MOL   H217 4815   3.572   4.231   0.426 -0.5925 -0.7119 -2.4451
   20MOL   O218 4816   3.864   4.309   0.514  0.2195  0.1315 -0.0156
   20MOL   C219 4817   3.958   4.287   0.609 -0.3013  0.2124 -0.5091
   20MOL   C220 4818   4.075   4.389   0.581  0.9040  0.2709 -0.0868
   20MOL   C221 4819   3.898   4.317   0.744  0.6150 -0.2212 -0.4638
   20MOL   C222 4820   3.867   4.462   0.770  0.6695  0.3719 -0.0016
   20MOL   O223 4821   3.927   4.519   0.862  0.4027  0.2017 -0.5155
   20MOL   H224 4822   3.994   4.185   0.612  0.2756  0.3822 -1.3176
   20MOL   H225 4823   4.147   4.360   0.504  2.8922  3.0717  0.6572
   20MOL   H226 4824   4.133   4.413   0.670 -0.2177 -1.6469  1.2225
   20MOL   H227 4825   4.034   4.479   0.536  0.9789 -0.5811 -1.8897
   20MOL   H228 4826   3.978   4.289   0.813 -0.2238 -2.7533 -0.4602
   20MOL   H229 4827   3.818   4.247   0.772 -0.1161  1.0391  0.6759
   20MOL   O230 4828   3.775   4.520   0.692 -0.2853  0.2544  0.2513
   20MOL   C231 4829   3.708   4.639   0.721 -0.2510  0.5307  0.3561
   20MOL   C232 4830   3.788   4.757   0.661  0.7467  0.8143  0.4551
   20MOL   C233 4831   3.561   4.621   0.673 -0.1257 -0.2176  0.1378
   20MOL   C234 4832   3.467   4.732   0.716  0.1567 -0.6334 -0.0580
   20MOL   O235 4833   3.397   4.796   0.634 -0.1267 -0.4938 -0.5758
   20MOL   H236 4834   3.707   4.645   0.830  2.1569 -0.2051  0.4599
   20MOL   H237 4835   3.877   4.789   0.715  0.1404  2.0501  0.7335
   20MOL   H238 4836   3.722   4.842   0.649  0.8874  0.7721 -0.6828
   20MOL   H239 4837   3.811   4.736   0.557 -3.7720  0.2279 -0.5217
   20MOL   H240 4838   3.515   4.523   0.692 -2.1071  0.4606 -0.9544
   20MOL   H241 4839   3.559   4.620   0.564  0.7377  1.1949  0.0980
   20MOL   H242 4840   3.471   4.757   0.822  2.3324 -1.1220  0.0041
   21MOL     O1 4841   4.222   0.177   2.369  0.2421  0.0786 -0.9315
   21MOL     C2 4842   4.082   0.219   2.365 -0.1477 -0.1339 -0.7741
   21MOL     C3 4843   4.024   0.202   2.226  0.1132  0.3840  0.0027
   21MOL     C4 4844   4.015   0.138   2.482  1.2155 -1.0284  0.0830
   21MOL     C5 4845   3.869   0.168   2.510  0.0026 -0.2039  1.1668
   21MOL     O6 4846   3.832   0.283   2.513  0.2006  0.3855 -1.2811
   21MOL     H7 4847   4.079   0.326   2.387 -0.6172 -0.4107  0.5258
   21MOL     H8 4848   4.014   0.096   2.200  0.9315  0.2531  0.2279
   21MOL     H9 4849   4.091   0.244   2.151 -1.0167 -1.5639 -2.1708
   21MOL    H10 4850   3.929   0.255   2.216  0.3063  0.5283 -1.1512
   21MOL    H11 4851   4.076   0.163   2.568 -0.8829  0.0313  1.3063
   21MOL    H12 4852   4.021   0.030   2.467 -0.5153 -0.9124 -1.8324
   21MOL    H13 4853   4.271   0.237   2.315 -0.0291  1.5532  0.4316
   21MOL    O14 4854   3.803   0.055   2.552 -0.2659 -0.2163  0.1227
   21MOL    C15 4855   3.666   0.063   2.605 -0.3841  0.2487  0.0281
   21MOL    C16 4856   3.602   7.904   2.575  0.0650 -0.1455  0.3495
   21MOL    C17 4857   3.669   0.124   2.742  0.2237 -0.5251 -0.5449
   21MOL    C18 4858   3.538   0.130   2.819  0.4767  0.2225 -0.2976
   21MOL    O19 4859   3.544   0.101   2.942  0.0593 -0.3785  0.0650
   21MOL    H20 4860   3.606   0.135   2.550 -0.5329  1.4009  1.6785
   21MOL    H21 4861   3.497   7.899   2.604  0.3515  0.6890  1.5558
   21MOL    H22 4862   3.653   7.818   2.620  2.2081  1.0927  0.3184
   21MOL    H23 4863   3.615   7.884   2.469  2.3130  0.7203  0.4329
   21MOL    H24 4864   3.701   0.228   2.738  0.9543 -0.6690  1.1261
   21MOL    H25 4865   3.748   0.078   2.802  2.0859 -0.4961 -2.8978
   21MOL    O26 4866   3.432   0.174   2.744  0.3408  0.0096  0.1417
   21MOL    C27 4867   3.317   0.203   2.815 -1.1918 -0.4441  0.3932
   21MOL    C28 4868   3.250   0.329   2.744  0.1840  0.0207 -0.2661
   21MOL    C29 4869   3.224   0.086   2.787  0.3623  0.1169  0.8995
   21MOL    C30 4870   3.231   7.947   2.889  0.5352  0.1033  0.5240
   21MOL    O31 4871   3.207   7.834   2.852 -0.1407 -0.1126 -0.7493
   21MOL    H32 4872   3.334   0.232   2.919 -0.1098 -0.5930  0.2585
   21MOL    H33 4873   3.312   0.418   2.757 -0.2773 -0.0723  2.9600
   21MOL    H34 4874   3.146   0.338   2.776  0.2843  2.8861 -0.6576
   21MOL    H35 4875   3.245   0.308   2.637  1.4629 -1.6834 -0.0218
   21MOL    H36 4876   3.248   0.058   2.684  3.0602  1.3298  1.1331
   21MOL    H37 4877   3.121   0.120   2.796  0.8641  1.6446  0.9993
   21MOL    O38 4878   3.251   7.980   3.024  0.4285 -0.7988  0.5321
   21MOL    C39 4879   3.252   7.878   3.126 -0.0429  0.4026  0.1700
   21MOL    C40 4880   3.357   7.919   3.233  0.0090 -0.5279 -0.3581
   21MOL    C41 4881   3.100   7.872   3.165 -0.4056  1.3045 -0.3563
   21MOL    C42 4882   3.072   7.774   3.280 -0.1113  0.2511 -0.2852
   21MOL    O43 4883   3.017   7.663   3.269  0.4355 -0.3290  0.1786
   21MOL    H44 4884   3.278   7.783   3.079  0.7445  0.1137  1.1751
   21MOL    H45 4885   3.331   7.848   3.311 -3.8600  0.6246 -0.5059
   21MOL    H46 4886   3.351   0.037   3.281  0.4888 -0.9775  0.6346
   21MOL    H47 4887   3.459   7.915   3.193 -0.6447  0.8153 -2.2042
   21MOL    H48 4888   3.049   7.828   3.079 -1.1173 -0.5486  0.9929
   21MOL    H49 4889   3.069   7.965   3.212 -1.1886 -0.0545  1.8780
   21MOL    O50 4890   3.113   7.817   3.400  0.4773 -0.3581 -0.0678
   21MOL    C51 4891   3.074   7.742   3.518 -0.2082  0.3168 -0.4869
   21MOL    C52 4892   3.171   7.623   3.548  0.0984 -0.2331  1.0418
   21MOL    C53 4893   3.080   7.866   3.614  0.0469 -0.2668  0.6052
   21MOL    C54 4894   2.996   7.845   3.743 -0.8640 -0.8732  0.2767
   21MOL    O55 4895   2.929   7.934   3.793  0.7608 -0.0146  0.7157
   21MOL    H56 4896   2.970   7.713   3.503  0.3145 -3.0941  1.9154
   21MOL    H57 4897   3.131   7.548   3.480  1.0570  0.3889 -0.2139
   21MOL    H58 4898   3.168   7.583   3.650  0.9592  0.3184  1.2835
   21MOL    H59 4899   3.273   7.652   3.523 -0.1104 -0.4718 -0.1150
   21MOL    H60 4900   3.051   7.965   3.578  1.3628 -0.0455  0.1388
   21MOL    H61 4901   3.179   7.880   3.657  0.6376 -2.6738  0.0799
   21MOL    O62 4902   3.027   7.732   3.793  0.4621  0.3728 -0.1468
   21MOL    C63 4903   2.949   7.666   3.898  0.0804 -0.6573  0.5789
   21MOL    C64 4904   2.917   7.521   3.853  0.2871 -0.9964  0.1047
   21MOL    C65 4905   3.017   7.692   4.036  0.0129 -0.9440  0.7063
   21MOL    C66 4906   3.163   7.632   4.048 -0.2310  0.4120  0.5398
   21MOL    O67 4907   3.208   7.548   3.969 -0.5608  0.0489  0.4201
   21MOL    H68 4908   2.853   7.718   3.898  0.8230  0.7779 -2.1816
   21MOL    H69 4909   3.008   7.461   3.843  1.4432  0.3869  1.9497
   21MOL    H70 4910   2.872   7.514   3.754  0.1413  0.0331  0.0975
   21MOL    H71 4911   2.846   7.482   3.926  1.2864 -0.4291  1.4080
   21MOL    H72 4912   2.962   7.645   4.118 -2.3890 -0.2784 -0.4658
   21MOL    H73 4913   3.013   7.799   4.056  1.5301 -0.5944 -0.7116
   21MOL    O74 4914   3.237   7.695   4.144 -0.2814 -0.5882 -0.3777
   21MOL    C75 4915   3.380   7.674   4.172 -0.3647  0.0959 -0.1967
   21MOL    C76 4916   3.442   7.803   4.200  0.1042 -0.6376  0.0054
   21MOL    C77 4917   3.384   7.577   4.287  0.0151 -0.8033 -0.0005
   21MOL    C78 4918   3.521   7.515   4.310  0.2404 -0.1348  0.1297
   21MOL    O79 4919   3.582   7.528   4.418  0.1548 -0.0015 -0.9674
   21MOL    H80 4920   3.427   7.632   4.083  0.3546 -0.1021  0.2743
   21MOL    H81 4921   3.388   7.865   4.272  1.2913  0.6848 -0.2104
   21MOL    H82 4922   3.462   7.872   4.118 -0.0066 -0.2996  0.2592
   21MOL    H83 4923   3.532   7.781   4.258 -0.0137  1.4220  1.0314
   21MOL    H84 4924   3.317   7.493   4.269 -0.2995 -0.2577 -1.4161
   21MOL    H85 4925   3.347   7.632   4.373 -0.1140  0.6253 -0.9599
   21MOL    O86 4926   3.557   7.440   4.203 -0.2511  0.1699  0.0413
   21MOL    C87 4927   3.684   7.379   4.199  0.5744  0.2455 -0.4410
   21MOL    C88 4928   3.653   7.226   4.192  0.5480  0.3263  0.3455
   21MOL    C89 4929   3.759   7.443   4.076  0.5447 -0.3338  0.0548
   21MOL    C90 4930   3.785   7.592   4.096  0.0954  1.0822  0.1885
   21MOL    O91 4931   3.746   7.675   4.015  0.0601 -0.2383  0.2891
   21MOL    H92 4932   3.740   7.395   4.291  2.2198 -0.2357 -1.3432
   21MOL    H93 4933   3.748   7.173   4.196  0.5821  0.2343 -1.1209
   21MOL    H94 4934   3.600   7.195   4.102  0.3144 -0.4399  0.7455
   21MOL    H95 4935   3.593   7.193   4.276  1.7710 -1.3870  0.5816
   21MOL    H96 4936   3.699   7.424   3.987 -2.9489 -0.8107  2.3910
   21MOL    H97 4937   3.854   7.394   4.053 -0.1195 -0.7196 -1.9745
   21MOL    O98 4938   3.857   7.611   4.205  0.3101 -0.2373 -0.1430
   21MOL    C99 4939   3.901   7.750   4.230  0.4240  0.0016 -0.3402
   21MOL   C100 4940   3.868   7.765   4.380 -0.2324  0.2730 -0.1472
   21MOL   C101 4941   4.057   7.747   4.213 -0.0932 -0.1465 -0.3935
   21MOL   C102 4942   4.089   7.774   4.067 -0.5103 -0.8529 -0.2259
   21MOL   O103 4943   4.152   7.692   4.001  0.1914 -0.0059 -0.5975
   21MOL   H104 4944   3.858   7.828   4.167 -0.7460  0.5225  1.0741
   21MOL   H105 4945   3.914   7.687   4.441  0.7640 -0.1122 -1.3612
   21MOL   H106 4946   3.763   7.743   4.395 -0.3819  1.6655  0.8646
   21MOL   H107 4947   3.890   7.862   4.423 -0.1876  0.2516 -0.1221
   21MOL   H108 4948   4.092   7.647   4.241  0.7251  0.1451 -0.3711
   21MOL   H109 4949   4.106   7.824   4.272 -0.6926  0.6418 -0.9188
   21MOL   O110 4950   4.051   7.893   4.030  0.1133 -0.0682 -0.7571
   21MOL   C111 4951   4.061   7.947   3.905 -0.0266  0.4213  0.3561
   21MOL   C112 4952   3.931   0.041   3.870 -0.7473  0.4596 -0.3724
   21MOL   C113 4953   4.184   0.066   3.892  0.2660 -0.3335 -0.1543
   21MOL   C114 4954   4.210   0.115   3.752 -0.0892  0.7615  0.2207
   21MOL   O115 4955   4.263   0.226   3.742 -0.5855 -0.0673 -0.2179
   21MOL   H116 4956   4.070   7.868   3.831  1.6045 -0.0301  1.0075
   21MOL   H117 4957   3.862   7.948   3.826 -0.6573  0.0631  0.1264
   21MOL   H118 4958   3.947   0.113   3.790 -0.4995  1.3129  0.4343
   21MOL   H119 4959   3.879   0.089   3.954  0.3338  1.8986 -0.5244
   21MOL   H120 4960   4.270   0.023   3.944  0.0578  2.1610  2.3771
   21MOL   H121 4961   4.171   0.164   3.938 -0.7440 -0.5182 -0.0400
   21MOL   O122 4962   4.197   0.030   3.654  0.1316  0.0874  0.3125
   21MOL   C123 4963   4.221   0.073   3.514  0.0296  0.1155  0.0187
   21MOL   C124 4964   4.359   0.031   3.471 -0.1899  0.4749 -0.0710
   21MOL   C125 4965   4.105   0.018   3.435  0.1463 -0.1250  0.0563
   21MOL   C126 4966   4.041   0.115   3.334  0.5225 -0.2388 -0.5194
   21MOL   O127 4967   4.081   0.231   3.320  0.3459  0.3119 -0.1154
   21MOL   H128 4968   4.214   0.181   3.517  3.5225  0.4764 -1.9371
   21MOL   H129 4969   4.374   7.903   3.477  0.9715  0.6551  0.4638
   21MOL   H130 4970   4.434   0.073   3.537  0.2419 -0.4853  0.0609
   21MOL   H131 4971   4.377   0.067   3.369  1.7492  2.1848  0.8444
   21MOL   H132 4972   4.019   7.968   3.495 -0.5557  0.5556 -0.6091
   21MOL   H133 4973   4.135   7.910   3.377 -0.6444 -1.0134  0.9681
   21MOL   O134 4974   3.938   0.063   3.262 -0.1192 -0.3504  0.0575
   21MOL   C135 4975   3.861   0.138   3.173 -0.3137 -0.3624  0.4879
   21MOL   C136 4976   3.871   0.068   3.039  0.1885  0.4077 -0.5863
   21MOL   C137 4977   3.721   0.142   3.230  0.0385  0.3850 -0.2165
   21MOL   C138 4978   3.695   0.243   3.343  0.2563  0.4260  0.0861
   21MOL   O139 4979   3.626   0.208   3.440  0.3990  0.5521  0.0855
   21MOL   H140 4980   3.898   0.240   3.166  0.3898 -0.5457  1.4481
   21MOL   H141 4981   3.801   7.972   3.006 -0.6190  1.0069 -0.2633
   21MOL   H142 4982   3.969   0.026   3.014  1.0457  1.5167  0.8266
   21MOL   H143 4983   3.852   0.146   2.965 -0.6442  0.9860  0.2282
   21MOL   H144 4984   3.691   0.045   3.271 -0.6697  1.0003  0.7552
   21MOL   H145 4985   3.645   0.163   3.154 -0.2977  2.4557  0.6461
   21MOL   O146 4986   3.746   0.362   3.317  0.1590 -0.2141 -0.0176
   21MOL   C147 4987   3.754   0.462   3.420 -0.1616  0.1313 -0.1660
   21MOL   C148 4988   3.861   0.567   3.380 -0.0972 -0.1183  0.1083
   21MOL   C149 4989   3.614   0.524   3.432  0.1200 -0.4996  0.4365
   21MOL   C150 4990   3.579   0.606   3.553 -0.9524  0.0115  0.1238
   21MOL   O151 4991   3.515   0.559   3.649  0.0905 -0.2046  0.5016
   21MOL   H152 4992   3.781   0.402   3.507  0.9650  2.3991  1.1060
   21MOL   H153 4993   3.878   0.634   3.464 -0.5813 -0.6821  0.6634
   21MOL   H154 4994   3.827   0.618   3.289  0.6112 -3.1387 -1.9374
   21MOL   H155 4995   3.952   0.513   3.353  0.0394  0.6933 -1.1318
   21MOL   H156 4996   3.527   0.459   3.435 -1.4931  1.5835  0.3154
   21MOL   H157 4997   3.584   0.592   3.352 -0.3419 -0.0311  1.0017
   21MOL   O158 4998   3.620   0.735   3.536  0.5284  0.0079 -0.4342
   21MOL   C159 4999   3.606   0.830   3.641 -0.6607 -0.2110 -0.3901
   21MOL   C160 5000   3.746   0.867   3.682 -0.1523  0.8832 -0.0751
   21MOL   C161 5001   3.530   0.960   3.606 -0.4084 -0.2153 -0.3630
   21MOL   C162 5002   3.378   0.943   3.604 -0.4963  0.0132  0.3240
   21MOL   O163 5003   3.304   1.020   3.663  0.4337 -0.4007 -0.3259
   21MOL   H164 5004   3.554   0.783   3.724 -1.5703 -0.4437 -1.0849
   21MOL   H165 5005   3.791   0.916   3.596  0.4430 -0.1563 -0.3708
   21MOL   H166 5006   3.808   0.779   3.703 -0.6912  0.0141 -1.9660
   21MOL   H167 5007   3.752   0.941   3.762 -0.4204 -1.3334  2.0580
   21MOL   H168 5008   3.555   1.000   3.507  1.2913  0.4756  0.3163
   21MOL   H169 5009   3.555   1.036   3.680  1.9946 -2.6861  1.4494
   21MOL   O170 5010   3.338   0.847   3.520 -0.1280 -0.1776 -0.1833
   21MOL   C171 5011   3.211   0.804   3.511  1.0675 -0.3515 -0.4443
   21MOL   C172 5012   3.184   0.779   3.362  0.9913 -0.1625  0.1342
   21MOL   C173 5013   3.173   0.684   3.598  0.0287  0.7294  0.6125
   21MOL   C174 5014   3.128   0.716   3.747  0.8862 -0.1432  0.5026
   21MOL   O175 5015   3.007   0.734   3.770  0.8253  0.8427 -0.0265
   21MOL   H176 5016   3.143   0.884   3.542 -1.2891 -2.2674 -0.4759
   21MOL   H177 5017   3.234   0.684   3.344  2.2368  0.3335  0.9108
   21MOL   H178 5018   3.225   0.846   3.287 -1.0281  3.1375  1.8419
   21MOL   H179 5019   3.080   0.763   3.332  1.7687  1.5583 -3.7795
   21MOL   H180 5020   3.253   0.611   3.594  0.7377  1.5909 -1.9713
   21MOL   H181 5021   3.097   0.627   3.545  0.1085  2.6304 -1.6280
   21MOL   O182 5022   3.236   0.738   3.822 -0.0772 -0.2414  0.0131
   21MOL   C183 5023   3.223   0.740   3.961  0.2153  0.6209 -0.4079
   21MOL   C184 5024   3.235   0.596   4.008  0.1951 -0.5162 -0.0170
   21MOL   C185 5025   3.308   0.858   4.020 -0.6240  0.3294  0.7614
   21MOL   C186 5026   3.461   0.840   4.014 -0.6897 -0.1261  0.9652
   21MOL   O187 5027   3.527   0.927   3.963  0.0409 -0.3119 -0.2051
   21MOL   H188 5028   3.120   0.774   3.974  0.0675  0.4708 -1.1786
   21MOL   H189 5029   3.232   0.600   4.117  1.1919  0.1491 -0.0003
   21MOL   H190 5030   3.331   0.554   3.976 -0.2945 -2.2336  0.7059
   21MOL   H191 5031   3.159   0.531   3.966 -1.4535  1.8273 -0.7519
   21MOL   H192 5032   3.276   0.854   4.124  0.6778 -4.9782  1.0942
   21MOL   H193 5033   3.276   0.955   3.982 -2.4289 -1.5531 -2.7611
   21MOL   O194 5034   3.499   0.721   4.060  0.0911 -0.4265 -0.4814
   21MOL   C195 5035   3.635   0.680   4.069 -0.6438  0.1179  0.9662
   21MOL   C196 5036   3.661   0.682   4.222 -0.0852  0.3022  0.0800
   21MOL   C197 5037   3.645   0.548   3.988  0.1442 -0.0767  0.1103
   21MOL   C198 5038   3.787   0.493   4.001 -0.0686 -0.6160  0.4428
   21MOL   O199 5039   3.828   0.443   4.103 -0.4344  0.1062 -0.2623
   21MOL   H200 5040   3.713   0.744   4.027  0.4042 -2.2834 -0.8644
   21MOL   H201 5041   3.764   0.656   4.246  0.1862  0.5555 -0.7876
   21MOL   H202 5042   3.587   0.624   4.277 -0.1240  0.6267  0.3669
   21MOL   H203 5043   3.651   0.773   4.281  3.8105  1.0051 -0.2158
   21MOL   H204 5044   3.613   0.557   3.884  0.1380  1.6034  0.2440
   21MOL   H205 5045   3.581   0.481   4.045 -1.2971 -0.4003 -1.8338
   21MOL   O206 5046   3.858   0.515   3.887 -0.2138 -0.4449 -0.4855
   21MOL   C207 5047   4.000   0.516   3.896  0.2097 -0.0230  0.4702
   21MOL   C208 5048   4.065   0.491   3.757  0.0323  0.0971  0.1714
   21MOL   C209 5049   4.052   0.633   3.981 -0.1156 -0.0939 -0.7516
   21MOL   C210 5050   4.023   0.779   3.943 -0.1766  0.4060 -0.7231
   21MOL   O211 5051   3.947   0.852   4.001  0.0197 -0.4291  0.2842
   21MOL   H212 5052   4.029   0.427   3.952  1.9632  0.1976 -0.0453
   21MOL   H213 5053   4.019   0.402   3.713  0.6548  0.7001 -1.7052
   21MOL   H214 5054   4.171   0.471   3.772 -0.3095 -1.8933  0.0915
   21MOL   H215 5055   4.050   0.572   3.686  1.0158 -1.5967 -2.0303
   21MOL   H216 5056   4.161   0.638   3.980 -0.1298  0.5715  0.3148
   21MOL   H217 5057   4.021   0.617   4.084  2.2503 -0.6284 -0.0947
   21MOL   O218 5058   4.099   0.821   3.828 -0.6056  0.8652 -0.1016
   21MOL   C219 5059   4.098   0.959   3.789  0.0306  0.0434 -0.1074
   21MOL   C220 5060   4.196   1.048   3.870  1.4064 -0.7186  0.1388
   21MOL   C221 5061   4.119   0.958   3.636  0.7770  0.3378  0.3424
   21MOL   C222 5062   4.073   1.087   3.572  0.4236 -0.0051  0.8009
   21MOL   O223 5063   4.138   1.140   3.488  0.5074  0.0302  0.4223
   21MOL   H224 5064   4.000   1.005   3.805 -0.4630 -1.3591  1.0289
   21MOL   H225 5065   4.196   1.014   3.973 -0.5128 -0.2884  0.2976
   21MOL   H226 5066   4.183   1.156   3.862  0.3691 -0.9017 -0.6770
   21MOL   H227 5067   4.299   1.029   3.838  1.0463 -0.5850 -1.1319
   21MOL   H228 5068   4.061   0.876   3.595  0.1599 -0.7636  3.2560
   21MOL   H229 5069   4.226   0.945   3.619  0.6379 -1.3771  0.6933
   21MOL   O230 5070   3.951   1.137   3.626 -0.0573  0.1376 -0.5508
   21MOL   C231 5071   3.888   1.260   3.575 -0.5591 -0.1448 -0.2782
   21MOL   C232 5072   3.742   1.224   3.582  0.1955 -0.2342 -0.5041
   21MOL   C233 5073   3.921   1.374   3.680  0.0792 -0.4944 -0.0395
   21MOL   C234 5074   4.052   1.446   3.649 -0.2554  0.2902 -0.2232
   21MOL   O235 5075   4.052   1.563   3.618  0.5273  0.0500  0.8872
   21MOL   H236 5076   3.906   1.291   3.472 -1.2055 -0.6672 -0.5530
   21MOL   H237 5077   3.712   1.188   3.680  0.3472  0.2418 -0.2817
   21MOL   H238 5078   3.727   1.137   3.517 -0.7679  2.5786 -4.2744
   21MOL   H239 5079   3.675   1.308   3.566 -0.0000 -0.5569 -1.4157
   21MOL   H240 5080   3.914   1.333   3.780 -0.7575 -0.1248  0.0598
   21MOL   H241 5081   3.844   1.451   3.674 -0.2866 -0.8558  0.0103
   21MOL   H242 5082   4.141   1.383   3.660 -0.6438 -0.3260 -0.5798
   22MOL     O1 5083   5.455   5.124   1.403 -0.3682  0.1541 -0.0500
   22MOL     C2 5084   5.592   5.115   1.435  0.2511  0.6031  0.4098
   22MOL     C3 5085   5.629   5.254   1.492  0.2192 -0.0738  0.2686
   22MOL     C4 5086   5.614   4.996   1.533  0.4143 -0.1149  1.1962
   22MOL     C5 5087   5.756   4.989   1.596 -0.4215  0.3483  0.1137
   22MOL     O6 5088   5.856   4.958   1.529 -0.0579  0.2621  0.8693
   22MOL     H7 5089   5.643   5.095   1.341  1.4960 -1.5111  1.4901
   22MOL     H8 5090   5.568   5.269   1.581 -1.9966 -0.6690 -1.1132
   22MOL     H9 5091   5.621   5.328   1.413  0.3991  0.7447  1.0101
   22MOL    H10 5092   5.734   5.261   1.521 -0.5640  0.8211  3.0284
   22MOL    H11 5093   5.608   4.904   1.476 -0.7779  0.7703 -0.1557
   22MOL    H12 5094   5.538   4.978   1.610  0.0240  0.5730  0.9795
   22MOL    H13 5095   5.426   5.043   1.365  0.4749  0.1895 -0.7873
   22MOL    O14 5096   5.747   5.026   1.723 -0.3311 -0.1047 -0.0277
   22MOL    C15 5097   5.869   5.030   1.798  0.0234  0.2453  0.2318
   22MOL    C16 5098   5.888   5.169   1.857  0.3246  0.0631  0.2977
   22MOL    C17 5099   5.892   4.937   1.913  1.3344  0.4627  0.9589
   22MOL    C18 5100   5.887   4.783   1.882 -0.2308  0.3334  0.4701
   22MOL    O19 5101   5.846   4.734   1.778  0.6822 -0.2118  0.1061
   22MOL    H20 5102   5.955   5.006   1.736  0.1855 -2.0988  1.3125
   22MOL    H21 5103   5.985   5.167   1.906  0.7922  0.1579 -0.6145
   22MOL    H22 5104   5.815   5.195   1.934  1.1319 -0.7060  1.3373
   22MOL    H23 5105   5.891   5.252   1.787 -0.9950 -0.1007  0.0266
   22MOL    H24 5106   5.820   4.961   1.990  1.3008 -0.5690  1.2479
   22MOL    H25 5107   5.988   4.961   1.959  1.5223 -0.1631  0.8922
   22MOL    O26 5108   5.938   4.704   1.976 -0.3951  0.1779 -0.3298
   22MOL    C27 5109   5.962   4.560   1.939  0.0004  0.6378  0.5685
   22MOL    C28 5110   6.086   4.521   2.015 -0.1606  0.1099  0.2773
   22MOL    C29 5111   5.840   4.467   1.958  0.2226  1.2934  0.5953
   22MOL    C30 5112   5.848   4.326   1.904  0.3100 -0.7082  0.2157
   22MOL    O31 5113   5.794   4.233   1.962  0.0652 -0.1808  0.3057
   22MOL    H32 5114   5.992   4.545   1.835  0.5325 -0.7131  0.9057
   22MOL    H33 5115   6.105   4.414   2.012  2.9073  0.6371 -1.6188
   22MOL    H34 5116   6.052   4.539   2.117 -2.3571  0.6457 -0.5340
   22MOL    H35 5117   6.172   4.585   1.991  0.2559 -0.1520  1.0591
   22MOL    H36 5118   5.751   4.512   1.914 -1.5540  1.3562  4.0740
   22MOL    H37 5119   5.815   4.461   2.064  3.6599  0.0492  1.3845
   22MOL    O38 5120   5.927   4.315   1.800  0.1480  0.1339 -0.2477
   22MOL    C39 5121   5.942   4.188   1.742 -0.5312 -0.3474 -0.2911
   22MOL    C40 5122   5.943   4.203   1.588  0.1910 -0.6695  0.0818
   22MOL    C41 5123   6.062   4.124   1.815 -0.5185 -0.2153 -0.1339
   22MOL    C42 5124   6.078   3.984   1.769  0.2625 -0.4708 -0.3193
   22MOL    O43 5125   6.060   3.883   1.839 -0.4243  0.3162  0.0564
   22MOL    H44 5126   5.860   4.117   1.752  0.6122 -1.4701  1.4296
   22MOL    H45 5127   6.039   4.241   1.554 -0.3507  0.7380  0.0953
   22MOL    H46 5128   5.855   4.261   1.560 -1.0914 -2.4647  0.2736
   22MOL    H47 5129   5.932   4.112   1.530 -0.0943  0.5995 -1.9062
   22MOL    H48 5130   6.035   4.116   1.920 -1.0210 -2.3725 -0.3982
   22MOL    H49 5131   6.146   4.193   1.807 -1.3194  0.8504  0.6065
   22MOL    O50 5132   6.126   3.986   1.642  0.3120 -0.0330 -0.1598
   22MOL    C51 5133   6.183   3.866   1.579 -0.3020  0.1256  0.3157
   22MOL    C52 5134   6.118   3.835   1.438  0.0768 -0.7022 -0.2179
   22MOL    C53 5135   6.331   3.890   1.565 -0.0756 -0.6952 -0.5606
   22MOL    C54 5136   6.419   3.771   1.526  0.1407  0.1325 -0.6744
   22MOL    O55 5137   6.400   3.661   1.579 -0.0694 -0.4512  0.2707
   22MOL    H56 5138   6.165   3.781   1.646 -0.8035 -0.5798 -0.7040
   22MOL    H57 5139   6.138   3.917   1.368 -2.0829  1.7672  1.9602
   22MOL    H58 5140   6.009   3.830   1.444  0.1584  0.3329  3.2845
   22MOL    H59 5141   6.155   3.735   1.414  3.1543  0.3409 -0.0574
   22MOL    H60 5142   6.361   3.930   1.662 -0.9043 -0.9561 -0.1974
   22MOL    H61 5143   6.370   3.966   1.496  1.2708 -1.2898 -0.4709
   22MOL    O62 5144   6.509   3.810   1.439  0.0999 -0.3120  0.6976
   22MOL    C63 5145   6.631   3.726   1.417 -0.3895 -0.1148  0.4812
   22MOL    C64 5146   6.596   3.626   1.309 -0.0623  0.3570 -0.0160
   22MOL    C65 5147   6.752   3.801   1.373  0.4487 -0.3474 -0.2341
   22MOL    C66 5148   6.783   3.914   1.476 -0.3394 -0.7664 -0.4874
   22MOL    O67 5149   6.855   3.887   1.572 -0.5710 -0.2224  0.4948
   22MOL    H68 5150   6.657   3.676   1.510 -1.4306 -1.0204  0.3003
   22MOL    H69 5151   6.513   3.563   1.341  1.0593 -0.0095  2.2154
   22MOL    H70 5152   6.678   3.560   1.283 -0.4090  0.2428 -0.8661
   22MOL    H71 5153   6.566   3.672   1.214  0.8916 -0.4923 -0.7453
   22MOL    H72 5154   6.730   3.837   1.272 -1.1337 -1.0604 -0.1568
   22MOL    H73 5155   6.844   3.742   1.375  2.6787  2.9903 -0.5872
   22MOL    O74 5156   6.733   4.036   1.444  0.5114  0.0195 -0.3220
   22MOL    C75 5157   6.775   4.146   1.519  0.0497 -0.4802  0.0823
   22MOL    C76 5158   6.916   4.179   1.454 -0.2168 -1.2846  0.5133
   22MOL    C77 5159   6.674   4.261   1.511 -0.8534 -0.0656  0.1214
   22MOL    C78 5160   6.542   4.240   1.578  0.6849  0.2756  1.1706
   22MOL    O79 5161   6.511   4.140   1.651  0.2400  0.5396 -0.7680
   22MOL    H80 5162   6.796   4.125   1.624  0.6646  0.5605  0.1703
   22MOL    H81 5163   6.970   4.254   1.511 -0.5926 -1.5215  1.1772
   22MOL    H82 5164   6.901   4.214   1.352  0.5530  1.2788  1.2341
   22MOL    H83 5165   6.979   4.089   1.448 -0.4536 -1.3384 -1.4788
   22MOL    H84 5166   6.650   4.284   1.407 -0.1350 -1.1829 -0.2948
   22MOL    H85 5167   6.729   4.346   1.552  1.6866 -1.3455 -0.5713
   22MOL    O86 5168   6.462   4.350   1.554 -0.1715 -0.1654  0.7073
   22MOL    C87 5169   6.319   4.347   1.578 -0.1785 -0.7386  0.1443
   22MOL    C88 5170   6.294   4.391   1.722 -0.3352  0.6362 -0.4029
   22MOL    C89 5171   6.241   4.424   1.464 -0.1062  0.4550 -0.3261
   22MOL    C90 5172   6.230   4.344   1.331 -0.4946 -0.0384 -0.6685
   22MOL    O91 5173   6.127   4.290   1.291 -0.0910 -0.0571 -0.2309
   22MOL    H92 5174   6.293   4.242   1.575  0.9897 -1.1332  2.6140
   22MOL    H93 5175   6.338   4.325   1.796 -1.6290  0.5104  0.2657
   22MOL    H94 5176   6.187   4.397   1.741 -0.3264  2.1337 -0.7269
   22MOL    H95 5177   6.332   4.493   1.734  0.1034  0.7552 -2.5023
   22MOL    H96 5178   6.306   4.510   1.450 -0.2871  0.7929  0.8241
   22MOL    H97 5179   6.144   4.456   1.501 -1.1774 -1.7296 -1.1499
   22MOL    O98 5180   6.353   4.350   1.264 -0.2267  0.0705  0.5173
   22MOL    C99 5181   6.380   4.257   1.152  0.3295  0.2139 -0.3743
   22MOL   C100 5182   6.483   4.320   1.060 -0.1159  0.2481 -0.6261
   22MOL   C101 5183   6.427   4.132   1.242 -0.4837  0.3491  0.5286
   22MOL   C102 5184   6.483   4.023   1.152 -0.6227 -0.6603  0.1943
   22MOL   O103 5185   6.418   3.921   1.126  0.1432 -0.0487 -0.2196
   22MOL   H104 5186   6.291   4.221   1.100 -0.7676  1.6631  0.4679
   22MOL   H105 5187   6.428   4.407   1.027  1.1269  2.1170  2.0567
   22MOL   H106 5188   6.491   4.266   0.965 -3.7492 -3.5133  1.0540
   22MOL   H107 5189   6.579   4.342   1.108  0.4082  0.0329 -1.5709
   22MOL   H108 5190   6.342   4.081   1.287  0.3883  0.0696  1.8841
   22MOL   H109 5191   6.498   4.154   1.322  0.4458 -0.3803 -0.0733
   22MOL   O110 5192   6.601   4.059   1.096 -0.2255 -0.9031 -0.5119
   22MOL   C111 5193   6.671   3.979   1.004 -0.2195  0.2377 -0.0321
   22MOL   C112 5194   6.626   4.003   0.854  0.2138  0.3955  0.0546
   22MOL   C113 5195   6.828   3.989   1.026  0.3163  0.4740  0.2993
   22MOL   C114 5196   6.890   4.111   0.964 -0.2978 -0.6212 -0.5543
   22MOL   O115 5197   6.958   4.094   0.864 -0.1999 -0.7151 -0.0071
   22MOL   H116 5198   6.644   3.874   1.016 -0.1109  0.2435  0.2864
   22MOL   H117 5199   6.696   3.951   0.789  1.6596  0.9141  1.1672
   22MOL   H118 5200   6.635   4.109   0.827 -1.3353  0.3983 -0.5296
   22MOL   H119 5201   6.521   3.975   0.843  0.3419  0.5022 -1.5894
   22MOL   H120 5202   6.871   3.896   0.987 -2.2988 -0.7468  0.2070
   22MOL   H121 5203   6.840   3.982   1.135 -1.9072 -3.9661  0.3624
   22MOL   O122 5204   6.841   4.227   1.007 -0.5380 -0.0176  0.1253
   22MOL   C123 5205   6.900   4.344   0.942 -0.0968 -0.2538 -0.5435
   22MOL   C124 5206   6.787   4.402   0.853  0.6237  0.2069 -0.8705
   22MOL   C125 5207   6.922   4.449   1.058  0.0295 -0.5543  0.3456
   22MOL   C126 5208   7.074   4.461   1.095  0.8318 -0.2753 -0.4313
   22MOL   O127 5209   7.130   4.572   1.072 -0.4617 -0.5793  0.3758
   22MOL   H128 5210   6.992   4.319   0.889  0.7752 -1.1949  1.3506
   22MOL   H129 5211   6.761   4.337   0.770 -1.9998  0.0726 -0.0132
   22MOL   H130 5212   6.815   4.493   0.799  1.5657  0.1353 -0.5027
   22MOL   H131 5213   6.698   4.420   0.914  0.7819  0.2752 -0.6627
   22MOL   H132 5214   6.881   4.429   1.156  1.5956  0.1530  1.1612
   22MOL   H133 5215   6.896   4.552   1.034  1.5557 -0.7322 -2.2380
   22MOL   O134 5216   7.120   4.350   1.140 -0.3629  0.4085  0.0569
   22MOL   C135 5217   7.256   4.337   1.179 -0.2216  0.2820 -0.2784
   22MOL   C136 5218   7.227   4.263   1.311 -0.3339 -0.8263 -0.2821
   22MOL   C137 5219   7.345   4.252   1.092  0.0116 -0.5502  0.1032
   22MOL   C138 5220   7.383   4.323   0.964 -0.0298 -0.0942  0.3325
   22MOL   O139 5221   7.483   4.392   0.946 -0.1170  0.0651 -0.1001
   22MOL   H140 5222   7.300   4.433   1.206 -1.5032  1.9283 -3.7486
   22MOL   H141 5223   7.314   4.225   1.364  1.1930 -0.7511 -2.6605
   22MOL   H142 5224   7.173   4.173   1.281  0.2301 -1.0882 -0.5205
   22MOL   H143 5225   7.174   4.322   1.386  2.0975  0.1271  0.7276
   22MOL   H144 5226   7.296   4.158   1.068 -0.3502  0.2531 -2.3571
   22MOL   H145 5227   7.435   4.239   1.152  0.7391 -1.5077 -1.1679
   22MOL   O146 5228   7.275   4.313   0.873 -0.5067 -0.5130  0.0551
   22MOL   C147 5229   7.284   4.355   0.730  0.3934  0.3584  0.0920
   22MOL   C148 5230   7.185   4.275   0.642  0.1278 -0.0358 -0.8434
   22MOL   C149 5231   7.253   4.503   0.750 -1.0058 -0.2901  0.0896
   22MOL   C150 5232   7.263   4.593   0.625 -0.1905 -0.0554  0.4996
   22MOL   O151 5233   7.223   4.711   0.624  0.0814  0.9302 -0.6506
   22MOL   H152 5234   7.386   4.359   0.693 -0.4161 -1.5848 -2.5374
   22MOL   H153 5235   7.198   4.291   0.535 -1.1302  1.7909 -0.7550
   22MOL   H154 5236   7.080   4.297   0.663  0.5338  1.9204 -0.7387
   22MOL   H155 5237   7.217   4.174   0.668 -0.7997  0.2594  1.5864
   22MOL   H156 5238   7.322   4.552   0.819  1.9843 -0.9036 -2.3173
   22MOL   H157 5239   7.155   4.517   0.795 -1.9112 -1.5792 -1.4134
   22MOL   O158 5240   7.339   4.540   0.526  0.2365  0.2513 -0.7223
   22MOL   C159 5241   7.346   4.604   0.404 -0.2288 -0.0472 -0.0133
   22MOL   C160 5242   7.462   4.539   0.334  0.0368  0.1179 -0.3422
   22MOL   C161 5243   7.211   4.566   0.321  0.4145  0.3345 -0.5241
   22MOL   C162 5244   7.188   4.648   0.189 -0.5472  0.5056 -0.0727
   22MOL   O163 5245   7.268   4.733   0.155  0.1367  0.5936 -0.0096
   22MOL   H164 5246   7.366   4.710   0.414 -1.5380  0.1996 -0.0111
   22MOL   H165 5247   7.560   4.555   0.379 -0.0363 -1.8787  0.5738
   22MOL   H166 5248   7.477   4.580   0.234 -1.0655  0.2514 -0.4629
   22MOL   H167 5249   7.453   4.432   0.320  1.4076 -0.0449  0.0123
   22MOL   H168 5250   7.134   4.592   0.394  1.2283 -2.4336  1.4383
   22MOL   H169 5251   7.201   4.459   0.303  0.0202  0.1530  0.7135
   22MOL   O170 5252   7.081   4.604   0.124  0.0668  0.4828  0.8134
   22MOL   C171 5253   7.053   4.670   7.976  0.0352 -0.1599  0.7354
   22MOL   C172 5254   7.113   4.581   7.869 -0.1215 -0.0018  0.1187
   22MOL   C173 5255   6.901   4.691   7.952  0.0409  0.2332 -0.2185
   22MOL   C174 5256   6.858   4.821   0.047  0.3140  0.3347  0.2428
   22MOL   O175 5257   6.811   4.916   7.969  0.2657  0.4617 -0.3988
   22MOL   H176 5258   7.097   4.769   7.972 -2.9399  1.1302 -3.9657
   22MOL   H177 5259   7.075   4.479   7.867 -1.8729  0.6523 -1.0908
   22MOL   H178 5260   7.220   4.571   7.887  0.4681  0.3747 -2.8813
   22MOL   H179 5261   7.108   4.618   7.767 -1.3868 -0.9004 -0.1555
   22MOL   H180 5262   6.832   4.612   0.002 -2.1489  2.5356  1.1918
   22MOL   H181 5263   6.892   4.715   7.846 -0.1192 -1.3344 -0.5640
   22MOL   O182 5264   6.873   4.799   0.180  0.7351 -0.4667 -0.0313
   22MOL   C183 5265   6.870   4.911   0.267 -0.3984  0.2740  0.3355
   22MOL   C184 5266   6.814   4.841   0.394 -0.2009 -0.4573  0.9234
   22MOL   C185 5267   7.010   4.967   0.277 -0.6868 -0.3316 -0.1360
   22MOL   C186 5268   7.005   5.096   0.357  0.2887 -0.3802 -0.6822
   22MOL   O187 5269   7.000   5.205   0.297  0.2744 -0.4212  0.1389
   22MOL   H188 5270   6.799   4.984   0.229 -1.2736 -0.4821  0.5005
   22MOL   H189 5271   6.888   4.790   0.457 -0.1227 -2.1342 -0.4847
   22MOL   H190 5272   6.733   4.777   0.359 -1.5237  0.1262  2.8414
   22MOL   H191 5273   6.767   4.917   0.457 -0.5316  1.8252 -1.9870
   22MOL   H192 5274   7.052   4.973   0.177  0.8243 -0.6945  0.4695
   22MOL   H193 5275   7.081   4.899   0.322 -0.1643 -0.4282 -1.0993
   22MOL   O194 5276   7.028   5.082   0.484  0.7966  0.4019 -0.2950
   22MOL   C195 5277   7.017   5.200   0.570  0.8432  0.0988  0.5763
   22MOL   C196 5278   6.973   5.157   0.705  0.0669 -0.1633  0.1154
   22MOL   C197 5279   7.155   5.290   0.557  0.4863 -0.1470  0.1374
   22MOL   C198 5280   7.149   5.423   0.627 -0.3911  0.3219 -0.4257
   22MOL   O199 5281   7.041   5.484   0.641 -0.3952 -0.2485 -0.2409
   22MOL   H200 5282   6.929   5.251   0.531  1.4701  1.0306  0.3631
   22MOL   H201 5283   6.883   5.096   0.694 -0.5070  0.3436  1.9324
   22MOL   H202 5284   6.936   5.244   0.758  0.4036 -0.7778  1.3840
   22MOL   H203 5285   7.053   5.108   0.761 -1.4994 -2.3367  0.5418
   22MOL   H204 5286   7.184   5.302   0.453  0.2382 -3.7742 -0.4165
   22MOL   H205 5287   7.239   5.226   0.582  0.0467 -0.6736  0.2636
   22MOL   O206 5288   7.270   5.452   0.679 -0.1390  0.5898 -0.5247
   22MOL   C207 5289   7.284   5.566   0.751  0.0342 -0.5701 -0.0502
   22MOL   C208 5290   7.353   5.522   0.889 -0.0813 -0.2798  0.1500
   22MOL   C209 5291   7.364   5.666   0.659  0.1699  0.8348  0.5039
   22MOL   C210 5292   7.398   5.802   0.721 -0.1542  0.7820  0.3495
   22MOL   O211 5293   7.382   5.823   0.848 -0.3430 -0.1296  0.4124
   22MOL   H212 5294   7.188   5.613   0.767  0.3950  0.7999 -1.7012
   22MOL   H213 5295   7.334   5.597   0.966 -0.8206 -0.4993  0.1848
   22MOL   H214 5296   7.461   5.507   0.888 -0.0958 -0.3989 -1.5960
   22MOL   H215 5297   7.299   5.430   0.913 -0.3004 -0.3580 -0.6072
   22MOL   H216 5298   7.313   5.677   0.563  1.9558  0.2622 -0.5411
   22MOL   H217 5299   7.459   5.616   0.637  0.0052  0.6776  0.1427
   22MOL   O218 5300   7.444   5.895   0.636 -0.4151 -0.7204  0.1016
   22MOL   C219 5301   7.487   6.028   0.681  0.2807 -0.7170 -0.6053
   22MOL   C220 5302   7.637   6.017   0.726 -0.3591 -0.8219 -0.2121
   22MOL   C221 5303   7.458   6.133   0.574  0.0825 -0.9085  0.3007
   22MOL   C222 5304   7.483   6.269   0.625  0.9373  0.1463  0.1748
   22MOL   O223 5305   7.584   6.325   0.583 -0.3631  0.4145 -0.5806
   22MOL   H224 5306   7.435   6.049   0.774  1.7636 -2.3595  0.6404
   22MOL   H225 5307   7.674   6.113   0.763 -1.3566 -0.0321 -1.2205
   22MOL   H226 5308   7.711   6.000   0.647  0.5720 -0.9273  0.6642
   22MOL   H227 5309   7.657   5.949   0.809  3.6138 -0.3190 -0.6607
   22MOL   H228 5310   7.352   6.126   0.550  0.4470 -0.4261 -1.5497
   22MOL   H229 5311   7.527   6.114   0.493 -0.4606 -1.0843 -0.1194
   22MOL   O230 5312   7.379   6.317   0.700  0.4998 -0.2249  1.1241
   22MOL   C231 5313   7.379   6.454   0.737  0.1845 -0.7004 -0.4524
   22MOL   C232 5314   7.285   6.530   0.643 -0.2155  0.0021 -0.5981
   22MOL   C233 5315   7.331   6.458   0.884 -0.3150 -1.1785 -0.0155
   22MOL   C234 5316   7.445   6.440   0.983  0.2546 -0.2605 -0.5614
   22MOL   O235 5317   7.545   6.513   0.970 -0.4719 -0.5021 -0.0341
   22MOL   H236 5318   7.478   6.500   0.736 -0.5253  0.8508 -0.5675
   22MOL   H237 5319   7.182   6.510   0.674  0.1089  1.0260  1.2527
   22MOL   H238 5320   7.288   6.507   0.537 -0.9380 -1.4349 -0.3173
   22MOL   H239 5321   7.309   6.635   0.659  0.5940 -0.2840  0.1287
   22MOL   H240 5322   7.247   6.389   0.895 -0.9496 -0.6161 -1.2332
   22MOL   H241 5323   7.287   6.556   0.902 -0.1797 -1.1331  0.0691
   22MOL   H242 5324   7.430   6.375   1.069  0.1627  2.6039  1.6863
   23MOL     O1 5325   1.799   5.493   3.100  0.4372  0.5200  0.5388
   23MOL     C2 5326   1.871   5.386   3.050  0.3097 -0.5264  0.1952
   23MOL     C3 5327   1.940   5.305   3.160  0.4274 -0.5871  0.0688
   23MOL     C4 5328   1.763   5.302   2.990 -0.2235 -0.7071  0.0911
   23MOL     C5 5329   1.802   5.215   2.875  0.3569 -0.1607 -0.1748
   23MOL     O6 5330   1.905   5.233   2.811  0.1727  0.1210 -0.0174
   23MOL     H7 5331   1.936   5.436   2.978 -0.2366 -0.7167 -0.4296
   23MOL     H8 5332   1.999   5.223   3.118 -0.4214  0.4388 -3.2417
   23MOL     H9 5333   1.869   5.251   3.222 -0.7824 -1.1645 -1.8058
   23MOL    H10 5334   2.008   5.366   3.219  0.8708  0.4579 -1.4909
   23MOL    H11 5335   1.691   5.374   2.951  0.6758  0.4797  0.5777
   23MOL    H12 5336   1.709   5.240   3.062 -2.7011  0.9231 -0.3226
   23MOL    H13 5337   1.787   5.556   3.031  0.5164  0.0108  0.0557
   23MOL    O14 5338   1.713   5.119   2.854 -0.1981 -0.4395  0.2223
   23MOL    C15 5339   1.746   5.010   2.763 -0.0219  0.0184 -0.4254
   23MOL    C16 5340   1.813   4.900   2.850  0.1037  0.2105 -0.2958
   23MOL    C17 5341   1.617   4.960   2.687  0.1593 -0.1183  0.2521
   23MOL    C18 5342   1.567   5.050   2.573 -0.1383 -0.0167 -0.3174
   23MOL    O19 5343   1.634   5.140   2.518  0.3449 -0.4875 -0.3798
   23MOL    H20 5344   1.822   5.049   2.695  0.5620 -0.1168  0.1427
   23MOL    H21 5345   1.812   4.808   2.791  1.3812  1.0233 -1.6252
   23MOL    H22 5346   1.750   4.876   2.936  0.5615 -0.3100 -0.1011
   23MOL    H23 5347   1.913   4.922   2.887  0.0520  2.0378 -1.1918
   23MOL    H24 5348   1.534   4.941   2.756  0.8117  0.6238  1.2494
   23MOL    H25 5349   1.647   4.871   2.631  2.4510  1.2206 -0.6965
   23MOL    O26 5350   1.444   5.015   2.543 -0.1494 -0.1250  0.2436
   23MOL    C27 5351   1.362   5.092   2.450  0.1140  0.5847  0.1167
   23MOL    C28 5352   1.356   5.009   2.328 -0.3186 -0.3379  0.6886
   23MOL    C29 5353   1.223   5.112   2.504  0.4916 -0.2644 -0.1536
   23MOL    C30 5354   1.132   5.213   2.430 -0.5029 -0.2006 -0.3609
   23MOL    O31 5355   1.138   5.334   2.446 -0.1520 -0.1905 -0.5203
   23MOL    H32 5356   1.407   5.188   2.422  0.9823 -0.5413 -2.5416
   23MOL    H33 5357   1.457   4.978   2.300  0.5675  2.0379  1.1580
   23MOL    H34 5358   1.325   5.065   2.240  0.2662  0.3298  0.9085
   23MOL    H35 5359   1.305   4.914   2.342 -1.0688  0.3987  3.1357
   23MOL    H36 5360   1.242   5.142   2.607 -0.3616 -1.1686  0.2782
   23MOL    H37 5361   1.175   5.015   2.517 -1.7923  0.7369 -0.8302
   23MOL    O38 5362   1.050   5.148   2.347  0.1822 -0.6830 -0.0852
   23MOL    C39 5363   0.959   5.210   2.266  0.1110 -0.8977 -0.7689
   23MOL    C40 5364   0.946   5.114   2.140 -0.3903 -0.5788 -0.4175
   23MOL    C41 5365   0.826   5.236   2.342 -0.5594  0.8602 -0.0725
   23MOL    C42 5366   0.789   5.112   2.424  0.1464 -0.1523 -0.6049
   23MOL    O43 5367   0.722   5.023   2.386  0.3943 -0.1846  0.7241
   23MOL    H44 5368   1.006   5.303   2.234  0.3778 -0.6256  0.3897
   23MOL    H45 5369   0.859   5.155   2.091 -1.0730  0.0842  1.3228
   23MOL    H46 5370   0.928   5.011   2.172  0.8234 -0.2023  1.5487
   23MOL    H47 5371   1.034   5.113   2.076  0.4759  0.5575  0.7253
   23MOL    H48 5372   0.763   5.273   2.261  0.3348  2.6715  0.0191
   23MOL    H49 5373   0.838   5.323   2.408 -3.0184  1.2407 -0.0699
   23MOL    O50 5374   0.834   5.123   2.552 -0.8661  0.0807  0.3504
   23MOL    C51 5375   0.820   5.025   2.652  0.3953  0.4948  0.0663
   23MOL    C52 5376   0.944   5.036   2.740  0.2621  0.5886 -0.2358
   23MOL    C53 5377   0.687   5.051   2.729  0.4330  0.1749 -0.2914
   23MOL    C54 5378   0.667   4.936   2.829  0.5757 -0.0844  0.8316
   23MOL    O55 5379   0.665   4.955   2.949 -0.0551 -0.0377 -0.1626
   23MOL    H56 5380   0.814   4.925   2.607 -2.6879  1.3998 -1.7139
   23MOL    H57 5381   0.940   5.124   2.804  0.1842 -0.6907  1.5641
   23MOL    H58 5382   1.036   5.042   2.681 -1.0919  1.1591 -2.3361
   23MOL    H59 5383   0.953   4.951   2.807  1.9381  1.3552  0.5402
   23MOL    H60 5384   0.595   5.055   2.671  0.6333  0.0333 -0.6156
   23MOL    H61 5385   0.692   5.147   2.781  0.5738  0.7246 -1.3064
   23MOL    O62 5386   0.647   4.822   2.760  0.0580 -0.6287  0.7286
   23MOL    C63 5387   0.644   4.699   2.830  0.3539 -0.0246 -0.1859
   23MOL    C64 5388   0.536   4.604   2.781 -0.1775  0.5540  0.1612
   23MOL    C65 5389   0.781   4.646   2.844  0.1318  0.1674  0.1499
   23MOL    C66 5390   0.848   4.597   2.716  0.2642 -0.5800  0.4883
   23MOL    O67 5391   0.816   4.487   2.668 -0.6055 -0.0319 -0.1113
   23MOL    H68 5392   0.606   4.724   2.929  0.0960 -1.0650 -0.0210
   23MOL    H69 5393   0.439   4.652   2.792 -1.2520 -1.4460 -0.3504
   23MOL    H70 5394   0.539   4.515   2.843 -4.2625  0.0898 -0.1782
   23MOL    H71 5395   0.561   4.579   2.677 -1.8762 -2.2763  0.3951
   23MOL    H72 5396   0.786   4.562   2.914  0.2361 -0.5967 -0.7708
   23MOL    H73 5397   0.843   4.718   2.898  1.7801 -1.4024  0.3785
   23MOL    O74 5398   0.928   4.696   2.664 -0.1955  0.0806 -0.1649
   23MOL    C75 5399   1.014   4.673   2.553 -0.8528  0.6651  0.8679
   23MOL    C76 5400   0.966   4.756   2.435  0.0877  0.5185 -0.4799
   23MOL    C77 5401   1.167   4.689   2.591  0.7317 -0.0256 -0.3177
   23MOL    C78 5402   1.229   4.581   2.685 -0.0686 -0.6318  0.3436
   23MOL    O79 5403   1.334   4.597   2.742  0.0343  0.2172 -0.5499
   23MOL    H80 5404   0.986   4.571   2.524  0.1593  0.1556  1.6294
   23MOL    H81 5405   0.860   4.750   2.414 -0.1318 -1.6163  1.0297
   23MOL    H82 5406   1.026   4.750   2.344 -2.0310  0.9716 -1.9254
   23MOL    H83 5407   0.969   4.862   2.459 -1.0895  0.3963  0.2586
   23MOL    H84 5408   1.177   4.779   2.651  1.7309 -0.6630  0.4917
   23MOL    H85 5409   1.231   4.691   2.503 -1.9739 -2.3081 -2.4503
   23MOL    O86 5410   1.168   4.462   2.678 -0.0533  0.2391  0.2018
   23MOL    C87 5411   1.206   4.342   2.743  0.3372  0.2809  0.0894
   23MOL    C88 5412   1.088   4.277   2.813  0.2321  0.8868 -0.5258
   23MOL    C89 5413   1.272   4.247   2.635 -0.3116  0.1194  0.7637
   23MOL    C90 5414   1.420   4.283   2.595 -0.3820  0.7540 -0.5145
   23MOL    O91 5415   1.513   4.208   2.629 -0.2309  0.2860  0.8763
   23MOL    H92 5416   1.287   4.362   2.812  0.3393  0.9805 -0.1120
   23MOL    H93 5417   1.116   4.183   2.859  0.6889  1.7341  0.9505
   23MOL    H94 5418   1.010   4.233   2.750 -0.4410  1.0215  0.2009
   23MOL    H95 5419   1.045   4.336   2.894 -4.2439  1.1450 -2.9201
   23MOL    H96 5420   1.217   4.259   2.541 -0.9281 -0.8724  0.9873
   23MOL    H97 5421   1.264   4.143   2.664  0.0060  0.2371  1.2812
   23MOL    O98 5422   1.431   4.399   2.531 -0.2048 -0.4320  0.6063
   23MOL    C99 5423   1.553   4.445   2.480 -0.0224 -0.1519 -0.6847
   23MOL   C100 5424   1.518   4.468   2.334 -0.4032  0.2498  0.5702
   23MOL   C101 5425   1.596   4.569   2.561  0.4464 -0.2801 -0.4885
   23MOL   C102 5426   1.733   4.623   2.524 -0.8544  0.3529 -0.7948
   23MOL   O103 5427   1.751   4.733   2.472  0.0286 -0.0544  0.3574
   23MOL   H104 5428   1.626   4.364   2.477  2.9528  2.4680 -2.2556
   23MOL   H105 5429   1.484   4.375   2.287  0.3629 -0.4775  1.4285
   23MOL   H106 5430   1.614   4.473   2.283  0.2069 -3.3090  1.2398
   23MOL   H107 5431   1.463   4.561   2.319  0.4874  0.4039 -2.0055
   23MOL   H108 5432   1.573   4.549   2.666 -0.0427 -4.3704 -1.2681
   23MOL   H109 5433   1.532   4.652   2.534 -0.3005 -0.7738 -0.2323
   23MOL   O110 5434   1.833   4.542   2.574 -0.0790  0.3585 -0.1318
   23MOL   C111 5435   1.973   4.567   2.532  1.1038 -0.1178  0.3627
   23MOL   C112 5436   2.029   4.684   2.620  0.3355 -0.4300  0.6405
   23MOL   C113 5437   2.049   4.436   2.558 -0.5968 -0.4606 -0.6448
   23MOL   C114 5438   2.153   4.403   2.454  0.0635 -0.3164  0.3976
   23MOL   O115 5439   2.271   4.394   2.485  0.7222 -0.2907 -0.1067
   23MOL   H116 5440   1.975   4.598   2.427  1.0806  0.2298  0.4650
   23MOL   H117 5441   2.132   4.708   2.595  0.7139 -1.8671  0.7590
   23MOL   H118 5442   2.016   4.662   2.726  0.0725 -2.3942  0.2169
   23MOL   H119 5443   1.976   4.776   2.595 -1.1439 -2.1300 -2.9342
   23MOL   H120 5444   1.981   4.352   2.546 -0.4698 -0.6446 -0.1092
   23MOL   H121 5445   2.096   4.436   2.657  0.1971 -2.9919 -0.9898
   23MOL   O122 5446   2.100   4.396   2.332 -0.2658  0.0850 -0.3642
   23MOL   C123 5447   2.182   4.418   2.217 -0.7977  1.1061 -0.1032
   23MOL   C124 5448   2.191   4.298   2.127 -0.1018 -0.3023 -0.2147
   23MOL   C125 5449   2.138   4.546   2.143 -0.0162 -0.2770 -0.1276
   23MOL   C126 5450   2.183   4.679   2.211 -0.6592 -1.1148  0.1278
   23MOL   O127 5451   2.101   4.760   2.254 -0.0410  0.3919  0.3159
   23MOL   H128 5452   2.289   4.418   2.239 -0.2970 -2.6855 -2.0545
   23MOL   H129 5453   2.092   4.262   2.099 -1.2129  1.9280  0.6965
   23MOL   H130 5454   2.233   4.209   2.173 -1.9003 -1.4171 -0.7080
   23MOL   H131 5455   2.250   4.311   2.036  0.0737 -1.8361 -0.3230
   23MOL   H132 5456   2.034   4.565   2.115 -0.0254 -1.1729 -0.7247
   23MOL   H133 5457   2.197   4.562   2.053 -2.9597  0.6530 -1.9788
   23MOL   O134 5458   2.315   4.679   2.223 -0.3578  0.4407  0.4201
   23MOL   C135 5459   2.389   4.793   2.257  0.6846 -0.3187 -0.4745
   23MOL   C136 5460   2.432   4.778   2.405  0.0714 -0.3363  0.2201
   23MOL   C137 5461   2.512   4.808   2.167 -0.0588  0.7175  0.2234
   23MOL   C138 5462   2.472   4.868   2.032 -0.1436  0.6736  0.2617
   23MOL   O139 5463   2.359   4.895   1.999  0.6991  0.7743  0.9342
   23MOL   H140 5464   2.323   4.879   2.263  2.7000  1.1339  2.0947
   23MOL   H141 5465   2.511   4.850   2.424 -1.4723  1.3592  0.3608
   23MOL   H142 5466   2.455   4.672   2.415 -0.2406 -0.6174 -1.7706
   23MOL   H143 5467   2.360   4.798   2.484 -1.8304  2.2296 -2.0777
   23MOL   H144 5468   2.561   4.711   2.160 -0.6969  0.4931 -1.3033
   23MOL   H145 5469   2.584   4.879   2.207 -1.0942  1.5412  0.6559
   23MOL   O146 5470   2.577   4.898   1.949 -0.0223 -0.0434  0.2777
   23MOL   C147 5471   2.544   4.924   1.815 -0.2767  0.4894 -0.2245
   23MOL   C148 5472   2.517   5.075   1.801 -0.1600 -0.0379  0.5720
   23MOL   C149 5473   2.671   4.882   1.740 -0.3225  0.2378  0.5595
   23MOL   C150 5474   2.685   4.726   1.731 -0.9773 -0.4412 -0.6236
   23MOL   O151 5475   2.800   4.675   1.744 -0.2085 -0.1274 -0.4735
   23MOL   H152 5476   2.462   4.857   1.791  1.0615 -0.3036 -2.7726
   23MOL   H153 5477   2.413   5.099   1.823 -0.0246  1.8451 -0.7827
   23MOL   H154 5478   2.551   5.118   1.707 -4.0302  0.7099 -0.5927
   23MOL   H155 5479   2.572   5.132   1.875  0.0106  0.4882  0.0385
   23MOL   H156 5480   2.762   4.915   1.791  0.1467  2.5650 -1.6259
   23MOL   H157 5481   2.674   4.929   1.641 -0.5453 -2.2565 -0.6611
   23MOL   O158 5482   2.560   4.661   1.733 -0.4680 -0.1637 -0.8649
   23MOL   C159 5483   2.558   4.522   1.777  0.4807  0.1623  0.1070
   23MOL   C160 5484   2.409   4.480   1.805  0.4643 -1.0481 -0.1113
   23MOL   C161 5485   2.629   4.423   1.677 -0.2148 -0.7359 -1.0118
   23MOL   C162 5486   2.662   4.286   1.743  0.5710 -0.3886 -0.5891
   23MOL   O163 5487   2.635   4.181   1.689  0.5194  0.0598 -0.0188
   23MOL   H164 5488   2.612   4.525   1.872 -0.1060  0.1447  0.4394
   23MOL   H165 5489   2.346   4.559   1.846 -0.1234 -1.0575 -0.9887
   23MOL   H166 5490   2.396   4.385   1.857 -0.1744 -1.2164 -0.5772
   23MOL   H167 5491   2.365   4.476   1.705 -1.7034  0.2130  0.7577
   23MOL   H168 5492   2.729   4.449   1.644  0.3355 -0.8285  0.5642
   23MOL   H169 5493   2.561   4.408   1.593 -0.9158 -0.0763 -0.5737
   23MOL   O170 5494   2.726   4.306   1.861  0.2647 -0.2167 -0.0853
   23MOL   C171 5495   2.770   4.196   1.944 -0.0418 -0.1135 -0.0995
   23MOL   C172 5496   2.884   4.246   2.036 -0.4635  0.4509  0.1633
   23MOL   C173 5497   2.641   4.150   2.019 -0.1415  1.0169  0.0822
   23MOL   C174 5498   2.595   4.230   2.133 -0.5978 -0.6224  0.3339
   23MOL   O175 5499   2.509   4.317   2.119 -0.0741 -0.3579 -0.4394
   23MOL   H176 5500   2.814   4.113   1.889  1.6978 -1.0988  2.6895
   23MOL   H177 5501   2.967   4.269   1.969  0.4744  0.5625  1.3281
   23MOL   H178 5502   2.920   4.177   2.113  0.3310 -1.4855 -1.9023
   23MOL   H179 5503   2.845   4.335   2.086 -0.1942  0.3965  0.4774
   23MOL   H180 5504   2.647   4.053   2.067  1.3216 -0.2116 -2.4790
   23MOL   H181 5505   2.566   4.134   1.941  1.4815 -1.0198 -1.1073
   23MOL   O182 5506   2.657   4.201   2.251 -0.0275  0.1166  0.3113
   23MOL   C183 5507   2.624   4.264   2.372  0.0605 -0.2763  0.3513
   23MOL   C184 5508   2.510   4.191   2.431  0.2929  0.0915  1.3341
   23MOL   C185 5509   2.739   4.294   2.472  0.4672  0.4471  0.2338
   23MOL   C186 5510   2.762   4.445   2.501 -0.7536  0.5852  0.5989
   23MOL   O187 5511   2.749   4.494   2.607 -0.1895  0.3611 -0.4227
   23MOL   H188 5512   2.586   4.361   2.341 -1.4140 -0.3245  1.9534
   23MOL   H189 5513   2.495   4.243   2.526  1.7001  1.3171  0.9021
   23MOL   H190 5514   2.523   4.083   2.441 -2.0249 -0.5228 -1.5607
   23MOL   H191 5515   2.417   4.202   2.375 -0.7090 -2.5431  2.3819
   23MOL   H192 5516   2.838   4.270   2.434 -0.3130 -0.8773 -1.0012
   23MOL   H193 5517   2.720   4.252   2.571  1.6205 -0.8296 -0.0720
   23MOL   O194 5518   2.808   4.520   2.391 -0.4024 -0.1700  0.1264
   23MOL   C195 5519   2.864   4.648   2.419  0.1851  0.2804  0.2449
   23MOL   C196 5520   3.004   4.632   2.470 -0.1696 -1.8193  0.4006
   23MOL   C197 5521   2.857   4.719   2.277 -0.0743 -0.0585 -0.3170
   23MOL   C198 5522   2.874   4.871   2.275  0.0430  0.1314 -0.5341
   23MOL   O199 5523   2.865   4.938   2.377 -0.0032  0.2359 -0.2827
   23MOL   H200 5524   2.814   4.698   2.502  2.0981 -0.1565  1.7036
   23MOL   H201 5525   3.062   4.589   2.388  1.0060  0.5458 -0.0278
   23MOL   H202 5526   3.013   4.570   2.560  0.6166 -1.6812  0.4224
   23MOL   H203 5527   3.051   4.728   2.486 -1.9912 -0.5639 -1.5464
   23MOL   H204 5528   2.773   4.670   2.227  0.4180  1.4741 -2.7119
   23MOL   H205 5529   2.946   4.682   2.227 -0.0663  0.8878 -1.0027
   23MOL   O206 5530   2.891   4.923   2.151 -0.1887  0.5136  0.1839
   23MOL   C207 5531   2.928   5.062   2.146 -0.1140 -0.8730  0.3328
   23MOL   C208 5532   3.026   5.083   2.030  0.0316 -0.1116 -0.0600
   23MOL   C209 5533   2.790   5.133   2.101  0.0165 -0.3582 -0.1890
   23MOL   C210 5534   2.689   5.172   2.218 -0.6231 -0.0339  0.2524
   23MOL   O211 5535   2.569   5.145   2.209  0.4339 -0.2633  0.2416
   23MOL   H212 5536   2.977   5.109   2.231  1.5734 -1.2141 -0.4372
   23MOL   H213 5537   2.970   5.042   1.946 -1.7130 -1.0256  1.5076
   23MOL   H214 5538   3.123   5.035   2.044  0.1029  0.2244  0.5932
   23MOL   H215 5539   3.045   5.188   2.009  1.6495 -0.4860 -0.5848
   23MOL   H216 5540   2.747   5.063   2.029 -0.6052 -2.2317  1.9261
   23MOL   H217 5541   2.825   5.222   2.050  0.7412 -1.6792 -2.0581
   23MOL   O218 5542   2.749   5.258   2.299  0.0638 -0.1936 -0.0707
   23MOL   C219 5543   2.673   5.326   2.401  0.4487 -0.2021  0.2766
   23MOL   C220 5544   2.668   5.228   2.522  0.0427  0.4223 -0.1499
   23MOL   C221 5545   2.754   5.455   2.420 -0.4041 -0.9284  0.3025
   23MOL   C222 5546   2.694   5.547   2.522  0.1998 -0.5991  0.6868
   23MOL   O223 5547   2.575   5.534   2.544  0.2247  0.3837 -0.1526
   23MOL   H224 5548   2.572   5.345   2.365  1.8503  2.3602 -2.5021
   23MOL   H225 5549   2.592   5.246   2.598  1.2659 -2.3295  1.8680
   23MOL   H226 5550   2.767   5.227   2.568  0.1205  1.7954 -0.2720
   23MOL   H227 5551   2.642   5.128   2.486 -3.9000  1.3694 -0.0401
   23MOL   H228 5552   2.760   5.514   2.329  0.5790 -1.4134  0.0484
   23MOL   H229 5553   2.859   5.439   2.442 -0.2267 -0.3745 -0.1365
   23MOL   O230 5554   2.781   5.609   2.596 -0.2759 -0.2065 -0.1117
   23MOL   C231 5555   2.731   5.714   2.684 -0.1909 -0.2313  0.0775
   23MOL   C232 5556   2.739   5.670   2.829  0.4812 -0.6570  0.3181
   23MOL   C233 5557   2.828   5.828   2.662  0.4062 -0.2024 -0.5554
   23MOL   C234 5558   2.811   5.916   2.540 -0.1884 -0.9987  0.8098
   23MOL   O235 5559   2.909   5.975   2.501 -0.0021 -0.2747  0.0499
   23MOL   H236 5560   2.627   5.746   2.672 -0.1194  0.1918  0.6070
   23MOL   H237 5561   2.830   5.610   2.829  0.6825 -0.3935  2.5800
   23MOL   H238 5562   2.656   5.609   2.863  0.6074 -1.4650 -0.8051
   23MOL   H239 5563   2.757   5.754   2.897  2.2083 -1.6004  1.0669
   23MOL   H240 5564   2.924   5.779   2.683 -0.6002 -1.9532  0.0599
   23MOL   H241 5565   2.817   5.911   2.731  4.0224  0.1349 -0.2595
   23MOL   H242 5566   2.711   5.924   2.497  0.9827  0.0115 -1.8345
   24MOL     O1 5567   4.294   2.779   5.430 -0.4150 -0.1740 -0.0599
   24MOL     C2 5568   4.366   2.700   5.334 -0.5626  0.7934 -1.0106
   24MOL     C3 5569   4.502   2.654   5.382 -0.4389 -0.2424  0.2168
   24MOL     C4 5570   4.278   2.596   5.267  0.8258 -0.0636  0.7820
   24MOL     C5 5571   4.311   2.565   5.121  0.9248 -0.4011 -0.5239
   24MOL     O6 5572   4.300   2.452   5.068  0.9574 -0.2915  0.0148
   24MOL     H7 5573   4.394   2.776   5.260 -1.1183  3.7631  1.6979
   24MOL     H8 5574   4.567   2.736   5.415 -1.0057 -0.1095  1.0194
   24MOL     H9 5575   4.551   2.602   5.300 -1.5510  0.8192 -1.1485
   24MOL    H10 5576   4.481   2.591   5.469  0.3183  0.6477  1.0549
   24MOL    H11 5577   4.175   2.632   5.262  0.4157 -1.4314 -0.8631
   24MOL    H12 5578   4.267   2.508   5.331  1.0713 -1.9657 -1.7178
   24MOL    H13 5579   4.279   2.724   5.506 -1.0403  2.0493  1.5052
   24MOL    O14 5580   4.341   2.678   5.047 -0.2237 -0.6642 -0.6026
   24MOL    C15 5581   4.373   2.677   4.907  0.1178 -0.3345 -0.3873
   24MOL    C16 5582   4.322   2.808   4.844 -0.7441 -0.3522 -0.6221
   24MOL    C17 5583   4.524   2.644   4.891 -0.1111  0.1217  0.5896
   24MOL    C18 5584   4.575   2.634   4.742 -0.1388 -1.0795  0.0708
   24MOL    O19 5585   4.497   2.595   4.659 -0.6796  0.0582 -0.0305
   24MOL    H20 5586   4.310   2.610   4.849 -0.1644 -1.2542  0.9920
   24MOL    H21 5587   4.383   2.895   4.867 -0.2679  0.1592 -3.6058
   24MOL    H22 5588   4.220   2.819   4.880 -1.0661 -1.4538 -1.1799
   24MOL    H23 5589   4.316   2.808   4.735 -0.4596  2.7518 -0.6753
   24MOL    H24 5590   4.550   2.545   4.928  3.5736  1.1930  1.1147
   24MOL    H25 5591   4.584   2.726   4.933 -1.1608  1.1127  0.1794
   24MOL    O26 5592   4.683   2.715   4.714 -0.1255  0.3859  0.4578
   24MOL    C27 5593   4.738   2.704   4.584  0.4099 -0.0854  0.4474
   24MOL    C28 5594   4.699   2.824   4.496  0.0705 -0.4988  0.8593
   24MOL    C29 5595   4.882   2.680   4.616 -0.4334 -0.9552  0.2113
   24MOL    C30 5596   4.964   2.660   4.489  0.0729 -0.5424  0.2865
   24MOL    O31 5597   5.053   2.739   4.457  0.2818 -0.4981  0.6888
   24MOL    H32 5598   4.699   2.618   4.531 -1.9972  1.0929  0.2320
   24MOL    H33 5599   4.758   2.837   4.405 -0.7621  1.2403  0.5437
   24MOL    H34 5600   4.712   2.924   4.536  1.2875 -0.8482  1.3571
   24MOL    H35 5601   4.590   2.820   4.486  0.1307 -1.1881  0.3995
   24MOL    H36 5602   4.873   2.592   4.679  1.4591 -0.2308  1.5262
   24MOL    H37 5603   4.916   2.768   4.671  1.4763 -0.4450 -1.7008
   24MOL    O38 5604   4.945   2.537   4.444 -0.1795  0.3310 -0.1042
   24MOL    C39 5605   5.018   2.483   4.338 -0.0741 -0.3206  0.4199
   24MOL    C40 5606   5.125   2.391   4.406 -0.0820  0.7003  0.3672
   24MOL    C41 5607   4.911   2.407   4.258 -0.1275 -0.3135 -0.0040
   24MOL    C42 5608   4.949   2.296   4.163 -0.3606  0.7703  0.5549
   24MOL    O43 5609   4.895   2.183   4.175 -0.7311  0.3417 -0.0990
   24MOL    H44 5610   5.065   2.557   4.274  0.3819  0.2410  1.3903
   24MOL    H45 5611   5.173   2.324   4.335 -0.3453  0.4510  0.4226
   24MOL    H46 5612   5.088   2.321   4.481  0.4648 -1.0228 -0.9526
   24MOL    H47 5613   5.202   2.450   4.456 -0.4317 -0.6015  2.4853
   24MOL    H48 5614   4.856   2.480   4.200 -0.9118 -2.6128 -2.2574
   24MOL    H49 5615   4.836   2.356   4.320 -0.0216  0.5922  0.8868
   24MOL    O50 5616   5.050   2.333   4.072  0.5754 -0.3901  0.1352
   24MOL    C51 5617   5.095   2.250   3.971 -0.1735  0.7953 -0.4219
   24MOL    C52 5618   4.991   2.255   3.857 -0.1053 -0.5929  0.0200
   24MOL    C53 5619   5.235   2.304   3.936 -0.1309 -0.3481 -0.2434
   24MOL    C54 5620   5.326   2.240   4.041  0.0781  0.7212 -0.0173
   24MOL    O55 5621   5.387   2.315   4.113  0.9509 -0.1270 -0.4675
   24MOL    H56 5622   5.094   2.148   4.010  0.6502  0.6021 -0.8884
   24MOL    H57 5623   4.990   2.353   3.809  0.2738 -0.5219  0.1543
   24MOL    H58 5624   4.890   2.228   3.887 -0.2315  0.7096  0.7833
   24MOL    H59 5625   5.013   2.185   3.776  1.1487  0.3102 -0.4335
   24MOL    H60 5626   5.250   2.412   3.943 -0.0366 -0.3199 -0.8887
   24MOL    H61 5627   5.266   2.263   3.840 -0.1363  1.8368 -1.2110
   24MOL    O62 5628   5.331   2.102   4.053  0.3938 -0.2237  0.3766
   24MOL    C63 5629   5.422   2.042   4.144 -0.1818 -0.4479  0.2394
   24MOL    C64 5630   5.333   1.987   4.255  0.1026  0.2452 -0.1694
   24MOL    C65 5631   5.481   1.915   4.062 -1.0163  0.0373 -0.2270
   24MOL    C66 5632   5.560   1.829   4.157 -0.0259  0.0236  0.1111
   24MOL    O67 5633   5.552   1.707   4.153 -0.2252 -0.1222  0.0612
   24MOL    H68 5634   5.499   2.107   4.185  0.7995 -1.6262  0.3054
   24MOL    H69 5635   5.251   1.924   4.218  0.9981 -2.1565  1.7973
   24MOL    H70 5636   5.288   2.069   4.312  0.1361 -0.6285  1.1261
   24MOL    H71 5637   5.387   1.925   4.326 -1.8498  0.3306  1.4305
   24MOL    H72 5638   5.544   1.945   3.979  0.5884 -1.4186  0.4275
   24MOL    H73 5639   5.401   1.857   4.014 -0.3495  0.1153 -1.4447
   24MOL    O74 5640   5.646   1.908   4.237  0.1593 -1.0160  0.6564
   24MOL    C75 5641   5.723   1.844   4.333 -1.1404  0.1422 -0.2175
   24MOL    C76 5642   5.844   1.936   4.341  0.0923 -0.0416 -0.6226
   24MOL    C77 5643   5.636   1.857   4.457  0.2766  0.1367 -0.0578
   24MOL    C78 5644   5.689   1.830   4.596 -0.3438 -0.3356 -0.3857
   24MOL    O79 5645   5.688   1.915   4.685  0.3478  0.1128 -0.1314
   24MOL    H80 5646   5.751   1.742   4.306 -0.3256 -0.3316  2.2655
   24MOL    H81 5647   5.912   1.896   4.415  1.4998  2.3379 -0.5537
   24MOL    H82 5648   5.818   2.039   4.368 -0.1772  0.0972 -1.3769
   24MOL    H83 5649   5.892   1.949   4.243  1.4234 -0.3938 -0.0285
   24MOL    H84 5650   5.536   1.816   4.442 -0.2982  1.4619  0.0915
   24MOL    H85 5651   5.617   1.964   4.455 -2.0455 -0.2457  0.1898
   24MOL    O86 5652   5.726   1.702   4.613 -0.0799 -0.4541 -0.1491
   24MOL    C87 5653   5.790   1.666   4.735  0.2562  0.2750  0.1697
   24MOL    C88 5654   5.686   1.628   4.837 -0.0386 -0.6221  0.7240
   24MOL    C89 5655   5.907   1.563   4.707 -0.6394 -0.4433 -0.3299
   24MOL    C90 5656   5.963   1.490   4.831  0.6488 -0.3249  0.2251
   24MOL    O91 5657   5.957   1.538   4.945 -0.3817 -0.8132  0.1325
   24MOL    H92 5658   5.848   1.754   4.766  1.6091  0.1377 -1.8177
   24MOL    H93 5659   5.734   1.619   4.935  0.0886 -0.6014  0.6628
   24MOL    H94 5660   5.637   1.535   4.809 -0.6617 -0.0185 -0.2311
   24MOL    H95 5661   5.608   1.704   4.841  0.3374 -0.2918  2.1273
   24MOL    H96 5662   5.988   1.626   4.673 -1.9133  1.0472 -0.6604
   24MOL    H97 5663   5.887   1.491   4.627  1.5540 -2.1685  0.6409
   24MOL    O98 5664   6.025   1.377   4.799 -0.1394 -0.1379  0.4431
   24MOL    C99 5665   6.080   1.286   4.902  0.3938  0.1826 -0.3246
   24MOL   C100 5666   5.971   1.189   4.956  0.7658 -0.5848 -0.1107
   24MOL   C101 5667   6.199   1.207   4.848 -0.6145 -0.1849 -0.2185
   24MOL   C102 5668   6.314   1.288   4.788 -0.6296 -0.4459  0.0895
   24MOL   O103 5669   6.319   1.408   4.783  0.6489  0.7959 -0.3214
   24MOL   H104 5670   6.112   1.351   4.983  1.0333  0.2949 -0.6615
   24MOL   H105 5671   5.881   1.245   4.983  1.7464  0.6219  0.6907
   24MOL   H106 5672   5.995   1.120   5.037  2.5383 -0.3737 -0.4365
   24MOL   H107 5673   5.945   1.120   4.875 -0.7833 -0.6549  0.4249
   24MOL   H108 5674   6.156   1.141   4.773  0.5214  1.4123 -2.3201
   24MOL   H109 5675   6.245   1.146   4.926  1.4140 -0.3299 -1.4843
   24MOL   O110 5676   6.406   1.207   4.744 -0.1098  0.5773  0.0640
   24MOL   C111 5677   6.539   1.248   4.699  1.3536 -0.2930 -0.0771
   24MOL   C112 5678   6.632   1.129   4.704 -0.4342 -0.2227  0.3561
   24MOL   C113 5679   6.537   1.330   4.564  0.7296  0.0767  0.1712
   24MOL   C114 5680   6.672   1.378   4.521 -0.0397  0.5370  0.4251
   24MOL   O115 5681   6.718   1.339   4.416  0.1254 -0.1117  0.0121
   24MOL   H116 5682   6.579   1.315   4.776 -0.0727 -1.4442  1.7135
   24MOL   H117 5683   6.575   1.046   4.661  0.1279  0.6472 -2.1502
   24MOL   H118 5684   6.655   1.096   4.805 -1.7577 -1.5935  0.2449
   24MOL   H119 5685   6.721   1.144   4.643 -0.9605 -2.2196 -0.9680
   24MOL   H120 5686   6.476   1.419   4.580  1.6149  0.5336  1.0104
   24MOL   H121 5687   6.487   1.269   4.489  2.1140 -2.0116  0.9278
   24MOL   O122 5688   6.719   1.467   4.607  0.1012 -0.2625  0.5374
   24MOL   C123 5689   6.841   1.534   4.581  0.0929  0.2455  0.2775
   24MOL   C124 5690   6.819   1.665   4.502  0.2166 -0.4022  0.3443
   24MOL   C125 5691   6.900   1.550   4.722 -0.0611  0.2693  0.2943
   24MOL   C126 5692   7.045   1.608   4.718 -0.0738 -0.6704 -0.4137
   24MOL   O127 5693   7.062   1.716   4.778  0.2340 -0.3316 -0.0318
   24MOL   H128 5694   6.909   1.470   4.524  1.1400 -0.1118  1.8851
   24MOL   H129 5695   6.748   1.737   4.543 -0.8215 -1.3995  0.3059
   24MOL   H130 5696   6.764   1.639   4.413 -0.3631  0.1693  0.5323
   24MOL   H131 5697   6.912   1.706   4.462 -0.8076  1.1386 -0.4832
   24MOL   H132 5698   6.905   1.452   4.768 -0.2783 -0.2487 -0.7573
   24MOL   H133 5699   6.831   1.615   4.777 -0.4567 -1.7645  2.2551
   24MOL   O134 5700   7.134   1.538   4.650  0.0674  0.3029 -0.1753
   24MOL   C135 5701   7.268   1.590   4.623  1.0337 -0.5505 -0.1616
   24MOL   C136 5702   7.379   1.488   4.648  0.3698  0.7099 -0.4519
   24MOL   C137 5703   7.273   1.656   4.488  0.5871 -0.6671 -0.0676
   24MOL   C138 5704   7.264   1.553   4.373  0.5773  0.4552 -0.0898
   24MOL   O139 5705   7.345   1.548   4.279 -0.9623  0.1021  0.3502
   24MOL   H140 5706   7.287   1.668   4.697 -2.8206  0.0189  0.3811
   24MOL   H141 5707   7.375   1.469   4.755 -2.9300 -0.6860 -0.7756
   24MOL   H142 5708   7.471   1.546   4.635  0.3278  0.9164  0.1618
   24MOL   H143 5709   7.381   1.392   4.597  0.3437  0.7429 -0.5137
   24MOL   H144 5710   7.367   1.709   4.474  1.1524 -1.3618  0.9802
   24MOL   H145 5711   7.196   1.733   4.489  0.9814 -0.2598  2.8340
   24MOL   O146 5712   7.155   1.480   4.387 -0.2986 -0.6019 -0.2775
   24MOL   C147 5713   7.123   1.378   4.293 -0.6735 -0.1080 -0.3486
   24MOL   C148 5714   7.074   1.257   4.363 -0.2538 -0.1170 -0.3766
   24MOL   C149 5715   7.015   1.430   4.190 -0.1018  0.2067 -0.7675
   24MOL   C150 5716   7.074   1.539   4.104 -0.1521  0.2343 -0.6918
   24MOL   O151 5717   7.051   1.655   4.144 -0.2087  0.0843 -0.2113
   24MOL   H152 5718   7.210   1.354   4.232 -0.9009  1.7415 -1.4215
   24MOL   H153 5719   7.026   1.290   4.455  0.7169 -0.6781  0.3404
   24MOL   H154 5720   7.152   1.187   4.394  0.1532  0.6156  0.2825
   24MOL   H155 5721   7.002   1.198   4.306  0.5071 -0.1661 -1.3112
   24MOL   H156 5722   6.919   1.451   4.238 -0.6067 -2.7541 -0.4016
   24MOL   H157 5723   6.987   1.343   4.131 -0.6368 -0.6837  0.7713
   24MOL   O158 5724   7.153   1.498   4.002 -0.4043 -0.0207  0.2750
   24MOL   C159 5725   7.231   1.590   3.929 -0.5786  0.2319  0.0046
   24MOL   C160 5726   7.369   1.523   3.906 -0.1698  0.2852  0.8248
   24MOL   C161 5727   7.157   1.654   3.810  0.3115  0.1617  0.4913
   24MOL   C162 5728   7.134   1.563   3.684 -0.1536  0.5191 -0.0062
   24MOL   O163 5729   7.205   1.585   3.587 -0.4293 -0.4060  0.5601
   24MOL   H164 5730   7.240   1.675   3.997  1.2585  0.5578 -0.6198
   24MOL   H165 5731   7.421   1.502   4.000  2.0491  2.3302  0.1162
   24MOL   H166 5732   7.428   1.599   3.855  1.1594 -0.8560  0.6347
   24MOL   H167 5733   7.361   1.435   3.843 -3.7556  0.6925  0.6192
   24MOL   H168 5734   7.197   1.752   3.784  2.0455 -0.6972 -0.1377
   24MOL   H169 5735   7.059   1.679   3.852  0.0121 -0.4737  0.1689
   24MOL   O170 5736   7.048   1.462   3.702  0.4620  0.2341  0.0934
   24MOL   C171 5737   7.037   1.348   3.619 -0.2550 -0.1684  0.1129
   24MOL   C172 5738   7.113   1.223   3.677 -0.7026  0.4537 -0.1162
   24MOL   C173 5739   6.893   1.308   3.592  0.1441 -0.1944 -0.2642
   24MOL   C174 5740   6.810   1.412   3.527  0.2104  0.4552  0.0048
   24MOL   O175 5741   6.781   1.392   3.410  0.6090 -0.3799 -0.7286
   24MOL   H176 5742   7.086   1.373   3.525 -2.5488  2.3151 -0.4833
   24MOL   H177 5743   7.129   1.141   3.607 -0.4900 -0.4868  1.0125
   24MOL   H178 5744   7.066   1.178   3.765 -0.1536  1.8037  0.8827
   24MOL   H179 5745   7.210   1.253   3.716 -1.9187  1.5760  2.1322
   24MOL   H180 5746   6.847   1.286   3.688  3.8712 -2.2473  1.1253
   24MOL   H181 5747   6.897   1.222   3.526 -0.8551  0.0560 -0.6657
   24MOL   O182 5748   6.763   1.510   3.609 -0.3498  0.1888  0.1712
   24MOL   C183 5749   6.712   1.629   3.551  0.0680 -0.1446  0.3358
   24MOL   C184 5750   6.561   1.628   3.581  0.2583 -0.1306  0.9079
   24MOL   C185 5751   6.775   1.748   3.623  0.3328 -0.3023 -0.2107
   24MOL   C186 5752   6.731   1.882   3.568  0.1918  0.4475 -0.7890
   24MOL   O187 5753   6.646   1.943   3.635 -0.2870  0.6573  0.1439
   24MOL   H188 5754   6.718   1.642   3.443 -2.0602  0.4477  0.2583
   24MOL   H189 5755   6.512   1.547   3.527  1.0356 -1.2513  1.8379
   24MOL   H190 5756   6.515   1.710   3.526  1.8025 -0.7366 -1.3921
   24MOL   H191 5757   6.541   1.618   3.688  2.1063 -0.7862  1.2241
   24MOL   H192 5758   6.883   1.744   3.610  0.4837 -0.8324  1.1589
   24MOL   H193 5759   6.756   1.744   3.730  3.5192 -1.3117  0.3633
   24MOL   O194 5760   6.792   1.920   3.460 -0.2571  0.1632  0.0734
   24MOL   C195 5761   6.781   2.059   3.404  0.0473 -0.3637  0.3552
   24MOL   C196 5762   6.839   2.167   3.498  0.0063 -0.0416  0.2502
   24MOL   C197 5763   6.868   2.074   3.267 -0.8246 -0.1994 -0.3972
   24MOL   C198 5764   6.817   1.984   3.148  0.0609 -0.1494  0.9593
   24MOL   O199 5765   6.888   1.935   3.062  0.4271 -0.0597  0.3744
   24MOL   H200 5766   6.680   2.082   3.373  0.6345  0.5589 -0.9013
   24MOL   H201 5767   6.758   2.183   3.569 -0.6903  0.9329 -0.7585
   24MOL   H202 5768   6.851   2.261   3.445  0.3075  0.8569  1.9023
   24MOL   H203 5769   6.937   2.147   3.542 -0.6992 -3.9297  0.2406
   24MOL   H204 5770   6.973   2.049   3.285  0.0332  1.2573 -3.1292
   24MOL   H205 5771   6.887   2.177   3.237 -0.4150  0.3112  1.5044
   24MOL   O206 5772   6.689   1.989   3.136  0.2327 -0.2474  0.4214
   24MOL   C207 5773   6.632   1.941   3.012 -0.6818 -0.3462  0.3285
   24MOL   C208 5774   6.598   1.794   3.027 -0.1383 -0.1028 -0.6278
   24MOL   C209 5775   6.514   2.026   2.963 -0.3279 -0.0847  0.5424
   24MOL   C210 5776   6.387   2.008   3.036 -0.6802  0.0628 -0.8585
   24MOL   O211 5777   6.285   1.977   2.981  0.2809  0.2812 -0.1171
   24MOL   H212 5778   6.705   1.952   2.931  0.6445  1.2599  1.7187
   24MOL   H213 5779   6.561   1.777   3.128 -0.0553  1.0954 -0.3886
   24MOL   H214 5780   6.683   1.726   3.017 -0.3290 -0.6293  1.2456
   24MOL   H215 5781   6.525   1.757   2.955 -3.4700  0.5504  2.2953
   24MOL   H216 5782   6.510   2.017   2.855  0.1643 -1.1170  0.5978
   24MOL   H217 5783   6.544   2.131   2.972  0.9772 -0.3142 -0.8724
   24MOL   O218 5784   6.389   2.042   3.163 -0.4600 -0.2715 -0.0966
   24MOL   C219 5785   6.299   1.976   3.255 -0.4035 -0.0991  0.5302
   24MOL   C220 5786   6.353   1.837   3.300  0.0356 -0.2426  0.1719
   24MOL   C221 5787   6.271   2.078   3.368  0.6797 -0.4427 -0.1439
   24MOL   C222 5788   6.145   2.048   3.445  0.3442  0.8526  0.6553
   24MOL   O223 5789   6.152   1.984   3.550  0.4755 -0.4518  0.5050
   24MOL   H224 5790   6.206   1.965   3.200  0.2577  1.1192 -0.8807
   24MOL   H225 5791   6.456   1.833   3.336  0.4997  1.3864 -0.8877
   24MOL   H226 5792   6.331   1.764   3.222 -1.0291  0.5972 -0.3259
   24MOL   H227 5793   6.295   1.807   3.387  0.5933  2.1211  1.4000
   24MOL   H228 5794   6.256   2.175   3.321  0.4139  0.1022  1.0353
   24MOL   H229 5795   6.359   2.097   3.429 -1.5223 -0.9307  3.3267
   24MOL   O230 5796   6.034   2.066   3.373 -0.2097 -0.0591 -0.2422
   24MOL   C231 5797   5.908   2.011   3.414 -0.7727  0.1864 -0.3079
   24MOL   C232 5798   5.792   2.088   3.362  0.4631  0.2348 -0.0038
   24MOL   C233 5799   5.905   1.858   3.403  0.1842  0.3098 -0.1084
   24MOL   C234 5800   5.918   1.797   3.264 -0.3992  0.4370  0.2660
   24MOL   O235 5801   6.024   1.811   3.204  0.0407  0.1676 -0.0039
   24MOL   H236 5802   5.890   2.024   3.521 -0.2729 -0.1643 -0.1795
   24MOL   H237 5803   5.695   2.046   3.389  0.6341  0.7495  1.4776
   24MOL   H238 5804   5.790   2.100   3.254 -1.8292  0.6445  0.0564
   24MOL   H239 5805   5.794   2.192   3.394 -1.4652 -0.4681  2.5460
   24MOL   H240 5806   5.815   1.823   3.453 -0.1674  2.5564  0.8835
   24MOL   H241 5807   5.979   1.802   3.461  1.1923 -0.5383 -2.1571
   24MOL   H242 5808   5.832   1.741   3.228 -0.1724 -0.0830  0.5274
   25MOL     O1 5809   6.502   3.059   3.416  0.3596  0.1348 -0.1441
   25MOL     C2 5810   6.397   3.127   3.469  0.1964 -0.3052 -0.2914
   25MOL     C3 5811   6.417   3.278   3.425 -0.2062  0.1123 -0.2966
   25MOL     C4 5812   6.271   3.064   3.415  0.2839  0.5803 -0.4630
   25MOL     C5 5813   6.139   3.106   3.488 -0.4901 -0.0123 -0.1046
   25MOL     O6 5814   6.135   3.211   3.552  0.4838  0.8791  0.2169
   25MOL     H7 5815   6.401   3.119   3.578  0.2858 -1.4213 -0.3765
   25MOL     H8 5816   6.346   3.336   3.484  0.3649  1.2650 -0.7288
   25MOL     H9 5817   6.407   3.291   3.317 -5.0095  0.2979  0.0304
   25MOL    H10 5818   6.515   3.316   3.452  0.5239 -0.4146 -2.1311
   25MOL    H11 5819   6.278   2.956   3.432  0.7580  1.0095  2.1968
   25MOL    H12 5820   6.249   3.072   3.308 -0.1698 -1.1563 -0.5221
   25MOL    H13 5821   6.588   3.094   3.433  0.9897 -1.8166  0.7247
   25MOL    O14 5822   6.038   3.021   3.467  0.7439 -0.5147 -0.0901
   25MOL    C15 5823   5.907   3.049   3.528  0.3717  0.1288  0.9200
   25MOL    C16 5824   5.810   3.078   3.411  0.9006 -0.2921 -0.8599
   25MOL    C17 5825   5.867   2.935   3.620  0.4987 -0.0624 -0.1658
   25MOL    C18 5826   5.947   2.937   3.753  0.6961  0.4664 -0.5861
   25MOL    O19 5827   5.916   3.002   3.853  0.1008  0.4004 -0.4619
   25MOL    H20 5828   5.914   3.140   3.588  1.8312 -0.3464  1.5014
   25MOL    H21 5829   5.707   3.099   3.437  1.2856 -0.1419  0.5753
   25MOL    H22 5830   5.804   2.988   3.350 -2.5719 -0.7612  0.0721
   25MOL    H23 5831   5.846   3.154   3.341 -2.3276 -0.5343 -2.8865
   25MOL    H24 5832   5.874   2.837   3.574 -1.8710 -0.1010 -0.5167
   25MOL    H25 5833   5.760   2.929   3.639  0.2656  2.2524 -0.5338
   25MOL    O26 5834   6.054   2.858   3.749  0.5514  0.3347  0.3807
   25MOL    C27 5835   6.133   2.837   3.861 -0.2341  0.0362  0.3279
   25MOL    C28 5836   6.151   2.680   3.869  0.5444 -0.4476  0.6599
   25MOL    C29 5837   6.271   2.898   3.852  0.3121  0.0432 -0.6826
   25MOL    C30 5838   6.286   3.033   3.922  0.2926  0.2410  0.0819
   25MOL    O31 5839   6.342   3.035   4.026 -0.7737 -0.1025  0.5391
   25MOL    H32 5840   6.085   2.875   3.951  0.4234  1.5976  0.0323
   25MOL    H33 5841   6.213   2.641   3.788 -0.2727 -1.3623  0.4644
   25MOL    H34 5842   6.061   2.619   3.876  0.1377 -0.2251 -2.0081
   25MOL    H35 5843   6.207   2.662   3.961 -0.5359  2.2989  1.9148
   25MOL    H36 5844   6.298   2.914   3.747  1.3166  2.5937 -0.0665
   25MOL    H37 5845   6.346   2.840   3.905  0.5334  1.2114  0.3036
   25MOL    O38 5846   6.228   3.127   3.848 -0.0350 -0.4933 -0.7171
   25MOL    C39 5847   6.211   3.265   3.895  0.2195 -0.2617  0.3109
   25MOL    C40 5848   6.297   3.360   3.803 -0.0778 -1.1577 -0.1382
   25MOL    C41 5849   6.060   3.305   3.900 -0.5454  0.0130 -0.4628
   25MOL    C42 5850   6.013   3.436   3.961 -0.4756  0.8144 -0.5388
   25MOL    O43 5851   5.904   3.480   3.927 -0.6678  0.5474  0.2327
   25MOL    H44 5852   6.247   3.278   3.997 -1.3229 -0.7679  0.9388
   25MOL    H45 5853   6.296   3.466   3.830  1.3953 -1.2135  0.1584
   25MOL    H46 5854   6.273   3.362   3.696 -1.3252  1.6770  0.1256
   25MOL    H47 5855   6.399   3.322   3.810  0.5925  0.7889  1.3286
   25MOL    H48 5856   6.016   3.224   3.958 -0.0028  0.3934  0.4812
   25MOL    H49 5857   6.011   3.281   3.806 -0.0480  0.7076 -0.9120
   25MOL    O50 5858   6.099   3.488   4.050  0.5320  0.3332  0.7790
   25MOL    C51 5859   6.063   3.606   4.122  0.0454  0.0448 -0.1143
   25MOL    C52 5860   6.050   3.562   4.270  0.2849 -0.5699 -0.1837
   25MOL    C53 5861   6.171   3.713   4.109 -0.0710 -0.0162 -0.2150
   25MOL    C54 5862   6.165   3.766   3.972 -1.0479 -0.0232 -0.3174
   25MOL    O55 5863   6.238   3.728   3.883 -0.2806  0.5787  0.0816
   25MOL    H56 5864   5.967   3.651   4.098 -0.9904 -1.6644  0.7223
   25MOL    H57 5865   6.136   3.520   4.322 -0.8645 -0.0872  2.1725
   25MOL    H58 5866   5.986   3.474   4.257 -0.7748  0.3893 -1.6400
   25MOL    H59 5867   5.992   3.629   4.334  0.0074  0.2459 -1.2728
   25MOL    H60 5868   6.273   3.685   4.135 -0.0449  0.7269  0.5083
   25MOL    H61 5869   6.141   3.793   4.177  0.4570 -0.6920  0.8129
   25MOL    O62 5870   6.077   3.864   3.966 -0.0578  0.0792 -0.7947
   25MOL    C63 5871   6.032   3.913   3.842 -0.4878 -0.4658 -0.4864
   25MOL    C64 5872   5.882   3.893   3.841 -0.0882  1.2636  0.5949
   25MOL    C65 5873   6.061   4.062   3.841 -0.0934  0.7034 -0.3701
   25MOL    C66 5874   6.010   4.140   3.714  0.3772 -0.2904  0.1201
   25MOL    O67 5875   5.937   4.245   3.727  0.7303  0.7460 -0.5753
   25MOL    H68 5876   6.088   3.868   3.760  0.0852  2.1043 -1.5670
   25MOL    H69 5877   5.859   3.787   3.848  3.1169  0.5561  1.4075
   25MOL    H70 5878   5.829   3.914   3.748 -0.3305 -0.8135  0.2491
   25MOL    H71 5879   5.832   3.934   3.929 -0.1108  1.4286  0.5060
   25MOL    H72 5880   6.169   4.074   3.841 -0.1157  0.9471 -1.3932
   25MOL    H73 5881   6.021   4.116   3.926  2.2655  1.7516  0.1002
   25MOL    O74 5882   6.048   4.087   3.597 -0.7201  0.4186 -0.6881
   25MOL    C75 5883   5.985   4.119   3.479  0.2311  0.4616 -0.2866
   25MOL    C76 5884   6.055   4.242   3.419 -0.0303 -0.5370  0.1480
   25MOL    C77 5885   5.985   3.992   3.382  0.4059 -0.0300 -0.1699
   25MOL    C78 5886   6.117   3.960   3.305 -0.2999  0.3041  0.1733
   25MOL    O79 5887   6.115   3.985   3.182 -0.4315  0.8578  0.0766
   25MOL    H80 5888   5.880   4.142   3.500 -0.3741  0.2104 -2.8835
   25MOL    H81 5889   6.059   4.326   3.487  2.1109 -0.6724  0.2353
   25MOL    H82 5890   5.983   4.274   3.344 -1.8102  0.6171  2.2954
   25MOL    H83 5891   6.152   4.243   3.369  0.7571  2.3433  1.6459
   25MOL    H84 5892   5.907   4.010   3.308  0.7860  3.9388  0.3083
   25MOL    H85 5893   5.958   3.908   3.446  2.3676  0.5310  1.4660
   25MOL    O86 5894   6.211   3.895   3.371 -0.0118  0.0569 -0.0579
   25MOL    C87 5895   6.332   3.851   3.311 -0.4595 -0.2266 -0.0193
   25MOL    C88 5896   6.430   3.971   3.315  0.0117  0.3472 -0.6677
   25MOL    C89 5897   6.391   3.727   3.383  0.4311  0.2215  0.5531
   25MOL    C90 5898   6.500   3.651   3.309 -0.2805  0.5624 -0.2248
   25MOL    O91 5899   6.496   3.528   3.287  0.1694  0.2610 -0.3428
   25MOL    H92 5900   6.310   3.827   3.207  0.9642 -0.8345 -0.1867
   25MOL    H93 5901   6.530   3.955   3.276 -0.6886  0.2341 -2.4293
   25MOL    H94 5902   6.448   4.007   3.417 -1.0765 -0.6309 -0.1064
   25MOL    H95 5903   6.395   4.060   3.264  0.6244  0.2902 -1.1908
   25MOL    H96 5904   6.306   3.659   3.391  0.0855  0.4789 -0.7301
   25MOL    H97 5905   6.419   3.749   3.486  0.0919 -0.4656  0.7952
   25MOL    O98 5906   6.600   3.727   3.265  0.2985  0.4382 -0.0437
   25MOL    C99 5907   6.713   3.668   3.196  0.0821 -0.0978  1.3764
   25MOL   C100 5908   6.700   3.684   3.043  0.9865  0.6845  1.0146
   25MOL   C101 5909   6.828   3.744   3.266 -0.3824  0.3210 -0.1615
   25MOL   C102 5910   6.965   3.707   3.217 -0.0548 -0.6165  0.4548
   25MOL   O103 5911   7.009   3.785   3.132  0.1685 -0.0174  0.6464
   25MOL   H104 5912   6.718   3.560   3.216  0.1570 -0.1383  1.1362
   25MOL   H105 5913   6.601   3.672   2.997  0.8290 -2.5149  2.0793
   25MOL   H106 5914   6.768   3.621   2.986 -0.3832 -0.3423  0.4781
   25MOL   H107 5915   6.714   3.790   3.017 -0.0757  0.4690 -0.5497
   25MOL   H108 5916   6.832   3.739   3.375 -2.3258  1.3931 -0.0126
   25MOL   H109 5917   6.818   3.852   3.249 -3.5366 -0.5208 -4.4621
   25MOL   O110 5918   7.009   3.584   3.240 -0.9377 -0.4544 -0.3844
   25MOL   C111 5919   7.127   3.538   3.178  0.5436 -0.2794  0.2460
   25MOL   C112 5920   7.220   3.499   3.280 -0.1320  0.7216  0.0456
   25MOL   C113 5921   7.105   3.434   3.063  0.1361 -0.6305  0.2827
   25MOL   C114 5922   7.036   3.303   3.113 -0.3420 -1.7982  0.1418
   25MOL   O115 5923   7.102   3.210   3.157  0.2184  0.3564 -0.4350
   25MOL   H116 5924   7.191   3.615   3.135  0.4474 -1.6170 -2.4080
   25MOL   H117 5925   7.318   3.476   3.239 -0.1963 -2.3495  1.4816
   25MOL   H118 5926   7.194   3.412   3.340  1.7358  0.2358  0.1759
   25MOL   H119 5927   7.244   3.580   3.349 -2.2023  0.3442  1.2618
   25MOL   H120 5928   7.196   3.418   3.006 -0.7405  0.6219 -1.5178
   25MOL   H121 5929   7.041   3.481   2.989 -0.0019 -0.6405  0.3943
   25MOL   O122 5930   6.900   3.314   3.098 -0.0911  0.1182 -0.2042
   25MOL   C123 5931   6.815   3.214   3.129  0.9657  0.1795  0.5601
   25MOL   C124 5932   6.691   3.278   3.191  0.0572 -0.2253  0.1623
   25MOL   C125 5933   6.796   3.130   3.001 -0.4504 -0.2493  0.1591
   25MOL   C126 5934   6.746   2.982   3.000 -0.2872 -0.4979  0.2602
   25MOL   O127 5935   6.811   2.897   2.939 -0.2146 -0.1847 -0.2179
   25MOL   H128 5936   6.860   3.140   3.196  0.6405 -0.0623  0.5121
   25MOL   H129 5937   6.660   3.362   3.129  0.5494 -0.1006  0.0817
   25MOL   H130 5938   6.707   3.297   3.297  0.8327  1.4531 -0.2509
   25MOL   H131 5939   6.608   3.207   3.187  0.9360 -1.1798 -2.0533
   25MOL   H132 5940   6.896   3.118   2.961  0.3759  1.0241  1.8019
   25MOL   H133 5941   6.746   3.198   2.931  2.6985 -0.4069 -2.3643
   25MOL   O134 5942   6.630   2.970   3.060  0.0540  0.5682 -0.2256
   25MOL   C135 5943   6.569   2.846   3.084  0.3103 -0.3774  0.6626
   25MOL   C136 5944   6.613   2.779   3.214  0.2381 -0.4278  0.2184
   25MOL   C137 5945   6.418   2.875   3.077  0.1049  0.0033 -0.4261
   25MOL   C138 5946   6.360   2.887   2.942 -0.2304  0.4143 -0.5830
   25MOL   O139 5947   6.319   2.992   2.901  0.2356 -0.4022  0.2034
   25MOL   H140 5948   6.597   2.769   3.012  0.5977 -0.3060  0.6947
   25MOL   H141 5949   6.720   2.762   3.200  0.3809  0.9911 -0.4635
   25MOL   H142 5950   6.565   2.681   3.214 -2.3336  0.7499 -3.6174
   25MOL   H143 5951   6.581   2.828   3.306 -1.1824 -4.0972  1.7825
   25MOL   H144 5952   6.413   2.969   3.133 -1.0828 -0.9792  1.1935
   25MOL   H145 5953   6.358   2.800   3.129  0.1352  0.8059  0.7831
   25MOL   O146 5954   6.355   2.776   2.872 -0.1392 -0.4096 -0.2280
   25MOL   C147 5955   6.299   2.777   2.735  0.4093  0.1643 -0.4614
   25MOL   C148 5956   6.425   2.780   2.645  0.2739  0.3603 -0.1872
   25MOL   C149 5957   6.194   2.662   2.709  0.1186  0.6623 -0.5186
   25MOL   C150 5958   6.068   2.668   2.796  0.7320 -0.3878 -0.1258
   25MOL   O151 5959   5.996   2.569   2.800  0.6494 -0.2652  0.3623
   25MOL   H152 5960   6.248   2.872   2.726  1.7231  0.7421 -2.2017
   25MOL   H153 5961   6.403   2.761   2.540  1.1750 -0.4270 -0.2363
   25MOL   H154 5962   6.494   2.703   2.680  2.1010  0.5461 -3.2660
   25MOL   H155 5963   6.476   2.876   2.639 -2.8792  2.0148 -2.5653
   25MOL   H156 5964   6.239   2.565   2.730  1.2067  0.7015 -2.4828
   25MOL   H157 5965   6.162   2.672   2.605 -0.6725 -0.5598 -0.3990
   25MOL   O158 5966   6.032   2.792   2.846  0.2892 -0.2233  0.3203
   25MOL   C159 5967   5.926   2.820   2.932  0.0239  0.4590 -0.3037
   25MOL   C160 5968   5.954   2.956   3.008 -0.1739 -0.4400  0.4823
   25MOL   C161 5969   5.800   2.834   2.845 -0.6312 -0.3708  0.0443
   25MOL   C162 5970   5.667   2.838   2.918  0.0239 -0.3001 -0.2099
   25MOL   O163 5971   5.603   2.733   2.941 -0.0352 -1.0230 -0.6854
   25MOL   H164 5972   5.925   2.742   3.008 -2.4055  1.4251  0.7075
   25MOL   H165 5973   5.869   2.988   3.068 -2.0916 -0.4078 -2.1563
   25MOL   H166 5974   5.959   3.039   2.938  1.7393 -0.6273  0.3793
   25MOL   H167 5975   6.037   2.968   3.076 -0.5922 -0.7597  1.0575
   25MOL   H168 5976   5.793   2.759   2.766  0.6952 -0.8905  0.4157
   25MOL   H169 5977   5.791   2.930   2.795  2.3898  0.1274  0.3794
   25MOL   O170 5978   5.626   2.954   2.965  0.3413 -0.2779 -0.0507
   25MOL   C171 5979   5.490   2.979   2.990 -0.2952  0.1346 -0.0818
   25MOL   C172 5980   5.461   3.015   3.141  0.7486 -0.1627  0.0344
   25MOL   C173 5981   5.432   3.086   2.894  0.4211 -0.5851 -0.3396
   25MOL   C174 5982   5.279   3.071   2.861  0.4658 -0.2021 -0.1829
   25MOL   O175 5983   5.242   3.026   2.750 -0.2129  0.2541 -0.5379
   25MOL   H176 5984   5.424   2.894   2.976 -2.5615  1.7747  0.3167
   25MOL   H177 5985   5.354   3.037   3.149  1.0884  1.1280  1.2622
   25MOL   H178 5986   5.511   3.110   3.156  0.8594  0.5432 -4.0839
   25MOL   H179 5987   5.502   2.941   3.210  2.3634  0.4505 -0.2449
   25MOL   H180 5988   5.488   3.070   2.802 -1.0498 -1.3293 -1.1295
   25MOL   H181 5989   5.446   3.182   2.942  1.7334 -0.9751  0.0695
   25MOL   O182 5990   5.197   3.114   2.957 -0.1064 -0.1974 -0.0012
   25MOL   C183 5991   5.057   3.121   2.930 -0.3263  0.0859 -0.2674
   25MOL   C184 5992   4.977   3.141   3.063  0.2440  0.2035 -0.3167
   25MOL   C185 5993   5.020   3.236   2.827 -0.5131  0.3508 -0.2929
   25MOL   C186 5994   4.948   3.184   2.705  0.0643 -1.0906 -0.8607
   25MOL   O187 5995   4.855   3.107   2.714  0.3912  0.1977  0.2349
   25MOL   H188 5996   5.025   3.027   2.884  0.4864 -1.0565  1.4567
   25MOL   H189 5997   4.870   3.160   3.050 -0.0654 -0.5626  0.9663
   25MOL   H190 5998   5.017   3.225   3.119 -1.6978  1.2473 -0.4249
   25MOL   H191 5999   4.974   3.056   3.132 -0.9198  0.7000  0.2671
   25MOL   H192 6000   5.111   3.290   2.799  0.3622  1.7729  4.7130
   25MOL   H193 6001   4.949   3.307   2.870 -1.2819 -0.1705 -0.6858
   25MOL   O194 6002   5.009   3.213   2.587  0.4909  0.0444  0.3318
   25MOL   C195 6003   4.965   3.153   2.464 -0.3839  0.0845  0.4454
   25MOL   C196 6004   4.911   3.252   2.364 -0.3669 -0.1687  0.1071
   25MOL   C197 6005   5.082   3.066   2.419  0.4188  0.7624  0.0460
   25MOL   C198 6006   5.054   2.978   2.294 -0.3305 -0.4689  0.0057
   25MOL   O199 6007   4.943   2.955   2.241 -0.5855  0.2349  0.0787
   25MOL   H200 6008   4.878   3.087   2.466  0.5977 -1.2300 -0.1694
   25MOL   H201 6009   4.816   3.287   2.406 -0.0061 -0.6021  1.3015
   25MOL   H202 6010   4.871   3.214   2.270 -0.5159  1.2799 -0.4381
   25MOL   H203 6011   4.975   3.339   2.348  0.1540 -0.3174  1.3399
   25MOL   H204 6012   5.102   3.001   2.504 -1.0263 -1.5077 -1.3283
   25MOL   H205 6013   5.180   3.114   2.409  0.8203  0.1341  0.8848
   25MOL   O206 6014   5.162   2.929   2.247 -0.3434 -0.9838  0.0640
   25MOL   C207 6015   5.174   2.857   2.124  0.1132  0.1203  0.1308
   25MOL   C208 6016   5.236   2.950   2.022  0.8683  0.6522  0.0932
   25MOL   C209 6017   5.248   2.719   2.129  0.4428  0.2630  0.4361
   25MOL   C210 6018   5.198   2.617   2.231  0.7748 -0.2841  0.2571
   25MOL   O211 6019   5.096   2.644   2.299  0.0056 -0.0416 -0.1413
   25MOL   H212 6020   5.072   2.845   2.087 -1.2244  1.7394  3.1189
   25MOL   H213 6021   5.236   2.911   1.921 -0.3375 -1.4198  0.8739
   25MOL   H214 6022   5.341   2.976   2.039  0.5027  0.6695  2.6021
   25MOL   H215 6023   5.174   3.040   2.012 -3.0550 -1.9592 -0.0511
   25MOL   H216 6024   5.357   2.727   2.128  0.5829 -1.6023  0.0071
   25MOL   H217 6025   5.221   2.667   2.038  1.5587  0.8678 -0.2605
   25MOL   O218 6026   5.284   2.521   2.241 -0.1680  0.3245  0.1325
   25MOL   C219 6027   5.254   2.404   2.317  0.0580  0.4522  0.1574
   25MOL   C220 6028   5.228   2.289   2.218 -0.5150  0.2695  0.1191
   25MOL   C221 6029   5.368   2.374   2.403 -0.4617 -0.1378  0.0409
   25MOL   C222 6030   5.388   2.454   2.538 -0.7979  0.3936 -0.2191
   25MOL   O223 6031   5.452   2.404   2.632  0.2517 -0.5445 -0.1149
   25MOL   H224 6032   5.165   2.420   2.378  0.0034  1.4612 -0.1856
   25MOL   H225 6033   5.283   2.310   2.127  2.9697 -1.1619  1.7950
   25MOL   H226 6034   5.121   2.290   2.193 -0.6610  1.1482  0.7815
   25MOL   H227 6035   5.255   2.186   2.244 -4.1012 -0.7007  0.4055
   25MOL   H228 6036   5.451   2.401   2.337 -2.1307  0.9162 -1.6620
   25MOL   H229 6037   5.393   2.271   2.429  1.4649  0.1733 -0.4963
   25MOL   O230 6038   5.308   2.563   2.544  0.0324  0.1930  0.8355
   25MOL   C231 6039   5.287   2.630   2.676  0.7266 -0.1222  0.5014
   25MOL   C232 6040   5.386   2.742   2.681 -0.2226  0.4501  0.1377
   25MOL   C233 6041   5.149   2.689   2.656  0.0332 -0.4078  0.3758
   25MOL   C234 6042   5.088   2.731   2.789 -0.1963  0.2966  0.2026
   25MOL   O235 6043   5.133   2.706   2.901 -0.1103  0.2923 -0.0038
   25MOL   H236 6044   5.298   2.569   2.766 -1.3376  1.6017  1.9834
   25MOL   H237 6045   5.381   2.776   2.784  2.0881 -2.0602  1.1286
   25MOL   H238 6046   5.371   2.814   2.600  1.7751 -2.2917 -2.8228
   25MOL   H239 6047   5.492   2.717   2.681 -0.2452  0.3565  0.0502
   25MOL   H240 6048   5.081   2.617   2.611 -1.5771  1.4905 -0.3235
   25MOL   H241 6049   5.163   2.779   2.596  0.8601 -0.2175  0.8452
   25MOL   H242 6050   4.999   2.793   2.781 -1.0624 -0.9985 -0.4610
   26MOL     O1 6051   4.667   4.852   3.627 -0.1038  0.4268  0.6087
   26MOL     C2 6052   4.532   4.814   3.651 -0.0194  0.2220 -0.5976
   26MOL     C3 6053   4.442   4.824   3.528  0.3514  0.6942 -0.4400
   26MOL     C4 6054   4.521   4.681   3.720  0.1617  0.5528 -0.1722
   26MOL     C5 6055   4.380   4.619   3.752  0.8228 -0.3352 -0.5376
   26MOL     O6 6056   4.269   4.686   3.758 -0.5261 -0.0936  0.2865
   26MOL     H7 6057   4.492   4.895   3.712  0.9434 -1.1058  1.8807
   26MOL     H8 6058   4.417   4.928   3.507 -0.6601  0.2534 -1.4796
   26MOL     H9 6059   4.348   4.784   3.565  1.1221 -2.3954 -1.7213
   26MOL    H10 6060   4.480   4.781   3.435  2.1707  2.4885 -0.5688
   26MOL    H11 6061   4.563   4.705   3.818 -0.4634 -0.1104  0.2714
   26MOL    H12 6062   4.593   4.610   3.681  1.0209  1.0450  0.5001
   26MOL    H13 6063   4.704   4.798   3.559 -0.1927  0.0134  0.8845
   26MOL    O14 6064   4.387   4.489   3.779  0.8003  0.6614 -0.4402
   26MOL    C15 6065   4.269   4.405   3.791 -0.8319  0.3551  0.1828
   26MOL    C16 6066   4.283   4.294   3.682  0.2662  0.7594  0.0818
   26MOL    C17 6067   4.242   4.357   3.934  0.0770  0.0381 -0.6718
   26MOL    C18 6068   4.358   4.280   3.998  0.3656  0.3072 -0.4055
   26MOL    O19 6069   4.444   4.336   4.069 -0.1074  0.3493  0.1445
   26MOL    H20 6070   4.185   4.470   3.767  0.6052  2.7407  1.4135
   26MOL    H21 6071   4.357   4.216   3.696  0.7272  1.3742  1.0474
   26MOL    H22 6072   4.317   4.336   3.587 -1.3188  0.4132 -0.6682
   26MOL    H23 6073   4.187   4.245   3.665  1.2435 -0.9068 -0.7076
   26MOL    H24 6074   4.156   4.291   3.946  1.8842 -2.1891  0.4218
   26MOL    H25 6075   4.237   4.455   3.981  0.4184 -0.0509 -0.4472
   26MOL    O26 6076   4.348   4.148   3.976 -0.6751 -0.1825  0.1627
   26MOL    C27 6077   4.447   4.058   4.020 -0.3841  0.7271  0.9487
   26MOL    C28 6078   4.403   4.030   4.165  0.1706  0.0720  1.0143
   26MOL    C29 6079   4.462   3.933   3.920  0.4738  0.3552  0.3618
   26MOL    C30 6080   4.567   3.830   3.955 -0.0316  0.0831  0.0564
   26MOL    O31 6081   4.640   3.836   4.057  0.7506 -0.0345 -0.9572
   26MOL    H32 6082   4.534   4.122   4.035  1.9119 -2.5014  1.8738
   26MOL    H33 6083   4.457   3.949   4.215  1.4013  1.1515  1.4435
   26MOL    H34 6084   4.299   3.997   4.177  0.5678 -1.4069  0.4673
   26MOL    H35 6085   4.418   4.118   4.228  0.6884 -0.1581  1.2115
   26MOL    H36 6086   4.492   3.964   3.820 -0.1649 -0.8017 -0.2043
   26MOL    H37 6087   4.374   3.870   3.911  1.6183 -1.1571 -0.5057
   26MOL    O38 6088   4.573   3.723   3.873  0.6001 -0.6397  0.0295
   26MOL    C39 6089   4.663   3.617   3.886 -0.3125  0.6249  0.6359
   26MOL    C40 6090   4.602   3.483   3.843 -0.1408 -0.0900 -0.6029
   26MOL    C41 6091   4.788   3.658   3.815  0.0798 -0.1977 -0.4628
   26MOL    C42 6092   4.903   3.589   3.878 -0.4093  0.1280 -0.5497
   26MOL    O43 6093   4.974   3.521   3.809  0.0895  0.4817 -0.1347
   26MOL    H44 6094   4.693   3.595   3.989  1.7055  0.8650  0.1172
   26MOL    H45 6095   4.674   3.402   3.832 -1.7386 -1.6170  0.0001
   26MOL    H46 6096   4.555   3.505   3.747 -0.3865 -0.1744 -0.5011
   26MOL    H47 6097   4.536   3.447   3.922  0.1460  1.3514  0.3043
   26MOL    H48 6098   4.810   3.763   3.832  1.3343 -1.2037  4.9420
   26MOL    H49 6099   4.773   3.630   3.711  1.6554 -0.0844 -0.7282
   26MOL    O50 6100   4.917   3.600   4.014 -0.1160 -0.1620  0.3128
   26MOL    C51 6101   5.029   3.552   4.090  0.1748 -0.3262  0.3236
   26MOL    C52 6102   5.071   3.656   4.196  0.3007 -0.0132 -0.1666
   26MOL    C53 6103   5.019   3.411   4.131 -0.2682 -0.5737  0.1416
   26MOL    C54 6104   4.917   3.370   4.239 -0.0315  0.5701  0.3103
   26MOL    O55 6105   4.863   3.453   4.309 -0.5757 -0.3196  0.1175
   26MOL    H56 6106   5.110   3.553   4.017 -0.0932 -1.0843  0.0167
   26MOL    H57 6107   5.162   3.617   4.243 -0.2526 -0.0839  0.8470
   26MOL    H58 6108   4.991   3.670   4.268 -2.4173  4.0903 -3.7539
   26MOL    H59 6109   5.085   3.758   4.163 -0.8557  0.6003  1.1804
   26MOL    H60 6110   5.116   3.379   4.168  0.4029  0.4039 -0.7212
   26MOL    H61 6111   4.990   3.354   4.043 -0.9077  1.0832 -0.7411
   26MOL    O62 6112   4.901   3.233   4.241 -0.5617  0.3979  0.0201
   26MOL    C63 6113   4.812   3.173   4.334 -0.1336 -0.4179 -0.3775
   26MOL    C64 6114   4.862   3.212   4.477 -0.1555  0.6201 -0.9505
   26MOL    C65 6115   4.665   3.222   4.316  0.0976  1.1924 -0.3131
   26MOL    C66 6116   4.594   3.159   4.200  0.1695 -0.1800  0.0527
   26MOL    O67 6117   4.614   3.207   4.088 -0.0615  0.7952 -0.4546
   26MOL    H68 6118   4.816   3.066   4.318  0.6700 -0.2303 -1.5207
   26MOL    H69 6119   4.827   3.132   4.542  0.0560  0.6246 -0.8296
   26MOL    H70 6120   4.826   3.307   4.517 -1.4590 -0.6089  0.8472
   26MOL    H71 6121   4.971   3.220   4.476 -0.2759  2.6453 -0.5070
   26MOL    H72 6122   4.661   3.330   4.304  1.3685  1.1260 -1.4389
   26MOL    H73 6123   4.608   3.212   4.409  1.3364  2.1875  0.5669
   26MOL    O74 6124   4.533   3.046   4.236  0.4375 -0.2694 -0.4844
   26MOL    C75 6125   4.481   2.962   4.136 -0.3246  0.6388 -0.0322
   26MOL    C76 6126   4.577   2.847   4.122 -0.6191  0.2339  0.2857
   26MOL    C77 6127   4.336   2.923   4.179  0.8582  0.6645  0.3349
   26MOL    C78 6128   4.237   3.036   4.177  0.7169  0.3906  0.1810
   26MOL    O79 6129   4.228   3.119   4.085  1.0340 -0.3104  0.1256
   26MOL    H80 6130   4.468   3.005   4.037  3.2437  3.0900  0.4900
   26MOL    H81 6131   4.602   2.825   4.226 -0.6646  0.0746  0.2640
   26MOL    H82 6132   4.659   2.887   4.062 -0.4008  0.8381  0.9831
   26MOL    H83 6133   4.522   2.764   4.077 -0.5811 -0.1304  0.8956
   26MOL    H84 6134   4.337   2.882   4.280 -3.1773 -0.1785  0.0979
   26MOL    H85 6135   4.305   2.836   4.120 -1.9032  1.1000  1.0896
   26MOL    O86 6136   4.165   3.038   4.292 -0.3389 -0.0724  0.1832
   26MOL    C87 6137   4.040   3.110   4.313 -0.9237 -0.1749  0.5538
   26MOL    C88 6138   3.924   3.016   4.258  0.5389 -0.0161  0.5999
   26MOL    C89 6139   4.025   3.140   4.469 -0.4480 -0.2112  0.3591
   26MOL    C90 6140   3.891   3.211   4.517  0.5536  0.0964  0.6352
   26MOL    O91 6141   3.873   3.327   4.517 -0.1997  0.1104  0.4928
   26MOL    H92 6142   4.036   3.207   4.263 -1.5500  0.3752  1.6646
   26MOL    H93 6143   3.905   2.917   4.299 -2.0902  0.5627  0.9103
   26MOL    H94 6144   3.924   3.022   4.149  0.0122 -0.7839  0.5528
   26MOL    H95 6145   3.834   3.069   4.289 -0.5025 -1.2829 -0.1937
   26MOL    H96 6146   4.109   3.205   4.494 -1.8595  1.3613  1.2391
   26MOL    H97 6147   4.030   3.053   4.534 -0.2654 -0.3810  0.1158
   26MOL    O98 6148   3.810   3.121   4.562  0.1731 -0.3167 -0.0389
   26MOL    C99 6149   3.680   3.161   4.596  0.0280 -0.0325 -0.5432
   26MOL   C100 6150   3.580   3.069   4.521 -0.3273  0.4830  0.1792
   26MOL   C101 6151   3.682   3.157   4.750  0.3430  0.1705 -0.1839
   26MOL   C102 6152   3.545   3.187   4.811 -0.1406  0.1297 -0.0898
   26MOL   O103 6153   3.515   3.125   4.914  0.0785 -0.2613  0.0484
   26MOL   H104 6154   3.664   3.260   4.555  1.0679  0.1167 -0.5937
   26MOL   H105 6155   3.607   2.966   4.544  2.1982  0.4943 -2.3596
   26MOL   H106 6156   3.580   3.088   4.413  0.5289 -0.3380  0.0186
   26MOL   H107 6157   3.478   3.086   4.555  0.3975  2.9003  1.1954
   26MOL   H108 6158   3.766   3.220   4.779  0.2693  1.2317 -2.1947
   26MOL   H109 6159   3.717   3.057   4.779  2.2805  0.8779  0.0212
   26MOL   O110 6160   3.489   3.293   4.764  0.5744 -0.0782 -0.1421
   26MOL   C111 6161   3.370   3.343   4.825 -0.3446 -0.4675  0.0874
   26MOL   C112 6162   3.402   3.490   4.877 -0.2730 -0.2335  0.1395
   26MOL   C113 6163   3.261   3.335   4.721 -0.4759 -0.1578 -0.4728
   26MOL   C114 6164   3.123   3.319   4.783 -0.2440 -0.3447 -0.2318
   26MOL   O115 6165   3.089   3.213   4.833 -0.5248  0.5724 -0.1514
   26MOL   H116 6166   3.342   3.290   4.917 -1.8831  1.9942  1.0745
   26MOL   H117 6167   3.319   3.534   4.933 -0.5543  1.8702 -1.8638
   26MOL   H118 6168   3.438   3.554   4.796  0.0761 -1.8818 -1.0345
   26MOL   H119 6169   3.480   3.470   4.951  0.0821 -0.2492 -0.2395
   26MOL   H120 6170   3.284   3.251   4.656  2.0192  0.5606 -0.5834
   26MOL   H121 6171   3.271   3.426   4.661 -1.2247  2.0276  2.5542
   26MOL   O122 6172   3.051   3.434   4.766  0.2616  0.5981  0.2710
   26MOL   C123 6173   2.920   3.444   4.806 -0.5264  0.5443 -0.1648
   26MOL   C124 6174   2.925   3.533   4.935 -0.1163 -0.2533  1.1886
   26MOL   C125 6175   2.840   3.502   4.688  0.3627 -0.5154 -0.6993
   26MOL   C126 6176   2.812   3.401   4.581  0.6890  0.3230 -0.1159
   26MOL   O127 6177   2.836   3.427   4.465  0.7179  0.3392  0.6254
   26MOL   H128 6178   2.882   3.350   4.844  0.7162  1.0915  2.6071
   26MOL   H129 6179   2.937   3.638   4.906  1.1703 -0.0910  2.2656
   26MOL   H130 6180   3.014   3.511   4.993  0.9527 -0.8019 -0.6028
   26MOL   H131 6181   2.833   3.516   4.991 -2.4812  1.0558 -2.1388
   26MOL   H132 6182   2.881   3.593   4.645  2.5019 -1.5615 -0.9201
   26MOL   H133 6183   2.746   3.532   4.734  1.3918  0.7351  0.6511
   26MOL   O134 6184   2.732   3.300   4.635 -0.0774 -0.0353 -0.0507
   26MOL   C135 6185   2.677   3.186   4.574 -0.1975 -0.7715 -0.3730
   26MOL   C136 6186   2.739   3.059   4.636  0.2454  0.6036 -0.1736
   26MOL   C137 6187   2.518   3.188   4.584 -0.0783 -0.3392 -0.0806
   26MOL   C138 6188   2.469   3.170   4.730  0.3422 -0.1488  1.1629
   26MOL   O139 6189   2.495   3.259   4.816  0.0893 -0.2817  0.4989
   26MOL   H140 6190   2.702   3.179   4.468 -1.4751  1.9750 -0.9153
   26MOL   H141 6191   2.724   3.049   4.743  1.3447  0.1840 -0.0531
   26MOL   H142 6192   2.847   3.053   4.623  0.3398  0.5921  0.6001
   26MOL   H143 6193   2.693   2.971   4.590 -0.1802  0.2185  0.9669
   26MOL   H144 6194   2.473   3.108   4.525 -0.8090 -0.2587  0.3760
   26MOL   H145 6195   2.467   3.275   4.543  1.3298 -0.5666 -2.4392
   26MOL   O146 6196   2.407   3.058   4.755 -0.2641  0.1115 -0.2218
   26MOL   C147 6197   2.367   3.014   4.887 -0.3297 -0.1201 -0.3197
   26MOL   C148 6198   2.218   3.005   4.872  0.0993 -0.2463  0.6104
   26MOL   C149 6199   2.431   2.885   4.943 -0.1396 -0.0428  0.2288
   26MOL   C150 6200   2.584   2.900   4.980 -0.3388 -0.2106 -0.3353
   26MOL   O151 6201   2.664   2.835   4.915 -0.0572 -0.3636  0.7364
   26MOL   H152 6202   2.384   3.094   4.959 -0.2110 -0.5855  0.1688
   26MOL   H153 6203   2.183   2.942   4.790  2.3524  1.6881 -1.9284
   26MOL   H154 6204   2.183   3.102   4.837 -3.6976 -1.2162  1.4825
   26MOL   H155 6205   2.161   2.987   4.963 -1.2650  0.6770 -0.0361
   26MOL   H156 6206   2.422   2.794   4.884 -1.6471 -1.2470  2.2309
   26MOL   H157 6207   2.384   2.860   5.038 -1.6265  0.2107 -0.4324
   26MOL   O158 6208   2.607   2.980   5.092 -0.0328 -0.1408  0.5711
   26MOL   C159 6209   2.731   3.044   5.115  0.1977 -0.4333  0.0294
   26MOL   C160 6210   2.724   3.184   5.054  0.0975  0.2043 -0.5077
   26MOL   C161 6211   2.763   3.037   5.270 -0.2787 -0.2915 -0.2468
   26MOL   C162 6212   2.829   2.902   5.304  0.1497  0.1467 -0.2852
   26MOL   O163 6213   2.929   2.902   5.377  0.0972  0.4750 -0.1485
   26MOL   H164 6214   2.800   2.976   5.065 -2.1184 -2.0149 -1.0785
   26MOL   H165 6215   2.727   3.182   4.945  1.1076 -0.8540 -0.4673
   26MOL   H166 6216   2.811   3.244   5.081 -0.4266  0.8942 -0.3602
   26MOL   H167 6217   2.644   3.244   5.096 -1.8911 -2.5182 -0.2862
   26MOL   H168 6218   2.664   3.049   5.314  0.3879  0.4929  1.0405
   26MOL   H169 6219   2.825   3.119   5.305  1.9870 -2.2208  0.3437
   26MOL   O170 6220   2.765   2.799   5.252  0.5613  0.3511  0.0038
   26MOL   C171 6221   2.808   2.667   5.290 -0.9651 -0.1768  0.2411
   26MOL   C172 6222   2.691   2.573   5.239  0.7967 -0.6231 -0.3540
   26MOL   C173 6223   2.934   2.624   5.213  0.0712  0.1319 -0.3315
   26MOL   C174 6224   2.994   2.494   5.270  0.4454 -0.6313  0.2033
   26MOL   O175 6225   2.959   2.382   5.230 -0.2748 -0.1107 -0.1286
   26MOL   H176 6226   2.819   2.662   5.398  5.7318 -0.3788 -0.2541
   26MOL   H177 6227   2.640   2.604   5.148 -2.2431 -1.0153  1.1260
   26MOL   H178 6228   2.603   2.570   5.304  1.6837  0.5147  0.9058
   26MOL   H179 6229   2.719   2.469   5.222  1.8860 -0.2784 -0.6873
   26MOL   H180 6230   3.007   2.705   5.220 -0.0725  0.3802 -1.6221
   26MOL   H181 6231   2.911   2.615   5.107 -3.4515 -1.0587  0.4402
   26MOL   O182 6232   3.069   2.525   5.381  0.1457 -0.0046  0.0675
   26MOL   C183 6233   3.113   2.420   5.467  0.5533  0.3459  0.2029
   26MOL   C184 6234   3.260   2.446   5.504  0.6774  0.3377 -0.5451
   26MOL   C185 6235   3.012   2.431   5.583 -0.5041  0.0101  0.2405
   26MOL   C186 6236   2.886   2.355   5.557  0.0988 -0.1600 -0.4820
   26MOL   O187 6237   2.778   2.415   5.537 -0.1047 -0.1665 -0.6254
   26MOL   H188 6238   3.108   2.324   5.417  1.1509 -0.0165  0.8236
   26MOL   H189 6239   3.327   2.398   5.433  2.8929  0.5574  1.3226
   26MOL   H190 6240   3.276   2.397   5.600 -0.9350  0.5793 -0.1461
   26MOL   H191 6241   3.299   2.547   5.515  1.5705  0.0396 -0.9537
   26MOL   H192 6242   3.001   2.535   5.613  2.6646  0.2284  0.7517
   26MOL   H193 6243   3.047   2.385   5.675  3.4441 -0.8330 -1.5813
   26MOL   O194 6244   2.898   2.222   5.544  0.5066  0.5595  0.4425
   26MOL   C195 6245   2.785   2.151   5.494 -0.7742 -0.3474 -0.5816
   26MOL   C196 6246   2.832   2.080   5.366  0.8885 -0.2385 -0.7399
   26MOL   C197 6247   2.743   2.062   5.612 -0.2029  0.8616 -0.4897
   26MOL   C198 6248   2.640   1.961   5.582  0.3459  0.6229 -0.4992
   26MOL   O199 6249   2.664   1.840   5.588 -0.1037  0.3850  0.4187
   26MOL   H200 6250   2.698   2.212   5.469 -0.6542  0.1874  0.2787
   26MOL   H201 6251   2.923   2.020   5.378  0.8976  0.4270  2.8565
   26MOL   H202 6252   2.862   2.151   5.289 -0.6439  0.6507 -0.5273
   26MOL   H203 6253   2.762   2.021   5.307  1.6351 -2.0415  0.1343
   26MOL   H204 6254   2.712   2.124   5.696 -0.0245 -0.4460  0.5582
   26MOL   H205 6255   2.828   2.000   5.640 -2.5792 -2.5495 -0.4328
   26MOL   O206 6256   2.517   2.010   5.548  0.4613  0.1270 -0.0570
   26MOL   C207 6257   2.413   1.919   5.506  0.6744  0.1527 -0.4340
   26MOL   C208 6258   2.315   1.904   5.627  0.5882  0.0766  0.5543
   26MOL   C209 6259   2.318   1.974   5.393 -0.6866 -0.1726 -0.0658
   26MOL   C210 6260   2.387   2.031   5.265 -0.2501 -0.0253  0.4739
   26MOL   O211 6261   2.489   1.976   5.227 -0.1677  0.1165 -0.4655
   26MOL   H212 6262   2.454   1.821   5.480  5.5137  0.9568  3.5486
   26MOL   H213 6263   2.272   1.997   5.661 -0.8980  0.3411 -1.9059
   26MOL   H214 6264   2.377   1.869   5.710 -1.8866 -2.9498  1.2313
   26MOL   H215 6265   2.249   1.820   5.604 -1.9638  2.4740 -1.1763
   26MOL   H216 6266   2.264   2.062   5.426 -2.2616 -1.4907  0.9305
   26MOL   H217 6267   2.256   1.891   5.358 -1.8622  0.8469 -0.4240
   26MOL   O218 6268   2.324   2.141   5.211 -0.4691  0.6243  0.0909
   26MOL   C219 6269   2.364   2.199   5.083 -0.1375 -0.2820 -0.5295
   26MOL   C220 6270   2.230   2.238   5.019  0.0817 -0.1372  0.2060
   26MOL   C221 6271   2.458   2.323   5.105 -0.3726  0.1163  0.1404
   26MOL   C222 6272   2.496   2.409   4.980 -0.3835  0.0318  0.2559
   26MOL   O223 6273   2.434   2.511   4.956  0.5501 -0.7823  0.4175
   26MOL   H224 6274   2.422   2.136   5.016 -1.4034  0.0298 -1.9751
   26MOL   H225 6275   2.239   2.287   4.922 -1.0179 -1.1750 -0.4302
   26MOL   H226 6276   2.161   2.299   5.078  1.5537  0.8719  0.9405
   26MOL   H227 6277   2.187   2.143   4.987  2.4545 -1.5053  0.9490
   26MOL   H228 6278   2.547   2.302   5.164 -0.2431 -0.7449 -0.3539
   26MOL   H229 6279   2.402   2.392   5.167 -2.9056  0.6169 -2.5897
   26MOL   O230 6280   2.590   2.352   4.905  0.0296 -0.4919  0.1474
   26MOL   C231 6281   2.619   2.386   4.769  0.0458  0.0329  0.0709
   26MOL   C232 6282   2.766   2.440   4.775 -0.2530  0.3993 -0.8087
   26MOL   C233 6283   2.603   2.268   4.680 -0.3880  0.6679  0.2810
   26MOL   C234 6284   2.463   2.231   4.647  0.4443  0.4045 -0.3619
   26MOL   O235 6285   2.417   2.121   4.688 -0.4283  1.1052  0.0273
   26MOL   H236 6286   2.557   2.470   4.740 -2.0410 -1.2782  0.6373
   26MOL   H237 6287   2.810   2.465   4.678  2.8873 -0.0971  0.4051
   26MOL   H238 6288   2.830   2.376   4.835 -0.2783  2.0087  0.9741
   26MOL   H239 6289   2.765   2.529   4.838  0.1823 -1.4271  1.8530
   26MOL   H240 6290   2.658   2.181   4.717 -1.7921 -1.1009 -1.7162
   26MOL   H241 6291   2.649   2.290   4.584  0.2838  0.7799  0.6242
   26MOL   H242 6292   2.415   2.301   4.579 -0.6413  0.3792  0.3687
   27MOL     O1 6293   3.614   7.769   3.045 -0.5993 -0.3268  0.6299
   27MOL     C2 6294   3.610   7.665   2.953 -0.4957 -0.2242 -0.2314
   27MOL     C3 6295   3.487   7.666   2.865  0.3793 -0.5130  0.2125
   27MOL     C4 6296   3.738   7.673   2.868 -0.0745 -0.2180  0.3673
   27MOL     C5 6297   3.767   7.544   2.782 -0.1290 -0.5257  0.6472
   27MOL     O6 6298   3.856   7.473   2.825 -0.1741  0.3537  0.1640
   27MOL     H7 6299   3.613   7.572   3.008  0.3250  0.6682  1.2719
   27MOL     H8 6300   3.494   7.754   2.801 -1.0231 -2.4752 -2.7068
   27MOL     H9 6301   3.397   7.673   2.926  0.6426 -1.7714  0.7597
   27MOL    H10 6302   3.481   7.584   2.794 -2.6105 -1.2618  1.2919
   27MOL    H11 6303   3.829   7.683   2.928 -0.5576 -0.8854  1.2083
   27MOL    H12 6304   3.738   7.765   2.809  3.3164  0.0558  0.6720
   27MOL    H13 6305   3.611   7.724   3.128  4.3218  1.3595  1.8969
   27MOL    O14 6306   3.697   7.533   2.668  0.3525 -0.1694  0.2451
   27MOL    C15 6307   3.683   7.411   2.591 -0.3962 -0.7453 -0.3017
   27MOL    C16 6308   3.553   7.344   2.648  0.3439 -0.0345  0.2699
   27MOL    C17 6309   3.680   7.452   2.442  0.1889  0.0384  0.2075
   27MOL    C18 6310   3.549   7.515   2.384 -0.6395 -0.3188 -0.2950
   27MOL    O19 6311   3.534   7.638   2.369  0.5638  0.0439  0.2446
   27MOL    H20 6312   3.764   7.341   2.613  1.6502  2.1329  1.6538
   27MOL    H21 6313   3.474   7.417   2.665  0.3764 -0.2777  1.5952
   27MOL    H22 6314   3.585   7.291   2.738 -0.0042  1.7803  1.4895
   27MOL    H23 6315   3.523   7.264   2.581 -2.1818  0.7765  0.3811
   27MOL    H24 6316   3.717   7.382   2.367  2.0385  1.8222 -0.5461
   27MOL    H25 6317   3.755   7.529   2.432  0.3160 -0.1699 -0.4768
   27MOL    O26 6318   3.453   7.419   2.377  0.4905 -0.5810  0.1735
   27MOL    C27 6319   3.338   7.441   2.298 -0.4384  0.2353  0.1502
   27MOL    C28 6320   3.342   7.339   2.177 -0.3127  0.4349 -0.2847
   27MOL    C29 6321   3.222   7.411   2.391  0.0834 -0.4938  0.2388
   27MOL    C30 6322   3.205   7.525   2.497  0.0965 -0.1007 -0.2748
   27MOL    O31 6323   3.262   7.521   2.609 -0.3199 -0.5219  0.1292
   27MOL    H32 6324   3.333   7.540   2.253  0.3526  0.9796  1.6445
   27MOL    H33 6325   3.427   7.359   2.112 -0.5373 -1.3659 -1.1564
   27MOL    H34 6326   3.250   7.342   2.119 -1.3876  1.7900  1.4225
   27MOL    H35 6327   3.359   7.234   2.200  4.2761  1.4357  1.3627
   27MOL    H36 6328   3.229   7.315   2.441 -1.7008 -1.1472 -0.7297
   27MOL    H37 6329   3.126   7.396   2.342 -0.3124 -1.4490  1.3040
   27MOL    O38 6330   3.128   7.621   2.448 -0.1697  0.2322 -0.6346
   27MOL    C39 6331   3.081   7.728   2.535 -0.1195  0.5028  0.7428
   27MOL    C40 6332   3.115   7.860   2.475 -0.4597 -0.3343  0.0636
   27MOL    C41 6333   2.931   7.707   2.560 -0.3072 -0.9131 -0.1345
   27MOL    C42 6334   2.887   7.583   2.638 -0.7978  0.2713  0.0119
   27MOL    O43 6335   2.843   7.482   2.584  0.2145 -0.0884 -0.0529
   27MOL    H44 6336   3.137   7.724   2.628  1.4643 -0.7566 -0.2367
   27MOL    H45 6337   3.083   7.938   2.543  0.7697 -0.2482  0.5578
   27MOL    H46 6338   3.059   7.873   2.382 -1.7483 -1.5238  0.6505
   27MOL    H47 6339   3.219   7.879   2.448 -0.6268  0.7620  0.1910
   27MOL    H48 6340   2.880   7.713   2.464 -0.4142  1.1163  0.0446
   27MOL    H49 6341   2.901   7.796   2.615  2.7487 -0.0336  0.1466
   27MOL    O50 6342   2.922   7.592   2.763  0.5135 -0.3203 -0.0843
   27MOL    C51 6343   2.916   7.484   2.845  0.0139  0.5790  0.0632
   27MOL    C52 6344   3.066   7.434   2.852  0.3817 -0.1468  0.5854
   27MOL    C53 6345   2.858   7.519   2.985 -0.1518  0.1196 -0.0170
   27MOL    C54 6346   2.714   7.552   2.982 -0.2641 -0.0601  0.2055
   27MOL    O55 6347   2.671   7.660   3.024 -0.1282  0.1084 -0.1327
   27MOL    H56 6348   2.853   7.402   2.811 -0.3196  1.0635 -0.5068
   27MOL    H57 6349   3.135   7.515   2.873 -0.0909 -0.0912  2.0420
   27MOL    H58 6350   3.098   7.385   2.760 -0.6239 -1.8961  1.1318
   27MOL    H59 6351   3.055   7.367   2.938  4.0144  1.0332  2.0471
   27MOL    H60 6352   2.913   7.604   3.025 -0.5684  0.2185  0.3516
   27MOL    H61 6353   2.871   7.433   3.051 -1.4812 -1.3066 -1.5797
   27MOL    O62 6354   2.645   7.448   2.939  0.5132  0.3995 -0.0356
   27MOL    C63 6355   2.507   7.461   2.899  0.1921 -0.6692 -0.2092
   27MOL    C64 6356   2.509   7.483   2.748 -0.4718  0.0384  0.1710
   27MOL    C65 6357   2.437   7.334   2.943 -0.6013  0.0080  0.7290
   27MOL    C66 6358   2.287   7.343   2.946 -0.2574  0.2350 -0.0016
   27MOL    O67 6359   2.220   7.446   2.907 -0.2380 -0.0315 -0.1649
   27MOL    H68 6360   2.467   7.550   2.947  2.3311  1.3010 -1.9854
   27MOL    H69 6361   2.577   7.435   2.678 -1.5058  1.3127 -1.7742
   27MOL    H70 6362   2.528   7.589   2.732  0.1832 -0.2693 -1.1670
   27MOL    H71 6363   2.407   7.471   2.711 -0.5640  0.0591  0.4175
   27MOL    H72 6364   2.470   7.322   3.046  0.5090 -0.8120  0.2887
   27MOL    H73 6365   2.467   7.245   2.887  2.6469  1.6041 -0.1845
   27MOL    O74 6366   2.237   7.220   2.977 -0.0447 -0.2186  0.0385
   27MOL    C75 6367   2.097   7.204   2.987  0.2735  0.0072 -0.2534
   27MOL    C76 6368   2.034   7.146   2.858  0.0787 -0.0694  0.1764
   27MOL    C77 6369   2.058   7.124   3.118  0.0989  0.0268  0.0934
   27MOL    C78 6370   2.040   7.213   3.246  0.0823 -0.1602 -0.4694
   27MOL    O79 6371   1.931   7.224   3.299 -0.2172  0.3313  0.3662
   27MOL    H80 6372   2.051   7.301   3.006 -0.6393 -0.1028 -1.8521
   27MOL    H81 6373   2.080   7.192   2.771 -0.7777 -0.9483 -0.7501
   27MOL    H82 6374   1.925   7.149   2.849  0.0515 -0.3442  0.3794
   27MOL    H83 6375   2.068   7.043   2.848 -0.6095 -0.3256  0.4546
   27MOL    H84 6376   2.141   7.055   3.135  1.0662  1.4763  1.3284
   27MOL    H85 6377   1.965   7.068   3.105 -1.2369  2.0282  0.7274
   27MOL    O86 6378   2.152   7.266   3.286  0.2042 -0.3246 -0.2122
   27MOL    C87 6379   2.165   7.360   3.391  0.3502  0.5949  0.3960
   27MOL    C88 6380   2.303   7.338   3.456  0.2081 -0.1034  0.1070
   27MOL    C89 6381   2.150   7.495   3.323  0.7247 -0.2821  0.2107
   27MOL    C90 6382   2.136   7.614   3.419  0.3436 -0.5331 -0.4505
   27MOL    O91 6383   2.203   7.718   3.408  0.4672 -0.2321 -0.1375
   27MOL    H92 6384   2.092   7.342   3.470  1.2255  1.6925  1.4758
   27MOL    H93 6385   2.380   7.358   3.382  2.3321  1.0681  2.5629
   27MOL    H94 6386   2.302   7.234   3.487 -0.7756 -0.2546 -0.3846
   27MOL    H95 6387   2.329   7.408   3.535  0.0423  2.2375 -1.8344
   27MOL    H96 6388   2.059   7.502   3.264  0.2897 -0.7496  0.8241
   27MOL    H97 6389   2.236   7.504   3.256 -0.3802  0.7330 -1.0949
   27MOL    O98 6390   2.058   7.585   3.525 -0.2824 -0.0409 -0.5982
   27MOL    C99 6391   2.030   7.676   3.632 -0.1741 -0.6336 -0.5735
   27MOL   C100 6392   1.881   7.670   3.651 -0.8260 -0.3047  0.0000
   27MOL   C101 6393   2.113   7.641   3.760  0.2662  0.0636  0.5542
   27MOL   C102 6394   2.062   7.531   3.859  0.0096  0.0312 -0.5618
   27MOL   O103 6395   2.013   7.424   3.824  0.3849  0.0170 -0.1082
   27MOL   H104 6396   2.070   7.775   3.610  1.4086 -0.7689  1.5925
   27MOL   H105 6397   1.827   7.753   3.606  0.4520  1.8297  2.3140
   27MOL   H106 6398   1.857   7.684   3.756  1.4573  1.9631  0.2634
   27MOL   H107 6399   1.841   7.576   3.613 -2.0839  0.1548  0.1885
   27MOL   H108 6400   2.117   7.736   3.813 -0.3109  0.8563 -0.7950
   27MOL   H109 6401   2.219   7.630   3.736  0.1357  1.7411 -0.8634
   27MOL   O110 6402   2.076   7.572   3.981 -0.1964 -0.2372  0.0196
   27MOL   C111 6403   2.026   7.494   4.088 -0.4303 -0.4446  0.0676
   27MOL   C112 6404   2.151   7.458   4.171  0.1515 -0.0582 -0.0499
   27MOL   C113 6405   1.933   7.584   4.161  0.5600  0.8621 -0.1430
   27MOL   C114 6406   1.791   7.573   4.096  0.5828  0.2057  0.7018
   27MOL   O115 6407   1.732   7.668   4.040 -0.0121 -0.3353 -0.0781
   27MOL   H116 6408   1.981   7.399   4.058 -0.5551 -0.4516  0.2699
   27MOL   H117 6409   2.239   7.425   4.115  0.4699 -1.7543  1.3978
   27MOL   H118 6410   2.129   7.391   4.254 -1.2794 -1.2725 -1.3929
   27MOL   H119 6411   2.194   7.550   4.210 -1.8947  1.4682 -1.2984
   27MOL   H120 6412   1.966   7.687   4.164  2.2653  0.2980  1.1761
   27MOL   H121 6413   1.936   7.551   4.265 -0.5082 -0.6395 -0.5571
   27MOL   O122 6414   1.741   7.445   4.095  0.0445  0.0215 -0.5300
   27MOL   C123 6415   1.625   7.403   4.017  0.2438 -0.5877  0.1649
   27MOL   C124 6416   1.654   7.399   3.866 -0.4402 -0.4207 -0.3805
   27MOL   C125 6417   1.575   7.266   4.067 -0.6568 -0.1803 -0.0980
   27MOL   C126 6418   1.422   7.243   4.045  0.5711 -0.1670 -0.0200
   27MOL   O127 6419   1.334   7.326   4.015  0.0081  0.7530 -0.4816
   27MOL   H128 6420   1.548   7.476   4.040  1.6498  1.0008 -0.1432
   27MOL   H129 6421   1.650   7.498   3.822  0.5670 -0.8602 -1.4870
   27MOL   H130 6422   1.596   7.334   3.801 -0.2372  0.9636 -1.9709
   27MOL   H131 6423   1.756   7.367   3.842 -0.0895  1.0852 -0.9244
   27MOL   H132 6424   1.591   7.259   4.175 -0.4226 -1.6084 -0.2165
   27MOL   H133 6425   1.628   7.179   4.027 -1.4367  0.0813 -1.7197
   27MOL   O134 6426   1.393   7.110   4.042 -0.1594 -0.0533 -0.3393
   27MOL   C135 6427   1.262   7.066   3.990 -0.3289 -0.3914  0.3157
   27MOL   C136 6428   1.263   7.047   3.833  0.2276 -0.6141 -0.3168
   27MOL   C137 6429   1.226   6.941   4.074 -0.0209 -1.0297  0.2524
   27MOL   C138 6430   1.317   6.821   4.084  0.2909 -0.1249  0.0093
   27MOL   O139 6431   1.387   6.794   4.181  0.2600  0.3035  0.1294
   27MOL   H140 6432   1.181   7.132   4.023 -0.9672 -0.8407 -0.3260
   27MOL   H141 6433   1.257   7.141   3.778 -0.6345 -0.0812  0.6670
   27MOL   H142 6434   1.188   6.975   3.800 -1.8962  1.1222  0.5530
   27MOL   H143 6435   1.356   7.008   3.792 -1.2616 -1.8931 -2.5673
   27MOL   H144 6436   1.135   6.904   4.028 -2.0671 -0.7329  3.8182
   27MOL   H145 6437   1.186   6.966   4.173  1.1989  1.7598  0.0783
   27MOL   O146 6438   1.317   6.745   3.973 -1.0139  0.5881  0.7089
   27MOL   C147 6439   1.397   6.627   3.964 -0.5742 -0.1503  0.7630
   27MOL   C148 6440   1.300   6.510   3.989  0.4632 -0.1271 -0.0814
   27MOL   C149 6441   1.465   6.627   3.823 -0.0154  0.2077  0.7512
   27MOL   C150 6442   1.602   6.691   3.811  0.7073  0.5090  0.4867
   27MOL   O151 6443   1.695   6.636   3.760  0.2904 -0.3205 -0.3652
   27MOL   H152 6444   1.474   6.629   4.040  0.2867 -1.1591 -0.0669
   27MOL   H153 6445   1.341   6.414   3.960 -1.6257 -0.8051 -0.9152
   27MOL   H154 6446   1.204   6.521   3.937  0.5205 -1.6193 -0.5004
   27MOL   H155 6447   1.285   6.499   4.097 -1.0040 -0.0178 -0.2562
   27MOL   H156 6448   1.404   6.679   3.749  1.3628 -0.3206 -0.7991
   27MOL   H157 6449   1.471   6.522   3.795 -0.2579  0.7597 -1.5235
   27MOL   O158 6450   1.597   6.818   3.861  0.4769  0.5908 -0.6287
   27MOL   C159 6451   1.710   6.900   3.856  0.0259  0.5983  0.6502
   27MOL   C160 6452   1.657   7.028   3.794 -0.0295  0.9676 -0.0138
   27MOL   C161 6453   1.752   6.916   4.001  0.1564 -0.3653 -0.2690
   27MOL   C162 6454   1.861   7.019   4.028  0.3450 -0.7613 -0.3883
   27MOL   O163 6455   1.848   7.123   4.092 -0.1016  0.5000  0.0814
   27MOL   H164 6456   1.783   6.871   3.782 -1.0506  2.0832 -1.0271
   27MOL   H165 6457   1.571   7.051   3.857 -0.8060  1.6114 -1.2936
   27MOL   H166 6458   1.620   7.019   3.692  0.2080 -0.2044  0.0021
   27MOL   H167 6459   1.725   7.113   3.792  0.6351  0.4882  1.2970
   27MOL   H168 6460   1.787   6.817   4.031 -1.9785 -0.5704  1.6901
   27MOL   H169 6461   1.663   6.933   4.062  2.1092  2.4808  1.9711
   27MOL   O170 6462   1.978   6.981   3.975  0.0060  0.4093 -0.0074
   27MOL   C171 6463   2.096   7.067   3.970  0.3629 -0.6527 -0.4707
   27MOL   C172 6464   2.168   7.065   4.104 -0.5972 -0.2632  0.2720
   27MOL   C173 6465   2.189   7.015   3.853 -0.3699  0.8445  0.8446
   27MOL   C174 6466   2.231   6.869   3.859  0.4477 -0.0258 -0.0075
   27MOL   O175 6467   2.351   6.850   3.884 -0.3140 -0.0290  0.2472
   27MOL   H176 6468   2.064   7.166   3.938 -1.7678 -1.0835  0.2724
   27MOL   H177 6469   2.209   6.971   4.140 -0.4356  0.1298  1.1388
   27MOL   H178 6470   2.103   7.101   4.184  0.0712  1.0833  0.2297
   27MOL   H179 6471   2.248   7.140   4.109 -1.1928  0.7402 -3.5671
   27MOL   H180 6472   2.271   7.086   3.835  1.1572 -0.9144  0.7303
   27MOL   H181 6473   2.142   7.023   3.755 -0.6460  1.3846  1.0210
   27MOL   O182 6474   2.142   6.775   3.829  0.9006 -0.4021  0.3316
   27MOL   C183 6475   2.188   6.642   3.815 -0.7960 -0.9391  0.0848
   27MOL   C184 6476   2.080   6.546   3.868 -0.0618 -0.5113 -0.3605
   27MOL   C185 6477   2.209   6.612   3.661  0.4950 -0.3072  0.5037
   27MOL   C186 6478   2.095   6.645   3.564 -0.5192  0.5711 -0.5202
   27MOL   O187 6479   2.056   6.559   3.492  0.2372  0.2773  0.2565
   27MOL   H188 6480   2.279   6.627   3.873  0.7444 -0.2937 -2.1064
   27MOL   H189 6481   2.061   6.563   3.974  0.1251  2.0320 -0.7134
   27MOL   H190 6482   2.081   6.440   3.845  1.0388 -0.1474 -2.0624
   27MOL   H191 6483   1.985   6.579   3.826 -0.9527 -0.0553  1.9276
   27MOL   H192 6484   2.244   6.509   3.658  1.0604 -0.1308  0.8388
   27MOL   H193 6485   2.289   6.671   3.616 -0.6690  1.1796  0.3488
   27MOL   O194 6486   2.057   6.770   3.556  0.2389 -0.3157  0.4583
   27MOL   C195 6487   1.934   6.827   3.509 -0.2671 -0.3649 -0.0857
   27MOL   C196 6488   1.939   6.967   3.570  0.2735 -0.1749  0.6056
   27MOL   C197 6489   1.926   6.829   3.358  0.0501  0.6009 -0.1821
   27MOL   C198 6490   1.784   6.866   3.299 -0.1861 -0.0020 -0.0386
   27MOL   O199 6491   1.764   6.962   3.220 -0.0510 -0.3383  0.5450
   27MOL   H200 6492   1.850   6.769   3.547  0.3093 -1.5163 -0.5459
   27MOL   H201 6493   2.030   7.017   3.536 -0.5169 -0.4041 -1.9703
   27MOL   H202 6494   1.940   6.975   3.679 -0.2573  2.1475  0.4723
   27MOL   H203 6495   1.865   7.038   3.533  1.0242  0.3140  0.0248
   27MOL   H204 6496   1.962   6.734   3.320  0.3032  1.5908 -2.5572
   27MOL   H205 6497   1.999   6.895   3.310 -0.3559  0.2211 -1.3475
   27MOL   O206 6498   1.693   6.770   3.344 -0.1671  0.0633 -0.6949
   27MOL   C207 6499   1.552   6.784   3.327  0.8096 -0.3802  0.3314
   27MOL   C208 6500   1.477   6.681   3.228  0.6532 -0.5397 -1.1766
   27MOL   C209 6501   1.499   6.774   3.471  0.2251  0.0911 -0.1124
   27MOL   C210 6502   1.370   6.852   3.491  0.7115 -0.9033  0.5471
   27MOL   O211 6503   1.381   6.967   3.521  0.1934 -0.0541 -0.6649
   27MOL   H212 6504   1.537   6.887   3.294  3.3650  0.8540  2.8413
   27MOL   H213 6505   1.370   6.702   3.225  0.7106  0.3522  1.2331
   27MOL   H214 6506   1.503   6.579   3.258 -1.6648 -1.0207 -0.6540
   27MOL   H215 6507   1.510   6.708   3.128 -0.5007  2.3977 -0.8271
   27MOL   H216 6508   1.577   6.804   3.541 -1.0243 -0.3890  1.5282
   27MOL   H217 6509   1.482   6.672   3.506  2.2507 -0.7992 -1.6562
   27MOL   O218 6510   1.254   6.781   3.448  0.3833 -0.1246  0.8562
   27MOL   C219 6511   1.127   6.834   3.466  0.1760 -0.8173 -0.0849
   27MOL   C220 6512   1.055   6.811   3.331  0.2731  0.4647 -0.9557
   27MOL   C221 6513   1.064   6.767   3.595 -0.3038  0.6971  0.3435
   27MOL   C222 6514   0.928   6.809   3.637 -0.6643  0.4446 -0.8030
   27MOL   O223 6515   0.887   6.926   3.631 -0.1447  0.1515  0.4638
   27MOL   H224 6516   1.138   6.941   3.485 -1.4900 -0.9760  2.0767
   27MOL   H225 6517   1.026   6.707   3.312  2.9149 -0.2616 -1.1852
   27MOL   H226 6518   1.107   6.855   3.246  2.2122  0.2247  0.0893
   27MOL   H227 6519   0.957   6.859   3.339  0.5742  0.9104  0.0784
   27MOL   H228 6520   1.118   6.816   3.677  2.0568 -0.0856 -0.6785
   27MOL   H229 6521   1.093   6.662   3.606 -1.3004  0.4668  0.7667
   27MOL   O230 6522   0.862   6.717   3.695 -0.1943 -0.1208  0.4609
   27MOL   C231 6523   0.729   6.735   3.742  0.3099 -0.2285 -0.0383
   27MOL   C232 6524   0.636   6.664   3.641  0.2455 -0.3590 -0.5785
   27MOL   C233 6525   0.714   6.677   3.883 -0.6289  0.1665 -1.0062
   27MOL   C234 6526   0.774   6.759   3.995  0.9394 -0.5175  0.2352
   27MOL   O235 6527   0.870   6.830   3.974 -0.7140  0.2570 -0.2699
   27MOL   H236 6528   0.703   6.838   3.765 -0.6579 -0.6234  0.6414
   27MOL   H237 6529   0.535   6.699   3.662 -0.1730 -0.5294 -2.2159
   27MOL   H238 6530   0.640   6.555   3.633 -1.5216 -0.5556  1.0030
   27MOL   H239 6531   0.658   6.703   3.541  0.5473 -1.2219 -0.8551
   27MOL   H240 6532   0.747   6.575   3.898  0.7666  0.7389 -0.0983
   27MOL   H241 6533   0.607   6.683   3.906 -0.6308 -1.0949 -0.6623
   27MOL   H242 6534   0.716   6.753   4.087  0.2734  0.6016 -0.0841
   28MOL     O1 6535   3.663   2.152   4.356  0.4291 -0.3791 -0.1968
   28MOL     C2 6536   3.717   2.158   4.224 -0.8831 -0.5189  0.1950
   28MOL     C3 6537   3.875   2.142   4.231  1.1339 -0.5471  0.1188
   28MOL     C4 6538   3.644   2.043   4.148 -0.0733 -0.2180 -0.2565
   28MOL     C5 6539   3.675   2.013   3.992  0.3223  0.0364  0.7803
   28MOL     O6 6540   3.653   2.100   3.913 -0.0171  0.4565 -0.0138
   28MOL     H7 6541   3.699   2.248   4.165  1.5457 -0.4912 -0.5622
   28MOL     H8 6542   3.913   2.051   4.278  1.5118  0.6858  2.2873
   28MOL     H9 6543   3.921   2.229   4.277 -0.0792  1.3717 -2.2071
   28MOL    H10 6544   3.922   2.143   4.133  1.4247  0.7034  0.2598
   28MOL    H11 6545   3.538   2.066   4.139 -0.4924 -0.9565  2.3873
   28MOL    H12 6546   3.649   1.947   4.199  1.2034  0.0428  0.1438
   28MOL    H13 6547   3.570   2.145   4.343  0.1958  0.5330  0.8680
   28MOL    O14 6548   3.725   1.897   3.968 -0.0619  0.2563 -0.3815
   28MOL    C15 6549   3.756   1.839   3.843  0.3620 -0.0008 -0.2024
   28MOL    C16 6550   3.899   1.845   3.812 -0.3498 -0.4166 -0.3362
   28MOL    C17 6551   3.689   1.699   3.824  0.1095 -0.6395  0.1351
   28MOL    C18 6552   3.538   1.719   3.803 -0.5744  0.6969 -0.5677
   28MOL    O19 6553   3.456   1.734   3.895  1.0119  0.1143  0.1594
   28MOL    H20 6554   3.720   1.903   3.763 -0.1111 -1.4760 -1.2011
   28MOL    H21 6555   3.924   1.822   3.708  1.3236 -0.7785  0.1202
   28MOL    H22 6556   3.958   1.769   3.865  3.0224  2.4434  0.1918
   28MOL    H23 6557   3.942   1.942   3.838  0.0435 -0.8791  0.7688
   28MOL    H24 6558   3.700   1.628   3.906 -1.2560 -1.5760 -0.4571
   28MOL    H25 6559   3.738   1.645   3.743  0.5321 -0.0322 -0.0063
   28MOL    O26 6560   3.512   1.724   3.669 -0.5392 -0.1928 -0.5771
   28MOL    C27 6561   3.383   1.785   3.628 -0.7106 -0.0564 -0.1308
   28MOL    C28 6562   3.399   1.927   3.572 -0.9886  0.3291 -0.2440
   28MOL    C29 6563   3.316   1.684   3.525 -0.9127  0.0899  0.0452
   28MOL    C30 6564   3.403   1.665   3.395  0.0195  0.4194 -0.2187
   28MOL    O31 6565   3.370   1.712   3.283  0.3425 -0.2796  0.5462
   28MOL    H32 6566   3.308   1.786   3.707 -0.6931  0.3475 -0.1226
   28MOL    H33 6567   3.411   2.001   3.651  0.5619 -0.3137  0.1380
   28MOL    H34 6568   3.319   1.942   3.500 -0.2282 -2.9987 -1.8787
   28MOL    H35 6569   3.482   1.925   3.502 -0.6305 -1.1925  0.1965
   28MOL    H36 6570   3.217   1.722   3.500 -2.1780 -0.1378  4.3220
   28MOL    H37 6571   3.295   1.595   3.585 -2.5814  0.0224 -0.6173
   28MOL    O38 6572   3.517   1.588   3.421  0.1411 -0.4947 -0.6799
   28MOL    C39 6573   3.610   1.565   3.323 -0.2915  0.1993 -0.4316
   28MOL    C40 6574   3.743   1.615   3.374 -0.5810 -0.4493  0.2415
   28MOL    C41 6575   3.611   1.411   3.288 -0.6436 -0.4601  0.1127
   28MOL    C42 6576   3.606   1.396   3.133 -0.2468  0.0508 -0.7783
   28MOL    O43 6577   3.526   1.318   3.083  0.1501  0.2186 -0.0247
   28MOL    H44 6578   3.582   1.630   3.240  0.3019  2.4462  1.0813
   28MOL    H45 6579   3.785   1.556   3.455 -1.0261 -1.5364 -0.3078
   28MOL    H46 6580   3.734   1.719   3.404  0.0474 -0.1979 -0.4477
   28MOL    H47 6581   3.823   1.625   3.301  0.5954 -0.3082  1.5211
   28MOL    H48 6582   3.527   1.365   3.340  1.0254 -0.2703  3.1161
   28MOL    H49 6583   3.706   1.374   3.327  0.6748  0.8302 -1.7864
   28MOL    O50 6584   3.707   1.466   3.069 -0.2416  0.1394 -0.4766
   28MOL    C51 6585   3.707   1.473   2.923  0.0107 -0.6250  0.5548
   28MOL    C52 6586   3.675   1.612   2.881  0.2429  0.5657  0.4838
   28MOL    C53 6587   3.831   1.408   2.858 -0.2113 -0.0976  0.2380
   28MOL    C54 6588   3.807   1.374   2.719  0.4703  0.1340  0.4970
   28MOL    O55 6589   3.870   1.431   2.625 -0.0009 -0.1993  0.3291
   28MOL    H56 6590   3.628   1.407   2.887 -1.2464  0.0133  2.0402
   28MOL    H57 6591   3.765   1.673   2.882 -0.1184  1.1206 -0.3336
   28MOL    H58 6592   3.595   1.651   2.943  1.3255  0.7020  1.8306
   28MOL    H59 6593   3.652   1.617   2.774 -1.0644  1.5701  0.8105
   28MOL    H60 6594   3.872   1.318   2.905  1.2905  0.4293 -0.0212
   28MOL    H61 6595   3.913   1.480   2.863 -0.6927  0.3679  2.0161
   28MOL    O62 6596   3.722   1.277   2.705  0.6837  0.5238 -0.1752
   28MOL    C63 6597   3.690   1.217   2.579  0.1209 -0.1105  0.3095
   28MOL    C64 6598   3.807   1.151   2.503 -0.0606  0.2403 -0.1547
   28MOL    C65 6599   3.577   1.115   2.601  0.2188  0.2104  0.4924
   28MOL    C66 6600   3.436   1.177   2.633  0.3787 -0.0596 -0.9196
   28MOL    O67 6601   3.332   1.116   2.601  0.2679 -0.2477 -0.2820
   28MOL    H68 6602   3.640   1.288   2.512 -1.3524  0.1009  1.6092
   28MOL    H69 6603   3.856   1.070   2.556 -1.6666  0.3963  1.6502
   28MOL    H70 6604   3.887   1.223   2.481  1.6472 -1.9441 -1.2817
   28MOL    H71 6605   3.769   1.116   2.408  0.4210 -1.2947  0.2158
   28MOL    H72 6606   3.605   1.058   2.690  0.1170  0.6656  0.8168
   28MOL    H73 6607   3.571   1.052   2.512 -2.2473  0.9178  0.1312
   28MOL    O74 6608   3.435   1.294   2.697  1.1062  0.9132  0.2056
   28MOL    C75 6609   3.321   1.377   2.689 -0.0709  0.0251  0.8902
   28MOL    C76 6610   3.250   1.369   2.826  0.2759  0.1612  0.1133
   28MOL    C77 6611   3.357   1.516   2.642  0.3333  0.0388 -0.8690
   28MOL    C78 6612   3.397   1.530   2.494 -0.5234 -0.5941 -0.3522
   28MOL    O79 6613   3.445   1.439   2.432  0.1470 -0.2117 -0.1401
   28MOL    H80 6614   3.249   1.339   2.617 -2.5288  0.0031  3.2511
   28MOL    H81 6615   3.158   1.429   2.822  2.1001  2.9372 -3.8267
   28MOL    H82 6616   3.320   1.404   2.901 -0.3598 -0.2654  0.9086
   28MOL    H83 6617   3.215   1.268   2.844 -3.1639  1.4086  0.8643
   28MOL    H84 6618   3.437   1.555   2.705 -0.3241 -0.5600  0.3517
   28MOL    H85 6619   3.270   1.577   2.668  1.1457  0.8151  0.0732
   28MOL    O86 6620   3.375   1.658   2.447 -0.3430 -0.9086  0.1343
   28MOL    C87 6621   3.419   1.693   2.314 -0.0983  0.2427 -0.2170
   28MOL    C88 6622   3.309   1.793   2.263 -0.1736  0.4359  0.2231
   28MOL    C89 6623   3.562   1.759   2.323  0.1355  0.7210 -0.4765
   28MOL    C90 6624   3.676   1.662   2.355  0.1753 -0.1376  1.1452
   28MOL    O91 6625   3.724   1.652   2.464 -1.0398 -0.5627 -0.4693
   28MOL    H92 6626   3.412   1.610   2.243 -2.3732 -0.2846  0.5846
   28MOL    H93 6627   3.314   1.891   2.311 -1.6846 -0.7688  2.9673
   28MOL    H94 6628   3.208   1.753   2.274 -0.6994  1.7484  0.2284
   28MOL    H95 6629   3.322   1.806   2.156  2.1486 -1.0530  0.3027
   28MOL    H96 6630   3.552   1.842   2.392 -1.0954  1.1811 -1.1911
   28MOL    H97 6631   3.600   1.804   2.232  2.6907  0.2826  0.3259
   28MOL    O98 6632   3.707   1.587   2.244  0.0228 -0.0268 -0.5318
   28MOL    C99 6633   3.791   1.470   2.255  0.1430  0.5427  0.3226
   28MOL   C100 6634   3.736   1.372   2.155  0.1815 -0.1178  0.1931
   28MOL   C101 6635   3.941   1.502   2.239 -0.2797  0.1685  0.0687
   28MOL   C102 6636   3.989   1.552   2.106 -0.1103  0.1628  0.0248
   28MOL   O103 6637   4.023   1.668   2.080  0.9356 -0.7661 -0.0002
   28MOL   H104 6638   3.779   1.415   2.348  1.5053 -3.3429 -1.6849
   28MOL   H105 6639   3.798   1.283   2.151 -2.3326 -1.8840 -1.0457
   28MOL   H106 6640   3.728   1.413   2.054  1.6870  0.8977  0.4807
   28MOL   H107 6641   3.637   1.340   2.190  0.6374 -0.5718  1.0701
   28MOL   H108 6642   3.982   1.402   2.254 -1.2675 -0.1081  0.9727
   28MOL   H109 6643   3.971   1.565   2.322  1.6085 -0.6775  0.0557
   28MOL   O110 6644   4.007   1.452   2.020  0.0347  0.3977  0.1322
   28MOL   C111 6645   4.051   1.479   1.887 -0.0840 -0.2520 -0.0235
   28MOL   C112 6646   4.150   1.371   1.832 -0.2942 -0.4521  0.4997
   28MOL   C113 6647   3.936   1.529   1.789 -0.4555  0.3955 -0.6132
   28MOL   C114 6648   3.853   1.417   1.728 -0.0862 -0.0671 -0.1693
   28MOL   O115 6649   3.732   1.418   1.756  0.4727 -0.4138  0.5816
   28MOL   H116 6650   4.105   1.573   1.878  2.7085 -2.0395 -2.8253
   28MOL   H117 6651   4.170   1.389   1.726  1.6916 -2.5853  0.4737
   28MOL   H118 6652   4.109   1.271   1.841 -0.4447 -0.6053 -1.6397
   28MOL   H119 6653   4.241   1.374   1.893 -0.4595  0.0911  0.7202
   28MOL   H120 6654   3.987   1.564   1.699 -0.4504  0.5430 -0.5530
   28MOL   H121 6655   3.875   1.608   1.832 -0.9393 -1.6752  2.7076
   28MOL   O122 6656   3.926   1.341   1.641  0.2698  0.1682  0.4068
   28MOL   C123 6657   3.875   1.237   1.568  0.3581 -0.6373 -0.0822
   28MOL   C124 6658   3.927   1.257   1.430 -0.1998 -0.5866 -0.1367
   28MOL   C125 6659   3.911   1.097   1.636 -0.3927 -0.4280 -0.1451
   28MOL   C126 6660   3.819   1.056   1.754 -0.1828 -0.2219  0.6684
   28MOL   O127 6661   3.867   1.005   1.858 -0.2953 -0.4708  0.3933
   28MOL   H128 6662   3.768   1.248   1.553 -0.0979 -3.5418  0.6967
   28MOL   H129 6663   3.888   1.350   1.389 -1.5964 -2.2527 -2.7490
   28MOL   H130 6664   3.902   1.171   1.367  3.2486  0.3502 -2.9458
   28MOL   H131 6665   4.036   1.260   1.437 -0.3718  1.0459  2.1716
   28MOL   H132 6666   4.009   1.102   1.682 -0.2915 -1.8545 -0.1667
   28MOL   H133 6667   3.902   1.022   1.557 -2.1944  0.7921 -1.1430
   28MOL   O134 6668   3.689   1.089   1.733 -0.0201 -0.1059  0.4096
   28MOL   C135 6669   3.605   1.079   1.846  0.4110  0.2001 -0.3894
   28MOL   C136 6670   3.480   1.165   1.811 -0.1050 -0.5473  0.2828
   28MOL   C137 6671   3.562   0.927   1.857  0.2760  0.8375 -0.5070
   28MOL   C138 6672   3.463   0.915   1.973 -0.5214 -0.9276 -0.4963
   28MOL   O139 6673   3.354   0.854   1.967  0.2777  0.0956 -0.1160
   28MOL   H140 6674   3.651   1.125   1.933 -1.3869 -0.7114  1.0771
   28MOL   H141 6675   3.419   1.178   1.901 -0.1902  2.2132 -0.1168
   28MOL   H142 6676   3.424   1.120   1.729  0.5506  3.2417 -2.3904
   28MOL   H143 6677   3.511   1.266   1.783 -0.9347  0.0586  1.4755
   28MOL   H144 6678   3.643   0.858   1.879  0.9235  2.1748  1.3790
   28MOL   H145 6679   3.515   0.888   1.766  1.7403 -0.8240 -0.5909
   28MOL   O146 6680   3.506   0.987   2.084  0.2001  0.4001  0.0068
   28MOL   C147 6681   3.418   0.996   2.199 -0.5269 -0.0791  0.8016
   28MOL   C148 6682   3.499   0.913   2.302 -0.1806 -0.4445  0.1000
   28MOL   C149 6683   3.395   1.139   2.240  0.2037  0.2276 -0.3584
   28MOL   C150 6684   3.251   1.184   2.225  0.4336 -0.9201 -0.2530
   28MOL   O151 6685   3.204   1.191   2.112  0.2018 -0.3604 -0.0198
   28MOL   H152 6686   3.325   0.941   2.183 -0.6071  0.9412 -2.7496
   28MOL   H153 6687   3.441   0.924   2.393  1.0295  0.2467  0.8092
   28MOL   H154 6688   3.605   0.939   2.313  0.1311 -1.7680  0.3351
   28MOL   H155 6689   3.497   0.807   2.276 -0.3743 -0.0049 -1.7116
   28MOL   H156 6690   3.458   1.208   2.185  0.1439  0.4274 -0.1788
   28MOL   H157 6691   3.417   1.147   2.346 -1.5097  0.3705  0.0088
   28MOL   O158 6692   3.186   1.206   2.338 -0.1870 -0.4499  0.0196
   28MOL   C159 6693   3.053   1.263   2.341 -0.4514  0.2246 -0.7474
   28MOL   C160 6694   2.990   1.225   2.470 -0.1281  0.1110  0.4280
   28MOL   C161 6695   3.053   1.423   2.342 -0.6952  0.2178  0.0893
   28MOL   C162 6696   3.069   1.490   2.207  0.3803 -1.1380  0.2456
   28MOL   O163 6697   3.180   1.519   2.163 -0.4984 -0.4048 -0.0695
   28MOL   H164 6698   2.983   1.231   2.264 -1.6328  0.4987  0.2134
   28MOL   H165 6699   2.993   1.118   2.488 -0.6313  0.2487  1.3708
   28MOL   H166 6700   2.886   1.245   2.441  0.7725 -0.8399 -3.8423
   28MOL   H167 6701   3.013   1.293   2.551  0.4333  2.6073 -1.7496
   28MOL   H168 6702   3.143   1.464   2.388 -0.2683  2.7462 -2.8250
   28MOL   H169 6703   2.966   1.460   2.396 -0.0697 -0.3347  1.5064
   28MOL   O170 6704   2.954   1.510   2.141  0.6172 -0.4948  0.1419
   28MOL   C171 6705   2.956   1.550   2.000  0.5238  0.2410 -0.4541
   28MOL   C172 6706   2.985   1.433   1.911  0.2323 -0.2912 -0.2395
   28MOL   C173 6707   2.824   1.624   1.970  0.7617  0.1482  0.5102
   28MOL   C174 6708   2.808   1.762   2.035  0.3968 -0.1703 -0.4822
   28MOL   O175 6709   2.708   1.785   2.105 -0.3271 -0.4481 -0.2542
   28MOL   H176 6710   3.031   1.626   1.976 -0.1617  0.1478 -3.0277
   28MOL   H177 6711   3.014   1.471   1.814 -0.1606  1.1855  0.2125
   28MOL   H178 6712   2.915   1.351   1.896 -0.1924 -0.0366  0.3127
   28MOL   H179 6713   3.078   1.384   1.941  0.2187 -0.3596 -0.3122
   28MOL   H180 6714   2.740   1.559   1.994  1.2538 -1.0893 -1.0765
   28MOL   H181 6715   2.812   1.648   1.864 -3.1883  0.7118  0.9785
   28MOL   O182 6716   2.916   1.847   2.012  0.4593  0.0282 -0.1564
   28MOL   C183 6717   2.911   1.989   2.046  0.0594  0.1748 -0.3618
   28MOL   C184 6718   3.047   2.040   2.053  0.3298  0.4998 -0.6175
   28MOL   C185 6719   2.819   2.062   1.948 -0.0459 -0.7603  0.2800
   28MOL   C186 6720   2.776   2.203   1.984 -0.0410  0.2961  0.2497
   28MOL   O187 6721   2.848   2.301   1.976  0.4262 -0.2936 -0.1879
   28MOL   H188 6722   2.853   1.999   2.137  0.5102 -1.5803  0.1383
   28MOL   H189 6723   3.105   2.009   2.140  0.5453  2.5139 -0.0226
   28MOL   H190 6724   3.045   2.149   2.058 -0.0721  0.5085 -0.9018
   28MOL   H191 6725   3.100   2.021   1.961  0.6331 -0.0594 -0.3302
   28MOL   H192 6726   2.734   2.000   1.920 -1.7140  2.0959 -1.2354
   28MOL   H193 6727   2.875   2.067   1.855 -2.9347  1.5655 -1.4107
   28MOL   O194 6728   2.641   2.205   2.022 -0.6329  0.5570 -0.4958
   28MOL   C195 6729   2.576   2.326   2.069 -0.6233  0.3713  0.0725
   28MOL   C196 6730   2.432   2.280   2.046  0.0775  0.5435  0.1260
   28MOL   C197 6731   2.620   2.347   2.211  0.1993 -0.1412 -0.1975
   28MOL   C198 6732   2.562   2.468   2.291 -0.2436  0.1284  0.2748
   28MOL   O199 6733   2.633   2.568   2.310  0.2146  0.1137  0.1053
   28MOL   H200 6734   2.602   2.404   1.997 -0.8926 -2.1230 -2.8250
   28MOL   H201 6735   2.418   2.227   1.952  1.6328  0.6843 -0.2055
   28MOL   H202 6736   2.363   2.364   2.054  1.8130  2.0851 -0.7999
   28MOL   H203 6737   2.398   2.209   2.121  0.2728 -0.5924 -0.8529
   28MOL   H204 6738   2.728   2.355   2.227  0.1194 -0.5256  0.5516
   28MOL   H205 6739   2.573   2.261   2.257 -1.5476  2.0919  2.3528
   28MOL   O206 6740   2.439   2.441   2.333  0.8688 -0.0014  0.2692
   28MOL   C207 6741   2.368   2.534   2.414 -0.0322 -0.8083  0.3069
   28MOL   C208 6742   2.284   2.636   2.329 -0.1051 -0.0123 -0.2663
   28MOL   C209 6743   2.284   2.460   2.522 -0.6017  0.6329  0.5772
   28MOL   C210 6744   2.360   2.385   2.631  1.2360 -0.1006  0.1894
   28MOL   O211 6745   2.403   2.272   2.619 -0.3997  0.1082 -0.0691
   28MOL   H212 6746   2.443   2.596   2.464  1.2039 -1.8669 -0.1977
   28MOL   H213 6747   2.200   2.592   2.276 -1.2450  1.5476  0.2283
   28MOL   H214 6748   2.342   2.695   2.258 -0.6765 -0.2100 -0.9039
   28MOL   H215 6749   2.250   2.708   2.403 -0.2187 -0.5813  0.2440
   28MOL   H216 6750   2.230   2.380   2.471  2.1081 -1.0788  0.3087
   28MOL   H217 6751   2.208   2.529   2.558  1.1511  2.0451  1.6605
   28MOL   O218 6752   2.379   2.461   2.737  0.1111 -0.2215  0.0272
   28MOL   C219 6753   2.423   2.408   2.863 -0.2558  0.5352 -0.3251
   28MOL   C220 6754   2.580   2.399   2.864 -0.3161 -0.0489  0.0704
   28MOL   C221 6755   2.355   2.492   2.971 -0.4507  0.6950 -0.7981
   28MOL   C222 6756   2.368   2.429   3.112 -0.0198 -0.7536  0.1608
   28MOL   O223 6757   2.272   2.380   3.168  0.4373 -0.1142 -0.6251
   28MOL   H224 6758   2.386   2.307   2.878  0.1954  0.4964  0.5746
   28MOL   H225 6759   2.622   2.367   2.769 -1.1406  1.9219 -0.9771
   28MOL   H226 6760   2.620   2.340   2.947 -1.4751  1.4356  1.7383
   28MOL   H227 6761   2.623   2.498   2.878  1.4464 -0.7606 -0.2968
   28MOL   H228 6762   2.247   2.488   2.955 -0.3014  0.1673 -1.6559
   28MOL   H229 6763   2.385   2.596   2.970 -0.3868  0.7361  1.3438
   28MOL   O230 6764   2.496   2.432   3.164  0.3689  0.2327  0.4793
   28MOL   C231 6765   2.523   2.407   3.302  0.2705 -0.3289 -0.3874
   28MOL   C232 6766   2.655   2.340   3.336  0.0377 -0.2386  0.0990
   28MOL   C233 6767   2.496   2.537   3.393  0.5423 -0.2582 -0.2110
   28MOL   C234 6768   2.594   2.637   3.348 -0.5560  0.4890 -0.0135
   28MOL   O235 6769   2.692   2.667   3.412 -0.3342  0.0675  0.1714
   28MOL   H236 6770   2.452   2.333   3.341 -0.3466  0.0359 -0.8099
   28MOL   H237 6771   2.737   2.396   3.291 -1.0453  0.4498 -1.0574
   28MOL   H238 6772   2.653   2.239   3.297 -1.6237 -0.0167 -0.4511
   28MOL   H239 6773   2.670   2.338   3.444  0.6934 -0.5261 -0.0010
   28MOL   H240 6774   2.505   2.512   3.499  3.6805 -2.2439 -0.8953
   28MOL   H241 6775   2.400   2.588   3.381  0.8130 -0.4872 -3.8657
   28MOL   H242 6776   2.578   2.671   3.246 -1.5913  0.7830  0.2453
   29MOL     O1 6777   0.667   5.506   2.130  0.2498 -0.4419  0.1225
   29MOL     C2 6778   0.738   5.620   2.149 -0.4544  0.0910 -0.2629
   29MOL     C3 6779   0.650   5.748   2.144  0.0034  0.5003  0.5677
   29MOL     C4 6780   0.793   5.616   2.285 -0.2474 -0.0634  0.8313
   29MOL     C5 6781   0.917   5.702   2.309  0.6560 -0.4060 -0.9877
   29MOL     O6 6782   0.925   5.810   2.250 -0.3385 -0.7204 -0.0937
   29MOL     H7 6783   0.813   5.621   2.070 -0.4027 -1.7617 -0.2678
   29MOL     H8 6784   0.682   5.842   2.188 -2.6927  2.3035 -1.2391
   29MOL     H9 6785   0.559   5.745   2.204 -0.9161  1.3121 -0.7651
   29MOL    H10 6786   0.621   5.783   2.045  0.3171 -0.6195  0.0675
   29MOL    H11 6787   0.806   5.516   2.328 -0.3742 -0.1151  0.7458
   29MOL    H12 6788   0.723   5.658   2.357  2.1936  2.1256  2.0194
   29MOL    H13 6789   0.656   5.498   2.036 -0.0127  2.1564 -0.0952
   29MOL    O14 6790   0.996   5.655   2.397  0.0533  0.4303  0.2514
   29MOL    C15 6791   1.120   5.718   2.414  0.0327 -0.2291 -0.7783
   29MOL    C16 6792   1.154   5.719   2.566 -0.2205  0.1581 -0.0113
   29MOL    C17 6793   1.227   5.651   2.331 -0.0508 -0.0350 -0.3844
   29MOL    C18 6794   1.340   5.745   2.304  0.0282  0.2403  0.5682
   29MOL    O19 6795   1.394   5.809   2.395  0.8537  0.2924 -0.1878
   29MOL    H20 6796   1.120   5.822   2.382 -2.0630 -0.5689 -1.9846
   29MOL    H21 6797   1.239   5.779   2.600 -1.0001  0.8588  0.7159
   29MOL    H22 6798   1.182   5.616   2.588 -2.4455 -0.3574  0.5106
   29MOL    H23 6799   1.061   5.744   2.616  1.4708  1.8078  2.4017
   29MOL    H24 6800   1.185   5.633   2.232 -0.8024  0.4661 -0.1519
   29MOL    H25 6801   1.262   5.554   2.368 -0.6736 -0.0198  0.2384
   29MOL    O26 6802   1.385   5.741   2.170 -0.1531 -0.3754  0.7880
   29MOL    C27 6803   1.485   5.837   2.133  0.0738  0.2171 -0.4468
   29MOL    C28 6804   1.582   5.773   2.028  0.3337  0.2199  0.0452
   29MOL    C29 6805   1.430   5.976   2.102  0.1541  0.1651 -0.1023
   29MOL    C30 6806   1.350   5.987   1.979  0.3137 -0.5543 -0.2495
   29MOL    O31 6807   1.376   6.067   1.890  0.1179  0.2166 -0.6664
   29MOL    H32 6808   1.551   5.872   2.213 -0.2728  1.5331 -0.7213
   29MOL    H33 6809   1.676   5.828   2.021  0.2063  0.6485  1.5351
   29MOL    H34 6810   1.522   5.774   1.937  1.0053 -0.3627 -0.4042
   29MOL    H35 6811   1.607   5.672   2.059 -0.7422  0.5509  2.0767
   29MOL    H36 6812   1.517   6.038   2.078  1.0928 -1.4963 -1.0287
   29MOL    H37 6813   1.384   6.008   2.196  0.4304 -3.4392  1.3006
   29MOL    O38 6814   1.246   5.908   1.979  0.4614  0.4372 -0.3528
   29MOL    C39 6815   1.155   5.907   1.868  0.6797  0.3853  1.0474
   29MOL    C40 6816   1.187   5.795   1.768 -0.1905 -0.1925 -0.3446
   29MOL    C41 6817   1.014   5.882   1.929  0.0862 -0.0311 -0.0684
   29MOL    C42 6818   0.946   5.996   2.005 -0.4804  0.4322 -0.0949
   29MOL    O43 6819   0.825   6.006   2.004 -0.4302  0.5311  0.1623
   29MOL    H44 6820   1.161   6.004   1.820  0.3764 -0.5620 -0.9662
   29MOL    H45 6821   1.189   5.701   1.823 -0.6958  0.2529  0.4370
   29MOL    H46 6822   1.285   5.813   1.724 -0.4102 -0.3319 -0.9028
   29MOL    H47 6823   1.108   5.784   1.693 -0.3109 -0.0314 -0.2416
   29MOL    H48 6824   1.011   5.795   1.996 -0.6551 -0.5881 -0.8165
   29MOL    H49 6825   0.953   5.851   1.844  0.6721 -3.2375  0.5981
   29MOL    O50 6826   1.035   6.081   2.064 -0.0454 -0.1453 -0.3065
   29MOL    C51 6827   0.982   6.191   2.144 -0.4658 -1.3246  0.1832
   29MOL    C52 6828   0.977   6.156   2.297  0.2781 -0.2731 -0.0067
   29MOL    C53 6829   1.060   6.312   2.111  0.3671 -0.0904 -0.1735
   29MOL    C54 6830   0.999   6.442   2.176  0.5645  0.0306  0.4846
   29MOL    O55 6831   0.889   6.445   2.237 -0.2174 -0.5600  0.2077
   29MOL    H56 6832   0.878   6.209   2.115  0.1121  0.6677 -0.7172
   29MOL    H57 6833   0.935   6.230   2.366  0.7796 -1.4434  1.5755
   29MOL    H58 6834   1.079   6.138   2.331  0.7269 -2.2242 -2.2783
   29MOL    H59 6835   0.917   6.068   2.319  0.8143 -0.3161  1.3568
   29MOL    H60 6836   1.056   6.325   2.003  1.7096  1.2701 -0.0839
   29MOL    H61 6837   1.157   6.299   2.159  0.1547 -1.6125 -0.1362
   29MOL    O62 6838   1.080   6.549   2.150  0.1702  0.8149  0.0523
   29MOL    C63 6839   1.035   6.685   2.188  0.1154  0.1292 -0.8401
   29MOL    C64 6840   1.077   6.724   2.327 -0.2399  0.5174 -0.4474
   29MOL    C65 6841   1.096   6.786   2.081 -0.2032  0.4508 -0.2840
   29MOL    C66 6842   1.017   6.781   1.948 -0.8156 -0.3357 -0.1899
   29MOL    O67 6843   0.920   6.846   1.927 -0.0167  0.1969 -0.1947
   29MOL    H68 6844   0.928   6.694   2.169  0.5490  1.9463 -2.6419
   29MOL    H69 6845   1.043   6.658   2.407  0.0568 -0.1864 -0.9029
   29MOL    H70 6846   1.071   6.830   2.353  2.7162  0.3437  1.2312
   29MOL    H71 6847   1.184   6.706   2.344 -0.4504 -0.0812  0.2851
   29MOL    H72 6848   1.201   6.769   2.058 -0.6385  0.6259 -2.5269
   29MOL    H73 6849   1.087   6.892   2.107 -3.6544 -0.5408  3.0952
   29MOL    O74 6850   1.081   6.702   1.854  0.4109 -0.2661  0.4239
   29MOL    C75 6851   1.026   6.680   1.726 -0.3094  0.5695 -0.0723
   29MOL    C76 6852   1.117   6.744   1.620  0.2079 -0.6668 -0.4403
   29MOL    C77 6853   1.005   6.529   1.704 -0.4673  0.3503  0.1759
   29MOL    C78 6854   0.867   6.488   1.758  0.4591  0.4543 -0.3829
   29MOL    O79 6855   0.841   6.439   1.867  0.0413  0.0958 -0.1485
   29MOL    H80 6856   0.935   6.732   1.699 -0.0474  0.0455 -2.0223
   29MOL    H81 6857   1.128   6.851   1.639 -0.3966 -0.6267 -0.3152
   29MOL    H82 6858   1.068   6.730   1.524  1.0443  0.7927 -1.1024
   29MOL    H83 6859   1.216   6.698   1.623  0.9209  0.7348 -1.3934
   29MOL    H84 6860   1.077   6.460   1.746 -1.0011  0.2033  0.8451
   29MOL    H85 6861   1.012   6.514   1.596 -0.5562 -0.3166  0.2630
   29MOL    O86 6862   0.772   6.532   1.675 -0.0067  0.1153 -0.1233
   29MOL    C87 6863   0.636   6.534   1.714  0.2123  0.4505 -0.1031
   29MOL    C88 6864   0.615   6.669   1.793 -0.1203  0.8104  0.6011
   29MOL    C89 6865   0.547   6.537   1.582 -0.1958 -0.0745  0.0996
   29MOL    C90 6866   0.398   6.526   1.600  1.1369  0.5495 -0.1200
   29MOL    O91 6867   0.327   6.625   1.608  0.0654 -0.7417  0.3598
   29MOL    H92 6868   0.617   6.458   1.790 -0.0465  2.1154  1.5338
   29MOL    H93 6869   0.692   6.690   1.868  0.8656  0.7548 -0.3669
   29MOL    H94 6870   0.519   6.674   1.843 -0.5136  0.4428 -0.1265
   29MOL    H95 6871   0.610   6.749   1.719 -1.9360 -0.7905 -1.0310
   29MOL    H96 6872   0.567   6.448   1.521 -1.3959 -0.4668  0.2718
   29MOL    H97 6873   0.568   6.625   1.521  0.2939  0.3403  0.8632
   29MOL    O98 6874   0.357   6.395   1.606  0.8270 -0.2177  0.0021
   29MOL    C99 6875   0.227   6.355   1.617  0.6495  0.1569  0.4217
   29MOL   C100 6876   0.165   6.388   1.751 -0.7600  0.6784  0.0163
   29MOL   C101 6877   0.138   6.406   1.496 -0.1048  0.3526  0.6391
   29MOL   C102 6878   0.177   6.336   1.361 -0.1789 -0.7455 -0.9267
   29MOL   O103 6879   0.099   6.262   1.307  0.0985  0.3736  0.1173
   29MOL   H104 6880   0.228   6.247   1.612 -1.0184  0.0703  1.4211
   29MOL   H105 6881   0.217   6.345   1.837  0.5957  1.1602 -0.5519
   29MOL   H106 6882   0.068   6.337   1.743 -0.2430 -0.3236 -0.0139
   29MOL   H107 6883   0.152   6.492   1.778  0.9503  1.6262 -2.7022
   29MOL   H108 6884   0.137   6.515   1.489 -0.5251  0.3034 -0.1272
   29MOL   H109 6885   0.033   6.395   1.523 -0.3851  1.3299 -0.0247
   29MOL   O110 6886   0.300   6.371   1.314 -0.5642 -0.1947 -0.1734
   29MOL   C111 6887   0.362   6.305   1.201 -0.0581  0.0403 -0.2137
   29MOL   C112 6888   0.364   6.154   1.205 -0.1839 -0.7081  0.0341
   29MOL   C113 6889   0.298   6.347   1.066 -0.5283  0.0555  0.0547
   29MOL   C114 6890   0.401   6.355   0.946 -0.2042 -0.1660 -1.0026
   29MOL   O115 6891   0.521   6.352   0.966 -0.2721  0.2358 -0.3470
   29MOL   H116 6892   0.466   6.339   1.200  0.2863 -0.9939 -0.0594
   29MOL   H117 6893   0.268   6.102   1.204  0.0887 -1.3401  2.6272
   29MOL   H118 6894   0.404   6.128   1.303 -0.9722  2.5197  1.2726
   29MOL   H119 6895   0.434   6.104   1.139 -1.2550 -1.2552 -0.6999
   29MOL   H120 6896   0.256   6.447   1.079  1.2151  1.1558 -2.4843
   29MOL   H121 6897   0.214   6.285   1.034  0.3601 -0.1182 -1.9492
   29MOL   O122 6898   0.332   6.371   0.828 -1.2289  0.1562  0.0306
   29MOL   C123 6899   0.408   6.365   0.708 -0.3587  0.0043  0.3035
   29MOL   C124 6900   0.427   6.218   0.661  0.5295 -0.3209  0.2257
   29MOL   C125 6901   0.342   6.452   0.594 -0.6592  0.6323  0.0276
   29MOL   C126 6902   0.333   6.601   0.633 -1.1372 -0.0837  0.4893
   29MOL   O127 6903   0.231   6.665   0.627  0.4874  0.3619  0.1233
   29MOL   H128 6904   0.503   6.410   0.737  0.0610  0.9006 -2.4077
   29MOL   H129 6905   0.488   6.167   0.736  0.9757  0.1997  0.2234
   29MOL   H130 6906   0.482   6.213   0.567 -0.6741 -0.4008 -0.4784
   29MOL   H131 6907   0.334   6.164   0.647  2.2909 -3.0936 -1.2742
   29MOL   H132 6908   0.244   6.412   0.567  0.5354 -2.1116 -0.4262
   29MOL   H133 6909   0.399   6.441   0.502  1.7341 -0.0778  1.5660
   29MOL   O134 6910   0.456   6.642   0.680  0.7977 -0.0059 -0.0172
   29MOL   C135 6911   0.481   6.776   0.728 -0.5819  0.1054  0.3181
   29MOL   C136 6912   0.473   6.789   0.881 -0.7666 -0.3774 -0.5224
   29MOL   C137 6913   0.603   6.843   0.658  0.4891 -0.3148  0.1805
   29MOL   C138 6914   0.582   6.996   0.647 -0.1938 -0.0028 -0.0859
   29MOL   O139 6915   0.561   7.070   0.742 -0.3204 -0.7942 -0.4703
   29MOL   H140 6916   0.394   6.824   0.683  0.5299 -0.0346 -2.1101
   29MOL   H141 6917   0.491   6.895   0.901 -3.5631  0.0984 -0.3067
   29MOL   H142 6918   0.546   6.724   0.929 -1.0177 -0.9304 -0.8815
   29MOL   H143 6919   0.378   6.760   0.925 -0.8220 -1.3950 -1.2912
   29MOL   H144 6920   0.607   6.809   0.554 -0.8837  0.8583 -0.2932
   29MOL   H145 6921   0.699   6.812   0.699  1.0270 -0.9554 -1.5174
   29MOL   O146 6922   0.599   7.037   0.517  0.0837 -0.8332  0.5371
   29MOL   C147 6923   0.586   7.171   0.481  0.8468  0.1858 -0.2242
   29MOL   C148 6924   0.694   7.269   0.525 -0.0241 -1.0008  0.0118
   29MOL   C149 6925   0.559   7.168   0.324 -0.3439 -0.3652  0.1079
   29MOL   C150 6926   0.681   7.136   0.242 -0.0596 -0.4432 -0.4913
   29MOL   O151 6927   0.685   7.031   0.180 -0.0225 -0.1177  0.5878
   29MOL   H152 6928   0.489   7.197   0.525  0.2270  0.8802 -1.9512
   29MOL   H153 6929   0.794   7.244   0.489  1.4642  3.0715  0.9557
   29MOL   H154 6930   0.691   7.270   0.634  1.6532 -0.6758  0.0741
   29MOL   H155 6931   0.665   7.372   0.503 -0.8435 -1.0507  0.8263
   29MOL   H156 6932   0.526   7.266   0.290  2.0074  0.8292  1.1547
   29MOL   H157 6933   0.479   7.102   0.294 -1.4299  0.3253  1.4253
   29MOL   O158 6934   0.783   7.229   0.252  0.2785  0.2032 -0.2803
   29MOL   C159 6935   0.894   7.225   0.159  0.2005 -0.4762 -0.6379
   29MOL   C160 6936   0.855   7.333   0.048 -0.3052 -0.3776  0.3753
   29MOL   C161 6937   1.027   7.236   0.225 -0.1099  0.3630  0.3873
   29MOL   C162 6938   1.082   7.104   0.281 -0.4107 -0.5135 -0.2391
   29MOL   O163 6939   1.184   7.048   0.234  0.2456 -0.1400  0.2523
   29MOL   H164 6940   0.875   7.137   0.097  0.3365  0.7908 -2.5278
   29MOL   H165 6941   0.931   7.339   7.950  0.7455 -0.0014  1.4100
   29MOL   H166 6942   0.834   7.433   0.087 -0.6064  0.3402 -1.5765
   29MOL   H167 6943   0.761   7.299   0.005  0.1090  0.4505 -1.2180
   29MOL   H168 6944   1.029   7.315   0.300 -0.2372  0.0325  0.7373
   29MOL   H169 6945   1.107   7.267   0.157  1.7329 -0.8065  1.9467
   29MOL   O170 6946   0.994   7.053   0.371 -0.0590 -0.8442 -0.0955
   29MOL   C171 6947   1.013   6.922   0.417 -0.3185  0.7308  0.0918
   29MOL   C172 6948   0.988   6.935   0.565  0.0644 -0.2757  0.2281
   29MOL   C173 6949   0.920   6.827   0.335  0.3994  0.1701 -0.1893
   29MOL   C174 6950   0.928   6.680   0.379  0.5525 -0.2033 -0.6539
   29MOL   O175 6951   1.005   6.643   0.465 -0.1183 -0.4494 -0.7258
   29MOL   H176 6952   1.115   6.887   0.400 -0.5954 -0.7254  1.3010
   29MOL   H177 6953   0.887   6.968   0.590  0.8019  2.8016 -0.6432
   29MOL   H178 6954   1.056   7.005   0.614 -0.1965  2.0972 -2.6451
   29MOL   H179 6955   0.993   6.841   0.619 -0.6808 -0.7532 -0.5201
   29MOL   H180 6956   0.929   6.841   0.227  0.8440  0.6596 -0.0889
   29MOL   H181 6957   0.815   6.852   0.352  0.2170 -0.0292 -1.0032
   29MOL   O182 6958   0.839   6.606   0.310 -0.4370  0.0406 -0.3732
   29MOL   C183 6959   0.813   6.471   0.348  0.4167  0.0753  0.5797
   29MOL   C184 6960   0.680   6.472   0.426 -0.6740 -0.6033  0.6605
   29MOL   C185 6961   0.813   6.385   0.216  0.3381  0.0763  0.2575
   29MOL   C186 6962   0.801   6.238   0.241 -0.1709  0.1262  0.4617
   29MOL   O187 6963   0.898   6.166   0.260 -0.4564  0.9105 -0.0711
   29MOL   H188 6964   0.899   6.433   0.404  0.8281 -1.6393 -1.1228
   29MOL   H189 6965   0.587   6.492   0.372 -0.4031 -1.1448 -0.0129
   29MOL   H190 6966   0.690   6.553   0.498  0.9371 -1.5499  1.5304
   29MOL   H191 6967   0.668   6.378   0.480 -1.1980 -0.8586  0.0962
   29MOL   H192 6968   0.904   6.400   0.159 -0.4270 -0.9877 -1.2615
   29MOL   H193 6969   0.734   6.414   0.147 -0.0565  0.6223  0.9359
   29MOL   O194 6970   0.668   6.188   0.235 -0.3770  0.2811  0.0507
   29MOL   C195 6971   0.643   6.046   0.241 -0.4888 -0.0083 -0.0897
   29MOL   C196 6972   0.614   6.005   0.385  0.0638 -0.3280  0.1179
   29MOL   C197 6973   0.526   6.026   0.149  0.0946 -0.5688 -0.5301
   29MOL   C198 6974   0.471   5.884   0.150 -0.8314 -0.2934  0.4523
   29MOL   O199 6975   0.359   5.855   0.194  0.7226  0.0226 -0.5205
   29MOL   H200 6976   0.725   5.986   0.201 -0.0101 -1.4019  2.8398
   29MOL   H201 6977   0.619   5.897   0.389 -1.0124 -0.4151 -0.5617
   29MOL   H202 6978   0.520   6.029   0.434 -0.6366 -0.1151 -1.3031
   29MOL   H203 6979   0.690   6.049   0.450  1.2385  0.7838 -1.9575
   29MOL   H204 6980   0.562   6.041   0.047  0.5176 -0.7555 -0.4111
   29MOL   H205 6981   0.452   6.102   0.173  2.9890  1.9199  0.7921
   29MOL   O206 6982   0.557   5.793   0.088  0.1498  0.0187  0.5233
   29MOL   C207 6983   0.527   5.656   0.086 -0.2349  0.3255  0.2501
   29MOL   C208 6984   0.586   5.612   7.932 -0.1856  0.6293  0.9782
   29MOL   C209 6985   0.597   5.589   0.203  0.3714  0.1397 -0.6233
   29MOL   C210 6986   0.753   5.593   0.219  0.4839 -0.0099 -0.4709
   29MOL   O211 6987   0.821   5.494   0.248  0.3184  0.0203 -0.1366
   29MOL   H212 6988   0.422   5.624   0.083 -1.4311  4.0705  0.0804
   29MOL   H213 6989   0.686   5.654   7.920  0.3311 -0.9018 -0.2552
   29MOL   H214 6990   0.529   5.662   7.853  0.6880 -2.7069 -1.8807
   29MOL   H215 6991   0.582   5.505   7.915  0.3966  0.7524  0.0180
   29MOL   H216 6992   0.568   5.484   0.204  1.6157 -0.2157 -0.8061
   29MOL   H217 6993   0.554   5.633   0.293  2.0384 -1.1331  0.8336
   29MOL   O218 6994   0.801   5.719   0.216 -0.4422 -0.2800 -0.1068
   29MOL   C219 6995   0.943   5.752   0.208  0.0425  0.5203 -0.0471
   29MOL   C220 6996   0.961   5.852   0.092  0.2916  0.9039 -0.2813
   29MOL   C221 6997   0.981   5.823   0.339 -0.6279  0.3185  0.0688
   29MOL   C222 6998   0.967   5.745   0.474  0.3998  0.3681  0.2560
   29MOL   O223 6999   0.943   5.794   0.588  0.0763 -0.6055 -0.4514
   29MOL   H224 7000   1.006   5.667   0.186  1.5076  2.2479 -2.7781
   29MOL   H225 7001   0.934   5.795   0.003 -0.5318 -0.7941  1.0095
   29MOL   H226 7002   1.064   5.886   0.086  0.0434  1.9577  1.1331
   29MOL   H227 7003   0.894   5.938   0.093 -0.5539  0.2456  0.7259
   29MOL   H228 7004   0.926   5.916   0.349  0.0310  0.6639  0.5717
   29MOL   H229 7005   1.084   5.857   0.331 -0.5157  0.1392  0.7458
   29MOL   O230 7006   1.009   5.621   0.457  0.4573  0.1818 -0.1705
   29MOL   C231 7007   1.012   5.529   0.560 -0.6249 -0.1549  0.0942
   29MOL   C232 7008   0.906   5.422   0.534 -0.0105  0.0314  0.0242
   29MOL   C233 7009   1.149   5.464   0.577 -1.0909  0.0507 -0.2883
   29MOL   C234 7010   1.175   5.395   0.711  0.7508 -0.2066  0.5086
   29MOL   O235 7011   1.113   5.432   0.817 -0.2393  0.2930 -0.8454
   29MOL   H236 7012   0.980   5.570   0.656  0.1257 -4.5438  2.3563
   29MOL   H237 7013   0.933   5.389   0.433 -1.8173  1.1432 -0.8455
   29MOL   H238 7014   0.803   5.458   0.532 -0.2765 -0.7057  0.3696
   29MOL   H239 7015   0.904   5.336   0.600 -0.4496  1.4672  1.9149
   29MOL   H240 7016   1.225   5.541   0.570 -0.5490 -0.6043 -1.8654
   29MOL   H241 7017   1.162   5.394   0.495 -2.6107 -1.5701  0.8107
   29MOL   H242 7018   1.248   5.314   0.717 -0.1582 -1.2520 -2.1660
   30MOL     O1 7019   2.768   7.969   4.407 -0.1018 -0.1345  0.5186
   30MOL     C2 7020   2.841   0.083   4.334 -0.6732 -0.2715  0.2745
   30MOL     C3 7021   2.985   0.027   4.325 -0.1883  0.0829  0.3484
   30MOL     C4 7022   2.774   0.102   4.199 -0.0664 -0.1136  0.5921
   30MOL     C5 7023   2.838   0.204   4.098  0.8806  0.2436  0.3304
   30MOL     O6 7024   2.930   0.278   4.132  0.4186 -0.0486 -0.0139
   30MOL     H7 7025   2.843   0.181   4.381  0.2610 -0.8813  1.5252
   30MOL     H8 7026   2.988   7.898   4.317  0.6023  0.1417 -0.1515
   30MOL     H9 7027   3.048   0.059   4.407 -3.4870  3.5564  1.6811
   30MOL    H10 7028   3.043   0.064   4.241 -2.1454 -0.9979 -1.5291
   30MOL    H11 7029   2.667   0.119   4.212 -0.6804 -2.5132 -1.0030
   30MOL    H12 7030   2.780   0.008   4.145 -0.0328  0.4227 -0.3491
   30MOL    H13 7031   2.681   0.024   4.417 -0.9640 -1.7469 -1.1541
   30MOL    O14 7032   2.766   0.220   3.987 -0.5633  0.0447  0.3686
   30MOL    C15 7033   2.783   0.333   3.896 -0.5985  0.3192  0.0461
   30MOL    C16 7034   2.790   0.277   3.752 -0.3509  0.6336  0.1848
   30MOL    C17 7035   2.669   0.436   3.925  0.7124 -0.5623  0.6063
   30MOL    C18 7036   2.523   0.389   3.935 -0.5850 -0.1029  0.5674
   30MOL    O19 7037   2.456   0.340   3.841 -0.7000 -0.0147  0.3133
   30MOL    H20 7038   2.879   0.381   3.909  0.5109 -1.6403 -0.7318
   30MOL    H21 7039   2.706   0.211   3.730 -0.5181  0.7210  0.5682
   30MOL    H22 7040   2.881   0.224   3.722 -0.5422 -0.0591  0.8215
   30MOL    H23 7041   2.775   0.358   3.680  0.7960 -1.4748 -2.5355
   30MOL    H24 7042   2.681   0.518   3.855  3.5356 -1.5937 -0.1816
   30MOL    H25 7043   2.690   0.473   4.026  0.8750  0.3773  0.2317
   30MOL    O26 7044   2.477   0.416   4.068  0.0799  0.4433  0.2363
   30MOL    C27 7045   2.343   0.397   4.091  0.0373 -0.6596  0.4613
   30MOL    C28 7046   2.324   0.347   4.232  0.5782 -0.0475  0.4387
   30MOL    C29 7047   2.244   0.506   4.066 -0.2445  0.4118  0.8040
   30MOL    C30 7048   2.264   0.646   4.136 -0.1059  0.5894 -0.8224
   30MOL    O31 7049   2.335   0.735   4.082  0.1269  0.6218 -0.1477
   30MOL    H32 7050   2.315   0.310   4.032  0.0097 -0.0595 -0.4254
   30MOL    H33 7051   2.357   0.431   4.293 -1.7720  0.6691  0.7571
   30MOL    H34 7052   2.380   0.255   4.251 -2.2168 -1.9691 -0.2275
   30MOL    H35 7053   2.219   0.319   4.243  1.0357 -2.5738 -1.1531
   30MOL    H36 7054   2.143   0.478   4.094 -0.2608  0.0281  0.3619
   30MOL    H37 7055   2.255   0.535   3.962  1.4900  1.4105  1.2519
   30MOL    O38 7056   2.213   0.645   4.266 -0.2385 -0.5206 -0.0060
   30MOL    C39 7057   2.233   0.757   4.351  0.2122  0.4315 -0.2788
   30MOL    C40 7058   2.104   0.837   4.390  0.1526 -0.3008 -0.2276
   30MOL    C41 7059   2.301   0.699   4.478  0.1323  1.1269 -0.1703
   30MOL    C42 7060   2.449   0.701   4.476 -0.7342  0.2131  0.6733
   30MOL    O43 7061   2.513   0.776   4.552  0.0887 -0.7067  1.0300
   30MOL    H44 7062   2.308   0.822   4.306  1.3060  0.9940  2.2543
   30MOL    H45 7063   2.037   0.769   4.442  2.5237 -4.3642 -2.1696
   30MOL    H46 7064   2.051   0.893   4.314  0.8239  0.5073 -0.1106
   30MOL    H47 7065   2.133   0.915   4.461 -0.1793  0.6981 -1.1764
   30MOL    H48 7066   2.257   0.601   4.496  1.3817  0.7687  1.1191
   30MOL    H49 7067   2.273   0.759   4.565 -2.5334 -0.3361  0.0406
   30MOL    O50 7068   2.505   0.626   4.378  0.3681  0.1319  0.0104
   30MOL    C51 7069   2.643   0.630   4.343 -0.1317 -0.0803  0.1144
   30MOL    C52 7070   2.676   0.477   4.325 -0.3933  0.0080 -0.8254
   30MOL    C53 7071   2.654   0.720   4.224  0.7446  0.4821 -0.2634
   30MOL    C54 7072   2.801   0.754   4.191 -0.4930  0.2611  0.0084
   30MOL    O55 7073   2.871   0.671   4.135 -0.5565 -0.1214  0.3584
   30MOL    H56 7074   2.705   0.685   4.414  2.1541 -1.9971 -0.3657
   30MOL    H57 7075   2.761   0.465   4.258  2.2587  0.6619  2.3337
   30MOL    H58 7076   2.590   0.411   4.311  1.1605 -1.9700 -1.2977
   30MOL    H59 7077   2.716   0.448   4.422  0.7698  0.4464 -1.1728
   30MOL    H60 7078   2.592   0.805   4.253 -1.7736 -1.3750 -0.0277
   30MOL    H61 7079   2.612   0.678   4.133  1.9357 -1.3595  0.0203
   30MOL    O62 7080   2.841   0.879   4.220 -0.5088 -1.6310 -0.4769
   30MOL    C63 7081   2.964   0.935   4.185 -0.0779 -0.0953  0.2194
   30MOL    C64 7082   2.960   1.013   4.048 -0.5042  0.1372  0.5825
   30MOL    C65 7083   3.018   1.015   4.310 -0.2885  0.7099  0.4638
   30MOL    C66 7084   3.053   0.930   4.438  0.0238 -0.4216  0.0722
   30MOL    O67 7085   3.031   0.978   4.549  0.0234 -0.2820  0.5558
   30MOL    H68 7086   3.025   0.845   4.179  0.7936  0.3520  1.8619
   30MOL    H69 7087   3.052   1.071   4.050  1.1412 -2.3569  0.0578
   30MOL    H70 7088   2.872   1.076   4.054  1.1630  2.3437  3.6146
   30MOL    H71 7089   2.963   0.943   3.965 -0.0473  0.6334  0.1731
   30MOL    H72 7090   2.941   1.090   4.331  1.0213  1.8599  1.2209
   30MOL    H73 7091   3.111   1.062   4.279 -0.8404  1.3308 -0.2748
   30MOL    O74 7092   3.103   0.804   4.399  0.1588  0.3737 -0.6044
   30MOL    C75 7093   3.158   0.716   4.500  0.4327 -0.3487 -0.3583
   30MOL    C76 7094   3.064   0.602   4.513  0.4694  0.6076  0.1956
   30MOL    C77 7095   3.299   0.682   4.464 -0.7180  0.5832  0.1264
   30MOL    C78 7096   3.397   0.804   4.463 -0.2786  0.0714 -0.3356
   30MOL    O79 7097   3.421   0.865   4.357 -0.5205  0.2953  0.2394
   30MOL    H80 7098   3.174   0.773   4.591  2.9460 -2.0109  0.2985
   30MOL    H81 7099   3.098   0.541   4.596 -0.0669  1.3391  0.9582
   30MOL    H82 7100   3.060   0.543   4.421  1.7074  1.4854 -0.4364
   30MOL    H83 7101   2.960   0.628   4.534  0.5159  0.9237  0.0325
   30MOL    H84 7102   3.298   0.626   4.370 -0.1054  0.7578  0.0123
   30MOL    H85 7103   3.349   0.625   4.542  2.0153 -0.7888 -2.5074
   30MOL    O86 7104   3.430   0.830   4.585  0.0281 -0.5548  0.0682
   30MOL    C87 7105   3.538   0.928   4.619 -0.0768 -0.1052 -0.7929
   30MOL    C88 7106   3.469   1.064   4.657  0.1433 -0.1212  0.7902
   30MOL    C89 7107   3.617   0.866   4.733  1.0293 -0.0419  0.6371
   30MOL    C90 7108   3.762   0.909   4.745 -0.1824  0.5021 -0.2394
   30MOL    O91 7109   3.811   1.005   4.686 -0.0295  0.0840 -0.1707
   30MOL    H92 7110   3.601   0.946   4.532 -1.3377  0.8874 -1.5301
   30MOL    H93 7111   3.403   1.053   4.743 -1.6400  0.8284 -0.4077
   30MOL    H94 7112   3.410   1.096   4.571  1.9043  1.1310  0.0101
   30MOL    H95 7113   3.540   1.140   4.688 -0.1163  0.2655  0.4421
   30MOL    H96 7114   3.622   0.761   4.708  0.9826 -0.3449  1.8525
   30MOL    H97 7115   3.563   0.866   4.828 -1.4523  0.3322 -0.7323
   30MOL    O98 7116   3.814   0.838   4.845  0.1897  0.4525  0.1538
   30MOL    C99 7117   3.950   0.859   4.890  0.7700 -0.4800 -0.6683
   30MOL   C100 7118   3.940   0.857   5.050 -0.3790 -0.0850 -0.0565
   30MOL   C101 7119   4.041   0.759   4.818 -0.1366  0.4821  0.9544
   30MOL   C102 7120   4.192   0.785   4.838 -0.3351  0.2349  0.2698
   30MOL   O103 7121   4.254   0.717   4.922  1.0676 -0.2117  0.4057
   30MOL   H104 7122   3.980   0.962   4.871 -0.1047  0.4980  2.8684
   30MOL   H105 7123   3.862   0.926   5.082 -0.9638  0.6084 -2.8512
   30MOL   H106 7124   4.031   0.885   5.104 -1.7796  0.9526  1.8078
   30MOL   H107 7125   3.915   0.757   5.086 -1.3374  0.7575  1.6598
   30MOL   H108 7126   4.023   0.769   4.711 -2.3745 -1.2689  1.1298
   30MOL   H109 7127   4.007   0.663   4.857  1.9225 -0.7843 -0.2897
   30MOL   O110 7128   4.229   0.883   4.764  1.0057  0.1863 -0.5416
   30MOL   C111 7129   4.362   0.936   4.770 -0.0044 -0.6643 -0.1624
   30MOL   C112 7130   4.448   0.876   4.665 -0.5157  0.4652 -0.3683
   30MOL   C113 7131   4.339   1.087   4.758 -0.3840 -0.4870 -0.4226
   30MOL   C114 7132   4.321   1.162   4.886 -0.2568 -0.5958 -1.1215
   30MOL   O115 7133   4.426   1.198   4.947 -0.2088  0.4562  0.2411
   30MOL   H116 7134   4.401   0.913   4.869 -0.5382 -1.4977 -0.1390
   30MOL   H117 7135   4.545   0.925   4.671 -0.3696 -0.0458  1.6089
   30MOL   H118 7136   4.404   0.895   4.567 -1.9444  0.6205  0.2886
   30MOL   H119 7137   4.455   0.768   4.662  0.4275  0.5164  0.0230
   30MOL   H120 7138   4.263   1.118   4.687  0.8331  1.3114 -0.9545
   30MOL   H121 7139   4.427   1.124   4.705 -0.2232  0.3257  0.3995
   30MOL   O122 7140   4.195   1.207   4.905  0.4251 -0.4726 -0.1779
   30MOL   C123 7141   4.163   1.290   5.011  0.4881  0.0881  0.0582
   30MOL   C124 7142   4.190   1.436   4.973  0.2421 -0.4051 -0.5996
   30MOL   C125 7143   4.018   1.270   5.049  0.0367  0.7712  0.4288
   30MOL   C126 7144   3.986   1.335   5.181 -0.2858 -0.7341  0.2161
   30MOL   O127 7145   3.959   1.450   5.189 -0.1337  0.4426 -0.0633
   30MOL   H128 7146   4.229   1.266   5.095  1.0852  2.1593  0.2125
   30MOL   H129 7147   4.106   1.480   4.918  1.1179 -0.6194 -2.1454
   30MOL   H130 7148   4.280   1.448   4.913 -0.3696  1.4161 -1.2069
   30MOL   H131 7149   4.208   1.484   5.069  1.8803 -0.8534 -0.6755
   30MOL   H132 7150   3.998   1.163   5.052  0.7883  0.3867 -4.1997
   30MOL   H133 7151   3.956   1.313   4.970 -1.3899 -2.2170 -0.1524
   30MOL   O134 7152   4.000   1.254   5.282  0.3642  0.2538 -0.3661
   30MOL   C135 7153   3.940   1.288   5.404  0.7017  0.4021 -0.4628
   30MOL   C136 7154   3.798   1.233   5.414  0.6803 -1.1078  0.4482
   30MOL   C137 7155   4.044   1.244   5.507 -0.2373 -0.1405  0.2517
   30MOL   C138 7156   3.998   1.253   5.649 -0.2818  0.3405  0.1764
   30MOL   O139 7157   3.951   1.161   5.715  0.2547 -0.1199 -0.7241
   30MOL   H140 7158   3.933   1.396   5.418  0.9899  0.6125 -1.9090
   30MOL   H141 7159   3.756   1.229   5.514  0.0322  0.3994  0.2442
   30MOL   H142 7160   3.817   1.127   5.399  3.2957 -1.0452  2.7129
   30MOL   H143 7161   3.730   1.252   5.331  1.0784 -1.6047  0.0082
   30MOL   H144 7162   4.128   1.313   5.507 -0.5148  0.2211 -1.1749
   30MOL   H145 7163   4.070   1.140   5.486 -1.0167 -0.3610  0.3678
   30MOL   O146 7164   4.010   1.381   5.694 -0.1585  0.3768  0.0331
   30MOL   C147 7165   3.975   1.423   5.826 -0.7297  0.3995  0.8895
   30MOL   C148 7166   4.082   1.392   5.927 -0.6704 -0.5425  0.6592
   30MOL   C149 7167   3.969   1.584   5.810 -0.0711 -0.6780 -0.6286
   30MOL   C150 7168   3.889   1.647   5.918 -0.6407 -0.6023  0.3281
   30MOL   O151 7169   3.844   1.582   6.009 -0.1068  0.0305  0.0193
   30MOL   H152 7170   3.884   1.374   5.861 -0.4336 -1.2714 -0.6669
   30MOL   H153 7171   4.179   1.420   5.883 -1.1789  1.3493  0.6899
   30MOL   H154 7172   4.093   1.288   5.956  0.2808 -0.2866  1.2449
   30MOL   H155 7173   4.078   1.454   6.016  1.8217  1.6768 -0.6857
   30MOL   H156 7174   3.913   1.619   5.724 -0.5250  0.0923 -0.0202
   30MOL   H157 7175   4.068   1.630   5.813  0.2227 -1.3136 -0.4097
   30MOL   O158 7176   3.868   1.783   5.895  0.1315 -0.3359 -0.1419
   30MOL   C159 7177   3.798   1.877   5.976 -0.1477  0.2089 -0.5381
   30MOL   C160 7178   3.864   2.005   5.946 -0.0195  0.1728 -0.1719
   30MOL   C161 7179   3.649   1.877   5.927 -0.0436  0.4246 -0.6362
   30MOL   C162 7180   3.547   1.955   5.995 -0.3668 -0.1199  0.0993
   30MOL   O163 7181   3.545   1.982   6.118  0.5273  0.0571  0.3196
   30MOL   H164 7182   3.808   1.859   6.083 -0.1928 -3.0243 -1.0454
   30MOL   H165 7183   3.970   1.996   5.969 -0.1770  1.3388  1.0395
   30MOL   H166 7184   3.836   2.091   6.007 -0.3005  0.3105 -0.4920
   30MOL   H167 7185   3.854   2.038   5.843 -0.6526  0.9067  0.1139
   30MOL   H168 7186   3.627   1.772   5.907 -1.1907  0.5330 -0.0009
   30MOL   H169 7187   3.656   1.929   5.831  0.3031  1.2290 -0.1745
   30MOL   O170 7188   3.441   1.981   5.913  0.3541 -0.3580  0.2009
   30MOL   C171 7189   3.327   2.056   5.953  0.0413 -0.0340  0.2899
   30MOL   C172 7190   3.338   2.202   5.915 -0.1018  0.0113  0.5002
   30MOL   C173 7191   3.206   1.984   5.881  0.3156  0.1999 -0.6607
   30MOL   C174 7192   3.070   2.040   5.908  0.5912  1.1819  0.1598
   30MOL   O175 7193   3.009   2.114   5.826 -0.6102  0.1082  0.0631
   30MOL   H176 7194   3.319   2.051   6.061  0.6187 -2.0790  0.2667
   30MOL   H177 7195   3.366   2.220   5.811 -0.2599  0.8295  0.5970
   30MOL   H178 7196   3.421   2.241   5.974  0.2270  0.0569  0.0107
   30MOL   H179 7197   3.239   2.241   5.937  0.4441  2.2328 -0.8742
   30MOL   H180 7198   3.212   1.876   5.890 -0.9302  0.2635  0.9859
   30MOL   H181 7199   3.236   2.001   5.777 -0.8957 -1.3408 -1.2677
   30MOL   O182 7200   3.027   1.999   6.028 -0.2539  0.1111 -0.1881
   30MOL   C183 7201   2.898   2.042   6.076 -0.0597 -0.5144  0.4186
   30MOL   C184 7202   2.832   1.924   6.143  0.0963  0.3953  0.6793
   30MOL   C185 7203   2.929   2.154   6.179  0.1165  0.6687  0.5556
   30MOL   C186 7204   3.016   2.109   6.299  0.1482 -0.3287  0.8746
   30MOL   O187 7205   2.967   2.048   6.393 -0.1934  0.0118 -0.0210
   30MOL   H188 7206   2.833   2.083   5.998 -0.4895 -1.8861  0.0356
   30MOL   H189 7207   2.872   1.866   6.227  0.0826 -0.0626  0.3694
   30MOL   H190 7208   2.817   1.847   6.068 -0.1448  1.7329 -0.6754
   30MOL   H191 7209   2.735   1.955   6.183  0.5245 -0.8164  2.7318
   30MOL   H192 7210   2.836   2.192   6.223 -0.2583  0.2208  0.1524
   30MOL   H193 7211   2.978   2.239   6.132  0.5034  0.3870  0.4510
   30MOL   O194 7212   3.141   2.135   6.281 -0.0583 -0.2194 -0.1177
   30MOL   C195 7213   3.242   2.100   6.376 -0.3425 -0.8241  0.3901
   30MOL   C196 7214   3.277   1.951   6.357  0.2788  0.1848  0.6218
   30MOL   C197 7215   3.366   2.195   6.352 -0.4949 -0.5942  0.3910
   30MOL   C198 7216   3.330   2.336   6.328  0.6484 -0.2280 -0.5239
   30MOL   O199 7217   3.359   2.391   6.222 -0.4329  0.5102 -0.0946
   30MOL   H200 7218   3.209   2.110   6.480 -0.1786 -3.3238  0.7221
   30MOL   H201 7219   3.239   1.929   6.258 -2.0567 -0.9854  1.7423
   30MOL   H202 7220   3.208   1.899   6.423 -0.9865 -0.1814 -0.9778
   30MOL   H203 7221   3.380   1.920   6.375 -0.5128 -2.3024  0.9795
   30MOL   H204 7222   3.416   2.156   6.263 -0.2897  0.3255  0.0990
   30MOL   H205 7223   3.434   2.199   6.437 -0.2207  1.8917  0.0849
   30MOL   O206 7224   3.285   2.406   6.440 -0.1367 -0.5170  0.8530
   30MOL   C207 7225   3.251   2.544   6.437 -0.0016 -0.5246  0.4745
   30MOL   C208 7226   3.105   2.545   6.481  0.1447 -0.0549 -0.2933
   30MOL   C209 7227   3.342   2.618   6.534 -0.5332 -0.6204  0.4815
   30MOL   C210 7228   3.328   2.775   6.533  0.1288  0.1642  0.2333
   30MOL   O211 7229   3.260   2.827   6.448 -0.0028 -0.5037 -0.2567
   30MOL   H212 7230   3.253   2.582   6.335  1.2957 -0.4295  0.5300
   30MOL   H213 7231   3.102   2.534   6.590 -0.6828  3.1887  0.0751
   30MOL   H214 7232   3.052   2.466   6.429  0.5360 -0.1515 -0.5519
   30MOL   H215 7233   3.072   2.647   6.461 -0.8310 -0.1629  0.6920
   30MOL   H216 7234   3.445   2.586   6.516 -1.3041 -1.7261 -2.2080
   30MOL   H217 7235   3.317   2.569   6.628 -1.0283  1.9817  1.7431
   30MOL   O218 7236   3.403   2.838   6.623 -0.2696  0.6851  0.0604
   30MOL   C219 7237   3.420   2.980   6.627  0.0686  0.5671 -0.3751
   30MOL   C220 7238   3.350   3.038   6.747 -0.5976  0.3313 -0.2414
   30MOL   C221 7239   3.571   3.023   6.615 -0.0732 -0.1862  0.0117
   30MOL   C222 7240   3.594   3.172   6.596 -0.8529 -0.3133 -0.0223
   30MOL   O223 7241   3.575   3.257   6.684  0.0347  0.1734  0.0703
   30MOL   H224 7242   3.385   3.016   6.530 -1.5530  1.0577  0.3821
   30MOL   H225 7243   3.336   3.146   6.746 -1.4538  0.2435  1.1215
   30MOL   H226 7244   3.404   3.020   6.840  0.7675  0.6667 -0.9627
   30MOL   H227 7245   3.253   2.994   6.774  0.8358 -1.5194  2.1187
   30MOL   H228 7246   3.600   2.981   6.519 -1.1898 -2.9800  0.8282
   30MOL   H229 7247   3.638   2.976   6.687 -2.0401 -1.3997  1.1316
   30MOL   O230 7248   3.652   3.199   6.471 -0.1538 -0.0058  0.1856
   30MOL   C231 7249   3.686   3.332   6.441 -1.1846 -0.8137  0.5575
   30MOL   C232 7250   3.829   3.361   6.478  0.3903  0.0751  0.5001
   30MOL   C233 7251   3.673   3.343   6.289  1.0808 -0.1109  0.2756
   30MOL   C234 7252   3.529   3.338   6.231  0.4132  0.2667  0.4277
   30MOL   O235 7253   3.510   3.311   6.110 -0.6731  0.0456 -0.0172
   30MOL   H236 7254   3.621   3.409   6.480 -0.4155  0.2296 -0.1914
   30MOL   H237 7255   3.858   3.465   6.465 -1.6824  0.8387  1.8337
   30MOL   H238 7256   3.891   3.296   6.416 -1.3719 -4.2861  3.1023
   30MOL   H239 7257   3.844   3.331   6.582  0.0811 -0.2332  0.4552
   30MOL   H240 7258   3.745   3.277   6.239  0.9118 -1.3066  1.5806
   30MOL   H241 7259   3.700   3.441   6.249  0.1625 -1.3622 -3.5354
   30MOL   H242 7260   3.445   3.347   6.301  1.7855 -1.1128  2.3007
   31MOL     O1 7261   7.511   5.040   2.200 -0.4326  0.1305 -0.5738
   31MOL     C2 7262   7.601   4.933   2.231 -0.3849 -0.0452  0.0933
   31MOL     C3 7263   7.539   4.862   2.357 -0.1100  0.2970 -0.8440
   31MOL     C4 7264   7.604   4.838   2.112 -0.3291  0.5346 -0.3835
   31MOL     C5 7265   7.704   4.716   2.128  0.5334  0.3452 -0.5888
   31MOL     O6 7266   7.670   4.599   2.093  0.0818 -0.1983 -0.5283
   31MOL     H7 7267   7.701   4.974   2.245  0.5392 -1.3616 -2.3585
   31MOL     H8 7268   7.522   4.934   2.436  0.3232 -0.3753 -0.1376
   31MOL     H9 7269   7.603   4.781   2.392 -1.0840 -1.1858 -2.3595
   31MOL    H10 7270   7.451   4.805   2.326  1.2632 -2.8186  0.7996
   31MOL    H11 7271   7.641   4.892   2.025  0.6203  0.4118 -0.0534
   31MOL    H12 7272   7.504   4.800   2.087  1.0282 -1.1046 -3.7203
   31MOL    H13 7273   7.552   5.081   2.126  0.7280 -0.4288 -0.2599
   31MOL    O14 7274   7.818   4.742   2.191 -0.2416 -0.1415  0.5672
   31MOL    C15 7275   7.914   4.638   2.211  0.8393  0.2317 -0.1936
   31MOL    C16 7276   0.031   4.636   2.089 -0.3959  0.4853  0.3171
   31MOL    C17 7277   7.975   4.664   2.349 -0.2868 -0.2594  0.1768
   31MOL    C18 7278   0.107   4.772   2.351 -0.3621  0.9497 -0.1171
   31MOL    O19 7279   0.083   4.883   2.298  0.0290  0.2378 -0.1028
   31MOL    H20 7280   7.867   4.541   2.221  1.4149  0.0355  0.6778
   31MOL    H21 7281   0.117   4.573   2.111  0.1311  1.3008  0.6455
   31MOL    H22 7282   0.064   4.737   2.065  2.2403  0.0219  1.7785
   31MOL    H23 7283   7.947   4.598   2.009 -2.5739 -0.0086  2.2485
   31MOL    H24 7284   0.021   4.567   2.392 -2.5105 -1.3948 -0.9941
   31MOL    H25 7285   7.896   4.696   2.417 -2.0339 -0.6247 -1.6487
   31MOL    O26 7286   0.224   4.727   2.410  0.2774  0.2656 -0.9871
   31MOL    C27 7287   0.340   4.804   2.407  0.2515  0.3064  0.2732
   31MOL    C28 7288   0.365   4.877   2.543  0.4814  0.7120 -0.7551
   31MOL    C29 7289   0.451   4.714   2.366 -0.3600  0.3011 -0.9175
   31MOL    C30 7290   0.466   4.688   2.219  0.0600 -0.2247  0.6263
   31MOL    O31 7291   0.375   4.706   2.139  0.2673  0.4045 -0.0947
   31MOL    H32 7292   0.341   4.888   2.339  0.8655  0.8358  0.9273
   31MOL    H33 7293   0.362   4.806   2.625 -0.9996  0.7785 -0.7372
   31MOL    H34 7294   0.293   4.957   2.563 -0.6831 -0.3604 -0.6345
   31MOL    H35 7295   0.467   4.916   2.544  0.8469 -0.2418  1.7815
   31MOL    H36 7296   0.445   4.629   2.433  0.9842 -0.1064 -1.2970
   31MOL    H37 7297   0.546   4.756   2.401 -1.5399  2.2562  0.0104
   31MOL    O38 7298   0.596   4.671   2.183 -0.4877  0.2168 -0.4388
   31MOL    C39 7299   0.631   4.695   2.046  0.1868 -0.0592 -0.0288
   31MOL    C40 7300   0.716   4.825   2.032  0.2071  0.2874  0.6568
   31MOL    C41 7301   0.704   4.571   1.984 -0.0457 -0.2946 -0.3376
   31MOL    C42 7302   0.617   4.451   1.952  0.2948 -0.6805 -0.2479
   31MOL    O43 7303   0.656   4.341   1.995  0.0375  0.2763 -0.5270
   31MOL    H44 7304   0.541   4.707   1.985  0.4366 -0.0578 -0.3988
   31MOL    H45 7305   0.747   4.859   1.933 -1.8567  2.1591  0.5836
   31MOL    H46 7306   0.807   4.806   2.088  0.6440 -0.6054 -0.3474
   31MOL    H47 7307   0.676   4.910   2.088  0.0891  0.4729  0.2944
   31MOL    H48 7308   0.787   4.531   2.043 -1.0226 -5.6073 -2.2343
   31MOL    H49 7309   0.745   4.609   1.890  1.7831  1.1052  0.9950
   31MOL    O50 7310   0.504   4.477   1.883 -0.2472  0.2426 -0.6346
   31MOL    C51 7311   0.405   4.377   1.857 -0.2044 -0.2962 -0.0131
   31MOL    C52 7312   0.324   4.358   1.978 -0.4461 -0.4164 -0.2299
   31MOL    C53 7313   0.333   4.405   1.727 -0.7966  0.2168 -0.1315
   31MOL    C54 7314   0.264   4.536   1.732  0.0378  0.2023 -0.2555
   31MOL    O55 7315   0.141   4.540   1.740 -0.4009 -0.4613  0.0950
   31MOL    H56 7316   0.466   4.287   1.842  2.5452  1.8597 -2.5205
   31MOL    H57 7317   0.372   4.321   2.069  0.0342 -0.8004 -0.6330
   31MOL    H58 7318   0.253   4.281   1.951 -0.5549 -0.2616 -0.3852
   31MOL    H59 7319   0.266   4.449   1.996 -0.6695 -0.8524  1.2917
   31MOL    H60 7320   0.261   4.328   1.702 -1.0917  0.4297  0.0529
   31MOL    H61 7321   0.400   4.404   1.641  1.0518 -0.1288  1.2812
   31MOL    O62 7322   0.345   4.651   1.722  0.2123 -0.1040  0.2267
   31MOL    C63 7323   0.288   4.785   1.715 -0.4536  0.1409  0.3508
   31MOL    C64 7324   0.187   4.814   1.608  0.2326  0.2868 -0.2467
   31MOL    C65 7325   0.253   4.841   1.858  0.1764 -0.0632 -0.3268
   31MOL    C66 7326   0.268   4.989   1.876 -0.6484  0.6027  0.2166
   31MOL    O67 7327   0.181   5.068   1.839  0.1229  0.2277 -0.1713
   31MOL    H68 7328   0.371   4.842   1.676  0.3812 -1.2705  0.0359
   31MOL    H69 7329   0.087   4.786   1.638 -0.2109  0.0057 -1.9354
   31MOL    H70 7330   0.213   4.785   1.506  1.2956 -0.6059  0.2613
   31MOL    H71 7331   0.182   4.922   1.596  0.4779  0.0581 -2.7065
   31MOL    H72 7332   0.315   4.795   1.934 -1.1456 -0.0130  0.7890
   31MOL    H73 7333   0.153   4.814   1.890 -0.2390 -0.7717 -2.1603
   31MOL    O74 7334   0.385   5.018   1.931 -0.2765 -0.5838 -0.5420
   31MOL    C75 7335   0.410   5.151   1.970  0.1767 -0.0823  0.4825
   31MOL    C76 7336   0.511   5.151   2.089 -0.7961 -0.0030 -0.4488
   31MOL    C77 7337   0.463   5.231   1.849  0.6406  0.4023  0.1479
   31MOL    C78 7338   0.486   5.378   1.875 -0.5502  0.4998 -0.3072
   31MOL    O79 7339   0.605   5.422   1.878 -0.3171 -0.3641  0.5235
   31MOL    H80 7340   0.317   5.195   2.007 -0.8172 -0.5175 -1.4301
   31MOL    H81 7341   0.606   5.114   2.050 -0.5372  0.2822 -0.0899
   31MOL    H82 7342   0.463   5.098   2.171 -0.6256  2.0143  0.9910
   31MOL    H83 7343   0.523   5.248   2.138 -0.1596 -1.2119  1.8264
   31MOL    H84 7344   0.395   5.209   1.766 -0.1487 -0.5859  1.0364
   31MOL    H85 7345   0.561   5.191   1.822  0.2207 -0.4288 -0.1550
   31MOL    O86 7346   0.369   5.443   1.884 -0.1961 -0.1200  0.3304
   31MOL    C87 7347   0.367   5.576   1.930  0.7505  0.6081 -0.5794
   31MOL    C88 7348   0.274   5.665   1.845 -0.1477  0.3421 -0.2256
   31MOL    C89 7349   0.334   5.569   2.080  0.7612 -0.6855 -0.2215
   31MOL    C90 7350   0.197   5.512   2.120 -0.7412  0.6498  0.0427
   31MOL    O91 7351   0.096   5.577   2.109  0.9451  0.2050  0.1931
   31MOL    H92 7352   0.469   5.613   1.923  0.8162  0.9369  1.6081
   31MOL    H93 7353   0.320   5.669   1.746  0.5563  3.5687  0.1916
   31MOL    H94 7354   0.275   5.769   1.878 -0.5287  0.8833 -1.8672
   31MOL    H95 7355   0.172   5.629   1.829  0.5744 -1.1177 -1.7598
   31MOL    H96 7356   0.343   5.670   2.117 -1.3697 -0.5994  0.1010
   31MOL    H97 7357   0.411   5.505   2.125  1.1649 -0.8304 -1.1004
   31MOL    O98 7358   0.203   5.384   2.162  0.6553 -0.4195 -0.1828
   31MOL    C99 7359   0.080   5.315   2.204 -0.1527 -0.7284 -0.2432
   31MOL   C100 7360   0.098   5.161   2.182 -0.3386  1.1539  0.4836
   31MOL   C101 7361   0.041   5.346   2.353  0.1150 -0.1993  0.5212
   31MOL   C102 7362   7.883   5.295   2.381  0.3298 -0.0349 -0.5006
   31MOL   O103 7363   7.801   5.252   2.301  0.4163  0.3220  0.5232
   31MOL   H104 7364   0.007   5.340   2.127 -0.6371 -2.1071 -0.2375
   31MOL   H105 7365   0.022   5.095   2.223  0.1548  0.6313  0.5521
   31MOL   H106 7366   0.196   5.133   2.221 -0.8463 -1.4981 -0.0429
   31MOL   H107 7367   0.104   5.147   2.074 -0.0187 -1.0636  0.7643
   31MOL   H108 7368   0.042   5.455   2.353 -1.0680 -0.1800 -0.9591
   31MOL   H109 7369   0.113   5.293   2.416  0.8042  0.6814  0.4849
   31MOL   O110 7370   7.865   5.307   2.512  0.1178 -0.3774 -0.1553
   31MOL   C111 7371   7.743   5.268   2.581  0.0637 -0.1422 -0.6760
   31MOL   C112 7372   7.776   5.127   2.636 -0.3733 -0.4634 -0.6200
   31MOL   C113 7373   7.713   5.373   2.689 -0.3014 -0.7191 -0.6869
   31MOL   C114 7374   7.833   5.410   2.781  0.5847  0.5166 -0.1289
   31MOL   O115 7375   7.876   5.332   2.866  0.2372  0.4418 -0.4208
   31MOL   H116 7376   7.651   5.265   2.522 -0.8861  0.7602  0.7375
   31MOL   H117 7377   7.694   5.098   2.702  0.3104 -3.1648 -0.9044
   31MOL   H118 7378   7.865   5.118   2.698 -0.9284 -0.2572  0.2102
   31MOL   H119 7379   7.783   5.057   2.552  0.8238 -1.1154  0.0157
   31MOL   H120 7380   7.638   5.328   2.754  0.8628  0.0136  1.1933
   31MOL   H121 7381   7.660   5.457   2.643 -0.1529 -1.0426 -1.4685
   31MOL   O122 7382   7.898   5.514   2.740  0.8474 -0.5680  0.0172
   31MOL   C123 7383   0.048   5.541   2.787  0.0132 -0.0090  0.0773
   31MOL   C124 7384   0.130   5.516   2.670  0.7189 -0.4959 -0.3254
   31MOL   C125 7385   0.063   5.680   2.851 -0.3957 -0.2177  0.7707
   31MOL   C126 7386   0.177   5.697   2.944 -0.6856 -0.5409  0.0590
   31MOL   O127 7387   0.274   5.772   2.916  0.4399 -0.4207  0.1578
   31MOL   H128 7388   0.075   5.467   2.863 -0.4006 -0.7314 -0.4659
   31MOL   H129 7389   0.123   5.411   2.642 -1.7999 -0.2906 -0.6096
   31MOL   H130 7390   0.233   5.535   2.699  0.2802 -0.4690  1.2846
   31MOL   H131 7391   0.110   5.589   2.591 -1.3574 -0.3418  0.3066
   31MOL   H132 7392   7.945   5.711   2.889 -0.3363 -0.5405  1.1914
   31MOL   H133 7393   0.101   5.743   2.770  2.6235 -2.4930  0.3351
   31MOL   O134 7394   0.156   5.636   3.061  0.3572  0.0995  0.1137
   31MOL   C135 7395   0.266   5.625   3.150 -0.2432  0.1523  0.0223
   31MOL   C136 7396   0.212   5.635   3.297 -0.3907  0.2590 -1.0557
   31MOL   C137 7397   0.319   5.483   3.126 -0.2792  0.5789  0.4471
   31MOL   C138 7398   0.461   5.466   3.186 -1.2804 -0.6422 -0.1685
   31MOL   O139 7399   0.527   5.552   3.250 -0.2232 -0.0677 -0.8979
   31MOL   H140 7400   0.349   5.693   3.133 -0.4200  0.1635 -0.7704
   31MOL   H141 7401   0.136   5.559   3.312  0.4534  0.1056  2.7958
   31MOL   H142 7402   0.180   5.738   3.309  0.5560  0.1955  2.5121
   31MOL   H143 7403   0.286   5.628   3.377  0.1567 -1.7596 -1.7109
   31MOL   H144 7404   0.322   5.457   3.020  0.0147 -2.5135  1.1437
   31MOL   H145 7405   0.263   5.407   3.180 -0.0501  1.4880  1.9935
   31MOL   O146 7406   0.513   5.346   3.151  1.1312 -0.0966  0.3223
   31MOL   C147 7407   0.630   5.297   3.210  0.6148  0.3344 -0.4538
   31MOL   C148 7408   0.581   5.174   3.294 -0.2318 -0.0665  0.2228
   31MOL   C149 7409   0.736   5.265   3.095  0.3961 -0.2288 -0.4429
   31MOL   C150 7410   0.804   5.388   3.032 -0.1065  0.6129 -0.1187
   31MOL   O151 7411   0.848   5.480   3.103  0.1172  0.5546 -0.1029
   31MOL   H152 7412   0.671   5.377   3.272 -0.9167 -1.9950  3.7363
   31MOL   H153 7413   0.522   5.214   3.377 -0.3815 -1.5773  0.8644
   31MOL   H154 7414   0.669   5.129   3.340  1.3599 -0.5762 -3.1905
   31MOL   H155 7415   0.524   5.104   3.234  1.2262 -1.1352  0.0443
   31MOL   H156 7416   0.685   5.213   3.014  0.7156 -0.8773 -0.2379
   31MOL   H157 7417   0.791   5.179   3.134 -0.7898 -0.6929  0.2699
   31MOL   O158 7418   0.816   5.375   2.895 -0.4317 -0.5375 -0.2316
   31MOL   C159 7419   0.886   5.465   2.813 -0.1794 -0.6957 -0.3203
   31MOL   C160 7420   1.034   5.436   2.832  0.6867 -0.2251  0.0348
   31MOL   C161 7421   0.833   5.444   2.667  0.4595 -0.1637 -0.6186
   31MOL   C162 7422   0.680   5.467   2.656  0.3655 -0.8712 -0.4822
   31MOL   O163 7423   0.638   5.571   2.703  0.6853 -0.5583  0.0422
   31MOL   H164 7424   0.854   5.563   2.849  0.3615 -0.0579 -1.5508
   31MOL   H165 7425   1.090   5.492   2.757  0.9892 -3.0479 -1.9536
   31MOL   H166 7426   1.049   5.329   2.819 -0.6517 -0.5628  1.1254
   31MOL   H167 7427   1.072   5.461   2.931 -0.0189  0.7467  0.0640
   31MOL   H168 7428   0.858   5.345   2.630  2.1020  0.1290 -0.3206
   31MOL   H169 7429   0.882   5.514   2.600 -1.2135  1.9642  0.3255
   31MOL   O170 7430   0.608   5.375   2.578 -0.7897  0.0563  1.0824
   31MOL   C171 7431   0.474   5.384   2.540  0.6158  0.2712 -0.3960
   31MOL   C172 7432   0.458   5.415   2.388 -0.5606  0.2501 -0.1055
   31MOL   C173 7433   0.399   5.256   2.572  0.9698  0.2541  1.2033
   31MOL   C174 7434   0.378   5.234   2.720  0.4306  0.4666 -0.4299
   31MOL   O175 7435   0.398   5.325   2.804  0.0029 -0.2013 -0.2968
   31MOL   H176 7436   0.425   5.460   2.601  0.0604  0.5820 -1.2239
   31MOL   H177 7437   0.482   5.323   2.335  2.0854  0.3171  0.9167
   31MOL   H178 7438   0.515   5.496   2.345 -1.9477 -0.1629 -2.8441
   31MOL   H179 7439   0.355   5.443   2.368 -0.8627 -1.8180 -1.6155
   31MOL   H180 7440   0.458   5.175   2.530  1.7158  2.2539 -1.7964
   31MOL   H181 7441   0.300   5.254   2.526  0.8015 -0.4189  1.5840
   31MOL   O182 7442   0.325   5.114   2.752  0.6534  0.3416 -0.3883
   31MOL   C183 7443   0.304   5.083   2.892  0.3590  1.4241  0.2365
   31MOL   C184 7444   0.168   5.142   2.930  0.1094 -0.0677 -0.2272
   31MOL   C185 7445   0.295   4.925   2.905  0.7117 -0.4062  1.0510
   31MOL   C186 7446   0.300   4.863   3.045  0.3251  0.1059 -0.0057
   31MOL   O187 7447   0.263   4.912   3.153  0.2194 -0.0847  0.1244
   31MOL   H188 7448   0.385   5.120   2.955  1.3582  1.6560 -1.1579
   31MOL   H189 7449   0.141   5.114   3.031  0.6419 -0.6447 -0.2459
   31MOL   H190 7450   0.086   5.109   2.866 -0.4981  2.1089 -0.6223
   31MOL   H191 7451   0.165   5.251   2.932 -0.2249 -0.0151 -2.2048
   31MOL   H192 7452   0.381   4.880   2.856  1.1989 -0.9736  2.4094
   31MOL   H193 7453   0.201   4.905   2.852  0.4626  1.2164  0.8594
   31MOL   O194 7454   0.358   4.739   3.033  0.9718  0.1471 -0.3016
   31MOL   C195 7455   0.394   4.661   3.141 -0.5476 -0.8827 -0.5797
   31MOL   C196 7456   0.357   4.513   3.111  0.4973 -0.9257  0.5413
   31MOL   C197 7457   0.540   4.684   3.161  0.0184 -0.5143  0.4579
   31MOL   C198 7458   0.589   4.681   3.298  0.3317 -0.2009  0.2419
   31MOL   O199 7459   0.622   4.786   3.351  0.1698 -0.0299 -0.1933
   31MOL   H200 7460   0.341   4.703   3.227  1.0636 -1.1614  0.5829
   31MOL   H201 7461   0.249   4.499   3.112  0.4713 -0.8123 -0.4286
   31MOL   H202 7462   0.387   4.437   3.183 -1.5892 -2.1110  0.1949
   31MOL   H203 7463   0.391   4.479   3.013  0.3916 -0.9997  0.5303
   31MOL   H204 7464   0.562   4.782   3.120  0.5280 -1.6144 -2.0221
   31MOL   H205 7465   0.602   4.616   3.101  0.7119 -0.0784  0.6723
   31MOL   O206 7466   0.582   4.559   3.353 -0.4705  0.6992 -0.4586
   31MOL   C207 7467   0.612   4.541   3.494 -0.3086  0.1533 -0.1007
   31MOL   C208 7468   0.489   4.477   3.544  0.1329 -0.0843 -0.9110
   31MOL   C209 7469   0.741   4.456   3.527  0.1528 -0.2614  0.1294
   31MOL   C210 7470   0.869   4.512   3.453 -0.1131  0.0809 -0.0506
   31MOL   O211 7471   0.915   4.623   3.477  0.5858  0.1415  0.2440
   31MOL   H212 7472   0.628   4.633   3.551  1.2180  0.9789 -1.7750
   31MOL   H213 7473   0.401   4.538   3.521  0.7520  0.5989 -1.4859
   31MOL   H214 7474   0.491   4.460   3.651 -0.3170  2.0781 -0.5279
   31MOL   H215 7475   0.461   4.377   3.512 -1.5175  0.5533 -1.5286
   31MOL   H216 7476   0.726   4.353   3.497  2.0087  0.1180 -2.2765
   31MOL   H217 7477   0.758   4.452   3.634  0.6770 -0.0049  0.0583
   31MOL   O218 7478   0.913   4.432   3.353 -0.4743  0.3840  0.2592
   31MOL   C219 7479   1.017   4.474   3.262 -0.3505  0.2442 -0.2356
   31MOL   C220 7480   1.111   4.356   3.246  0.4873  0.2135  0.5776
   31MOL   C221 7481   0.954   4.532   3.134 -0.3527 -0.5515 -0.1540
   31MOL   C222 7482   1.046   4.620   3.065 -0.4286  0.3608 -0.3366
   31MOL   O223 7483   1.137   4.580   2.984  0.6341 -0.3789  0.0301
   31MOL   H224 7484   1.091   4.541   3.305 -0.1798  0.1414 -0.3681
   31MOL   H225 7485   1.127   4.291   3.333  0.6018  0.2357  0.5728
   31MOL   H226 7486   1.209   4.394   3.216  0.5833  0.1793  0.8400
   31MOL   H227 7487   1.075   4.289   3.168  0.5241  1.5455 -0.6008
   31MOL   H228 7488   0.861   4.585   3.152  0.3707  0.7364 -0.2131
   31MOL   H229 7489   0.926   4.448   3.070 -2.0992 -0.9446  1.0842
   31MOL   O230 7490   1.024   4.744   3.103 -0.3390 -0.1101 -0.0263
   31MOL   C231 7491   1.094   4.854   3.037 -0.0193  0.7449  0.6092
   31MOL   C232 7492   1.008   4.967   3.083  0.2195 -0.2959 -0.1046
   31MOL   C233 7493   1.247   4.861   3.083 -0.3570  0.7703 -0.8520
   31MOL   C234 7494   1.330   4.911   2.967 -0.1822 -0.5368 -0.4016
   31MOL   O235 7495   1.286   4.936   2.853 -0.0397 -0.5125 -0.6084
   31MOL   H236 7496   1.086   4.836   2.929  1.0747  2.5037  0.2116
   31MOL   H237 7497   1.039   5.061   3.037  1.8994 -0.7891 -0.0116
   31MOL   H238 7498   0.999   4.980   3.190  0.3909  1.8618 -0.3398
   31MOL   H239 7499   0.909   4.953   3.040  0.7326 -0.2382 -1.3374
   31MOL   H240 7500   1.285   4.763   3.110 -2.2838  0.3120  0.2573
   31MOL   H241 7501   1.261   4.937   3.160 -0.3256  0.3047 -0.3939
   31MOL   H242 7502   1.434   4.929   2.994 -1.0426  1.8518  1.5497
   32MOL     O1 7503   0.174   2.633   2.297 -0.1586 -0.1887  0.8336
   32MOL     C2 7504   0.109   2.599   2.178  0.7866  0.0616  0.9620
   32MOL     C3 7505   0.215   2.522   2.100 -0.4558  0.1903 -0.2918
   32MOL     C4 7506   7.979   2.500   2.219  0.8974  1.0570  0.1944
   32MOL     C5 7507   7.844   2.552   2.270  0.1517 -0.1015 -0.2380
   32MOL     O6 7508   7.765   2.483   2.336  0.2416  0.4473  0.4071
   32MOL     H7 7509   0.071   2.683   2.119 -0.8925 -0.9959  0.4991
   32MOL     H8 7510   0.258   2.450   2.169 -2.7280  0.2680  1.2629
   32MOL     H9 7511   0.294   2.584   2.060 -1.1045  1.0825 -0.2099
   32MOL    H10 7512   0.175   2.474   2.010 -0.1896 -1.9992  0.7195
   32MOL    H11 7513   0.036   2.441   2.304 -2.6113 -0.0805  0.9801
   32MOL    H12 7514   7.955   2.431   2.138 -0.9157  1.2605  0.5420
   32MOL    H13 7515   0.109   2.696   2.326 -0.1770  0.3480 -0.3443
   32MOL    O14 7516   7.810   2.673   2.234  0.3579 -0.2340  0.0094
   32MOL    C15 7517   7.685   2.734   2.268  0.2378 -0.0104 -0.1361
   32MOL    C16 7518   7.707   2.793   2.410  0.1917 -0.0241 -0.5768
   32MOL    C17 7519   7.655   2.834   2.148 -0.1755 -0.7788  0.3527
   32MOL    C18 7520   7.512   2.894   2.162  0.3794 -0.1191 -0.0477
   32MOL    O19 7521   7.490   3.012   2.154  0.5967 -0.6800  0.1317
   32MOL    H20 7522   7.605   2.660   2.260  0.3123 -0.1855  0.6866
   32MOL    H21 7523   7.627   2.859   2.442  1.2399  0.5146  0.9921
   32MOL    H22 7524   7.801   2.849   2.417  1.2527 -1.4408 -2.9057
   32MOL    H23 7525   7.708   2.721   2.492  1.0860  1.4600  0.7402
   32MOL    H24 7526   7.662   2.781   2.054 -0.5758  1.5167 -1.0145
   32MOL    H25 7527   7.722   2.920   2.146 -1.2758  0.1204  1.2706
   32MOL    O26 7528   7.423   2.800   2.196  0.2206  0.1648 -0.7570
   32MOL    C27 7529   7.287   2.838   2.224 -0.1555  0.4916  0.7567
   32MOL    C28 7530   7.203   2.749   2.143 -0.0224 -0.4026  0.2046
   32MOL    C29 7531   7.255   2.805   2.372  0.0777  0.3082  0.5838
   32MOL    C30 7532   7.296   2.919   2.465  0.1567 -0.4125 -0.7352
   32MOL    O31 7533   7.391   2.911   2.541  0.2334  0.0539  0.3015
   32MOL    H32 7534   7.265   2.945   2.220 -2.3431  0.0200 -0.2478
   32MOL    H33 7535   7.095   2.758   2.149 -0.3782 -4.0020  0.0680
   32MOL    H34 7536   7.233   2.645   2.153  0.6817 -0.1848  0.4186
   32MOL    H35 7537   7.206   2.771   2.036 -1.5483  0.5250  0.3329
   32MOL    H36 7538   7.307   2.714   2.401 -1.6618 -0.7389  0.4996
   32MOL    H37 7539   7.148   2.794   2.387 -0.0632  1.4015  0.4476
   32MOL    O38 7540   7.210   3.019   2.461 -0.6926  0.1570 -0.5363
   32MOL    C39 7541   7.252   3.151   2.506  0.2370  0.0598  0.0463
   32MOL    C40 7542   7.252   3.255   2.387  0.1543 -0.0083 -0.0482
   32MOL    C41 7543   7.158   3.192   2.624  0.1481  0.2890  0.4051
   32MOL    C42 7544   7.204   3.325   2.689 -0.3288  0.0793  0.0118
   32MOL    O43 7545   7.130   3.418   2.701  0.1812  0.1796  0.0540
   32MOL    H44 7546   7.350   3.153   2.553  0.5082  0.2866 -0.5245
   32MOL    H45 7547   7.267   3.359   2.417  0.0113  0.2726 -0.9438
   32MOL    H46 7548   7.156   3.253   2.336  0.4492 -0.2107 -0.6026
   32MOL    H47 7549   7.323   3.240   2.305 -2.0774 -0.9148 -1.8634
   32MOL    H48 7550   7.156   3.116   2.703  2.6204  0.4209  0.6318
   32MOL    H49 7551   7.053   3.199   2.596  0.0277  0.1800  0.8239
   32MOL    O50 7552   7.335   3.316   2.739 -0.0167  0.0594 -0.5271
   32MOL    C51 7553   7.407   3.441   2.765 -0.2156 -0.1350 -0.0788
   32MOL    C52 7554   7.488   3.418   2.895  0.3310  0.0276  0.7549
   32MOL    C53 7555   7.482   3.470   2.639 -0.5296 -0.1704  0.0250
   32MOL    C54 7556   7.613   3.396   2.623  0.0466 -0.3299  0.3466
   32MOL    O55 7557   7.721   3.434   2.670 -0.2401  0.2823  0.2608
   32MOL    H56 7558   7.330   3.515   2.788 -2.4669 -2.4569  0.0797
   32MOL    H57 7559   7.412   3.424   2.973  0.1667 -0.8012  0.6611
   32MOL    H58 7560   7.570   3.487   2.918  0.9989 -0.9408  1.3411
   32MOL    H59 7561   7.535   3.320   2.899 -0.5594 -0.3489  2.6180
   32MOL    H60 7562   7.511   3.575   2.633  2.2285 -1.0122 -3.1085
   32MOL    H61 7563   7.427   3.444   2.549 -2.6524  1.9755  0.6491
   32MOL    O62 7564   7.599   3.269   2.565 -0.4961 -0.0216  0.3213
   32MOL    C63 7565   7.705   3.191   2.538 -0.2006 -0.3010  0.6180
   32MOL    C64 7566   7.704   3.069   2.626 -0.0126 -0.0683  0.0419
   32MOL    C65 7567   7.711   3.152   2.394 -0.3905 -0.7034  0.3844
   32MOL    C66 7568   7.730   3.259   2.291 -0.4159 -0.3024  0.3207
   32MOL    O67 7569   7.719   3.382   2.311  0.0213  0.1926  0.0569
   32MOL    H68 7570   7.792   3.245   2.573  0.8062  0.0621 -2.3197
   32MOL    H69 7571   7.785   3.003   2.596 -0.4453 -1.5088  1.9501
   32MOL    H70 7572   7.607   3.022   2.644 -0.0416 -0.3682 -0.8574
   32MOL    H71 7573   7.733   3.102   2.726  0.1880 -0.7248  0.2078
   32MOL    H72 7574   7.614   3.113   2.362  0.1943 -0.9220 -1.1710
   32MOL    H73 7575   7.791   3.083   2.368  0.9005  0.9596 -0.2059
   32MOL    O74 7576   7.766   3.220   2.164 -0.2987 -0.1363  0.7253
   32MOL    C75 7577   7.798   3.313   2.060  0.4747  0.2777 -0.4160
   32MOL    C76 7578   7.945   3.307   2.061 -0.3209 -0.0508  0.0735
   32MOL    C77 7579   7.738   3.279   1.922 -0.1602 -0.0903  0.0905
   32MOL    C78 7580   7.585   3.289   1.925 -0.7822 -0.2847  0.4002
   32MOL    O79 7581   7.527   3.335   2.023  0.4595 -0.3895  0.0174
   32MOL    H80 7582   7.762   3.415   2.074  1.5307  0.8853 -2.0206
   32MOL    H81 7583   7.976   3.310   2.166 -1.6070  0.6261  0.4412
   32MOL    H82 7584   0.010   3.396   2.016 -1.4806  0.0074 -0.9895
   32MOL    H83 7585   0.015   3.223   2.011 -0.3853 -0.0911  0.0770
   32MOL    H84 7586   7.790   3.189   1.888  1.2683  1.1199 -1.0014
   32MOL    H85 7587   7.775   3.357   1.855  1.6355 -0.9002  0.0996
   32MOL    O86 7588   7.534   3.230   1.816 -0.9063 -0.0027  0.1533
   32MOL    C87 7589   7.401   3.191   1.815  0.9777  0.6411  0.1502
   32MOL    C88 7590   7.317   3.286   1.724 -0.7879  0.3448 -0.0400
   32MOL    C89 7591   7.393   3.033   1.808  0.0240 -0.0727  0.4025
   32MOL    C90 7592   7.435   2.973   1.676  0.6783  0.1145  0.4608
   32MOL    O91 7593   7.529   2.893   1.668  0.2031  0.0298  0.2661
   32MOL    H92 7594   7.354   3.220   1.909 -1.3533 -1.5756 -0.2710
   32MOL    H93 7595   7.351   3.387   1.745  1.1276 -0.7293  2.2344
   32MOL    H94 7596   7.210   3.286   1.748 -0.8066  1.8315 -0.0745
   32MOL    H95 7597   7.332   3.265   1.618 -0.9223  0.8091 -0.1517
   32MOL    H96 7598   7.289   3.003   1.821 -0.5412  1.2321 -1.0663
   32MOL    H97 7599   7.445   2.978   1.887  0.5066  1.4495  1.1495
   32MOL    O98 7600   7.355   3.009   1.578 -0.0447 -0.1658  0.2731
   32MOL    C99 7601   7.346   2.944   1.447  0.0387 -0.3947 -0.3475
   32MOL   C100 7602   7.242   2.826   1.458 -1.0930  0.6584  0.9159
   32MOL   C101 7603   7.325   3.042   1.324 -0.1778  0.1520  0.3813
   32MOL   C102 7604   7.450   3.140   1.318 -0.1171 -0.2943 -0.0014
   32MOL   O103 7605   7.555   3.092   1.264 -0.0216 -0.1823 -0.1980
   32MOL   H104 7606   7.445   2.898   1.440  1.3373  2.0969  1.2417
   32MOL   H105 7607   7.263   2.762   1.544  1.4322 -0.0367 -0.1548
   32MOL   H106 7608   7.257   2.765   1.369 -2.0392  2.7432 -0.7334
   32MOL   H107 7609   7.141   2.867   1.466 -1.5958 -0.9944  3.4099
   32MOL   H108 7610   7.236   3.103   1.335  1.1576  2.6217 -1.8186
   32MOL   H109 7611   7.321   3.001   1.223  0.2151 -0.2897  0.5476
   32MOL   O110 7612   7.435   3.262   1.364  0.2006  0.2627  0.0130
   32MOL   C111 7613   7.541   3.357   1.364 -0.3568  0.3579 -0.1242
   32MOL   C112 7614   7.492   3.480   1.285  0.2611 -0.1918  0.2438
   32MOL   C113 7615   7.570   3.397   1.510 -0.2044  1.1322 -0.2959
   32MOL   C114 7616   7.678   3.506   1.527 -0.3111  0.0570  0.7072
   32MOL   O115 7617   7.760   3.530   1.437 -0.7738 -0.3420  0.9265
   32MOL   H116 7618   7.627   3.319   1.309 -1.0274  0.0096 -0.9431
   32MOL   H117 7619   7.429   3.543   1.348 -0.1849  0.2026 -0.5736
   32MOL   H118 7620   7.438   3.453   1.194 -1.2308  0.7421  0.8174
   32MOL   H119 7621   7.572   3.550   1.261 -2.8033  3.2090 -0.6010
   32MOL   H120 7622   7.606   3.312   1.568  0.5888  0.2538 -2.0721
   32MOL   H121 7623   7.489   3.439   1.571  0.1887  0.3239  0.8118
   32MOL   O122 7624   7.670   3.571   1.635  0.0661  0.1572 -0.2180
   32MOL   C123 7625   7.774   3.667   1.669 -0.3016 -0.1406  0.0496
   32MOL   C124 7626   7.714   3.809   1.670  0.4566  0.2258  0.2187
   32MOL   C125 7627   7.814   3.611   1.811  0.0957 -0.6769  0.6420
   32MOL   C126 7628   7.917   3.695   1.893  0.2956  0.1756  0.2836
   32MOL   O127 7629   7.919   3.685   2.014  0.2458  0.2931  0.2893
   32MOL   H128 7630   7.865   3.666   1.609 -0.6151  0.9160 -0.4603
   32MOL   H129 7631   7.645   3.817   1.754 -0.2640 -1.9878 -0.1353
   32MOL   H130 7632   7.655   3.836   1.582  0.6447 -0.9374 -0.2706
   32MOL   H131 7633   7.790   3.886   1.676  1.3075 -0.7537  2.6209
   32MOL   H132 7634   7.860   3.512   1.808  0.0644 -0.7152  1.5372
   32MOL   H133 7635   7.727   3.600   1.874 -2.1954  1.0745 -2.0861
   32MOL   O134 7636   0.007   3.768   1.811 -0.1400  0.0326  0.9856
   32MOL   C135 7637   0.097   3.865   1.865 -0.3422  0.4316  0.3292
   32MOL   C136 7638   0.227   3.806   1.923 -0.7282  0.3546  0.2766
   32MOL   C137 7639   0.127   3.977   1.760 -0.2500  0.5096 -0.1298
   32MOL   C138 7640   0.018   4.079   1.737 -0.3031 -0.0453  0.0411
   32MOL   O139 7641   7.939   4.139   1.825  0.2384  0.3580 -0.4872
   32MOL   H140 7642   0.040   3.906   1.948 -0.4561 -0.1018  0.5137
   32MOL   H141 7643   0.293   3.883   1.964 -0.6138  1.2506 -1.5354
   32MOL   H142 7644   0.285   3.750   1.849  0.5599 -1.2116  2.4259
   32MOL   H143 7645   0.202   3.745   2.009  0.1431  0.7817  0.8464
   32MOL   H144 7646   0.159   3.924   1.670 -0.1528  1.3884 -0.6119
   32MOL   H145 7647   0.208   4.031   1.810 -2.2477  1.1054  2.5793
   32MOL   O146 7648   7.971   4.091   1.608  0.3174  0.3163 -0.1416
   32MOL   C147 7649   7.871   4.189   1.561 -0.2044 -0.4403  0.6877
   32MOL   C148 7650   7.937   4.312   1.502  0.4711 -0.2117 -0.1138
   32MOL   C149 7651   7.761   4.137   1.467  0.1165  0.2276  0.3090
   32MOL   C150 7652   7.812   4.073   1.342  0.0771 -0.0644 -0.6015
   32MOL   O151 7653   7.817   4.141   1.241 -0.0215 -0.4135 -0.2094
   32MOL   H152 7654   7.816   4.221   1.649 -3.3462  0.7502 -1.5980
   32MOL   H153 7655   0.008   4.375   1.575 -2.2558  0.6137  1.1113
   32MOL   H154 7656   7.864   4.376   1.453 -1.4123 -2.6474 -0.5614
   32MOL   H155 7657   0.028   4.290   1.422 -1.4504  0.7131 -2.0818
   32MOL   H156 7658   7.697   4.220   1.438  1.5209  1.1558 -0.1808
   32MOL   H157 7659   7.696   4.065   1.515  0.0415 -0.4407 -0.7642
   32MOL   O158 7660   7.854   3.943   1.349 -0.6526 -0.3571 -0.1154
   32MOL   C159 7661   7.912   3.872   1.238 -0.2818  0.6341  0.1443
   32MOL   C160 7662   0.081   3.895   1.256 -0.0703  0.2488 -0.2884
   32MOL   C161 7663   7.860   3.726   1.249 -0.3170 -0.2368  0.2059
   32MOL   C162 7664   7.879   3.637   1.127  0.1959 -0.3179 -0.0427
   32MOL   O163 7665   0.009   3.593   1.093  0.4067  0.0169 -0.3195
   32MOL   H164 7666   7.876   3.915   1.145 -1.8242 -0.0498  0.4088
   32MOL   H165 7667   0.112   3.998   1.244  0.2692  0.4228  1.7732
   32MOL   H166 7668   0.135   3.831   1.187 -0.9160  0.9233 -1.5986
   32MOL   H167 7669   0.105   3.855   1.355 -0.2227  2.4108  0.6373
   32MOL   H168 7670   7.753   3.722   1.269 -0.4952  2.1433 -0.0616
   32MOL   H169 7671   7.917   3.671   1.323 -0.0633  0.3708  0.4639
   32MOL   O170 7672   7.764   3.601   1.070  0.3854  0.3587  0.3335
   32MOL   C171 7673   7.743   3.509   0.962  0.3674  1.3584  0.4187
   32MOL   C172 7674   7.693   3.371   1.007 -0.5279 -0.0813 -0.4485
   32MOL   C173 7675   7.653   3.577   0.862  0.2708  0.1056 -0.2144
   32MOL   C174 7676   7.718   3.690   0.791 -0.1477 -0.2578  0.4934
   32MOL   O175 7677   7.772   3.680   0.684 -0.3024 -0.0930 -0.2636
   32MOL   H176 7678   7.842   3.491   0.920 -0.5570 -1.2957 -0.7075
   32MOL   H177 7679   7.764   3.338   1.083 -0.5084  2.5661  0.7077
   32MOL   H178 7680   7.698   3.291   0.933  0.7322  0.0956 -0.5717
   32MOL   H179 7681   7.588   3.380   1.037 -0.0601 -0.2005  1.2778
   32MOL   H180 7682   7.568   3.616   0.918  0.9957  1.2511  0.0937
   32MOL   H181 7683   7.623   3.504   0.787  2.4575 -0.5505 -0.4622
   32MOL   O182 7684   7.692   3.808   0.852  0.3418 -0.0540 -0.5028
   32MOL   C183 7685   7.722   3.931   0.795 -0.2743  0.2860 -0.1128
   32MOL   C184 7686   7.603   4.031   0.802  0.5659  0.1331  0.2416
   32MOL   C185 7687   7.838   3.997   0.873  0.3286 -0.2184 -0.0976
   32MOL   C186 7688   7.976   3.945   0.829  0.1116  0.4529  0.2110
   32MOL   O187 7689   0.060   3.871   0.906  0.0975  0.3600 -0.0222
   32MOL   H188 7690   7.751   3.914   0.691 -2.4302 -3.6766 -0.1689
   32MOL   H189 7691   7.516   3.982   0.757  0.0562  0.5066  0.8085
   32MOL   H190 7692   7.633   4.120   0.746  0.1645 -0.2928 -0.6605
   32MOL   H191 7693   7.577   4.047   0.906  1.9728 -1.4608  0.8557
   32MOL   H192 7694   7.833   4.011   0.981 -2.2439 -0.8887 -0.0985
   32MOL   H193 7695   7.848   4.096   0.827 -1.0489 -0.0082  0.0511
   32MOL   O194 7696   0.037   3.992   0.710  0.0129 -0.9787 -0.2633
   32MOL   C195 7697   0.168   3.975   0.657  0.4216  0.4038  0.3263
   32MOL   C196 7698   0.148   3.885   0.529 -0.0859 -0.2358 -0.4141
   32MOL   C197 7699   0.222   4.113   0.617 -0.1013  0.1181 -0.0042
   32MOL   C198 7700   0.306   4.161   0.731  0.1228 -0.4103 -0.7089
   32MOL   O199 7701   0.418   4.201   0.716 -0.0271 -0.5299  0.1700
   32MOL   H200 7702   0.236   3.915   0.718 -0.7323 -1.6983 -0.4063
   32MOL   H201 7703   0.246   3.869   0.483  0.6810  0.8099  0.8254
   32MOL   H202 7704   0.086   3.919   0.447 -1.8914 -2.4188  0.0027
   32MOL   H203 7705   0.108   3.788   0.556 -0.2671 -0.1176 -0.2622
   32MOL   H204 7706   0.144   4.189   0.608  0.9473  1.0515 -1.4306
   32MOL   H205 7707   0.286   4.113   0.529  0.7767  1.5051  0.6274
   32MOL   O206 7708   0.240   4.159   0.849 -0.1166  0.2876 -0.5909
   32MOL   C207 7709   0.297   4.200   0.972 -0.0385 -0.1511 -0.3757
   32MOL   C208 7710   0.175   4.222   1.063 -0.6031 -0.2388 -0.1275
   32MOL   C209 7711   0.372   4.074   1.032  0.6126  0.2635  0.1068
   32MOL   C210 7712   0.432   4.091   1.175 -0.6547 -0.6739  0.3964
   32MOL   O211 7713   0.475   4.200   1.207 -1.0448 -0.8244 -0.0443
   32MOL   H212 7714   0.360   4.289   0.966 -0.7850  0.4119  0.0416
   32MOL   H213 7715   0.197   4.250   1.166  2.1308  1.6360 -1.1526
   32MOL   H214 7716   0.113   4.133   1.071 -0.4293 -0.5679 -2.3121
   32MOL   H215 7717   0.128   4.308   1.015  0.7709  1.1638  0.9380
   32MOL   H216 7718   0.451   4.045   0.964  0.6218 -2.6852  1.3024
   32MOL   H217 7719   0.303   3.991   1.019  1.7337 -0.4618 -1.2854
   32MOL   O218 7720   0.434   3.977   1.245 -0.2462  0.6877 -0.5448
   32MOL   C219 7721   0.476   3.974   1.383 -0.3130  0.3514  0.4834
   32MOL   C220 7722   0.354   3.936   1.462  0.0895 -0.2024 -0.3563
   32MOL   C221 7723   0.586   3.866   1.400 -0.4087 -0.2045  0.9418
   32MOL   C222 7724   0.640   3.861   1.540  0.3769 -0.3467  0.2710
   32MOL   O223 7725   0.634   3.758   1.609 -0.1743 -0.0150 -0.0333
   32MOL   H224 7726   0.516   4.069   1.417  2.3744 -0.5139 -0.1141
   32MOL   H225 7727   0.381   3.935   1.567 -0.9202  1.3954 -0.0713
   32MOL   H226 7728   0.299   3.848   1.429  0.5793 -0.9807  0.8924
   32MOL   H227 7729   0.286   4.021   1.453 -0.7692 -0.9558 -1.0994
   32MOL   H228 7730   0.666   3.890   1.331 -0.1868 -0.7318  1.0087
   32MOL   H229 7731   0.552   3.767   1.370 -1.2505  0.6522 -0.9651
   32MOL   O230 7732   0.679   3.981   1.585 -0.1312 -0.1822  0.6868
   32MOL   C231 7733   0.746   3.992   1.715 -0.5295 -0.1061 -0.9791
   32MOL   C232 7734   0.897   4.009   1.686  0.5331 -0.3274  0.7074
   32MOL   C233 7735   0.681   4.099   1.804 -0.4067  0.0197  0.1097
   32MOL   C234 7736   0.564   4.043   1.875  0.3059 -0.6664 -1.0024
   32MOL   O235 7737   0.481   3.967   1.825 -0.2918 -0.1574 -0.0349
   32MOL   H236 7738   0.749   3.903   1.779 -0.7082  0.6312  0.0709
   32MOL   H237 7739   0.923   3.923   1.625 -2.1599  0.7977 -2.1844
   32MOL   H238 7740   0.972   4.011   1.765  0.9807 -0.8049  0.2950
   32MOL   H239 7741   0.914   4.096   1.623 -2.3090  0.0562  0.3788
   32MOL   H240 7742   0.669   4.197   1.759  1.2730  0.9784  1.6739
   32MOL   H241 7743   0.752   4.121   1.884 -1.4166  0.2384  0.9581
   32MOL   H242 7744   0.563   4.072   1.980 -0.3497 -2.0880 -0.6003
   33MOL     O1 7745   1.943   5.667   5.495 -0.3717  0.0539 -0.1777
   33MOL     C2 7746   2.021   5.554   5.459 -0.5192 -0.6163 -0.0154
   33MOL     C3 7747   2.165   5.605   5.424  0.5739  0.4261 -0.1667
   33MOL     C4 7748   2.027   5.460   5.586 -0.1786  0.3317  0.3020
   33MOL     C5 7749   2.053   5.311   5.555  0.0656 -0.2021 -0.0035
   33MOL     O6 7750   2.112   5.235   5.635  0.2908  0.8653  0.1063
   33MOL     H7 7751   1.975   5.509   5.371 -0.9088  0.0215 -0.1430
   33MOL     H8 7752   2.168   5.675   5.340 -1.0107 -1.1447 -1.5750
   33MOL     H9 7753   2.241   5.531   5.399 -1.1335 -1.1207 -0.8631
   33MOL    H10 7754   2.208   5.664   5.505 -1.6990  2.4998 -0.4313
   33MOL    H11 7755   1.930   5.459   5.636 -1.0527  0.9106 -1.3529
   33MOL    H12 7756   2.102   5.494   5.657  1.1510  0.9088 -1.3602
   33MOL    H13 7757   1.861   5.631   5.525 -2.4709  1.0813 -4.2187
   33MOL    O14 7758   1.988   5.274   5.440 -0.4108 -0.3853 -0.4257
   33MOL    C15 7759   2.035   5.168   5.359  0.1467 -0.0266  0.2474
   33MOL    C16 7760   1.971   5.038   5.413 -0.4220 -0.0065  0.0391
   33MOL    C17 7761   2.026   5.192   5.210 -0.2404  0.2993  0.0596
   33MOL    C18 7762   2.141   5.275   5.156  0.6447  0.0471  0.1091
   33MOL    O19 7763   2.250   5.295   5.212  0.1745 -0.4812  0.6500
   33MOL    H20 7764   2.139   5.145   5.383 -0.6675 -2.1066  1.9329
   33MOL    H21 7765   2.001   5.023   5.517  0.5199  0.3978 -0.1695
   33MOL    H22 7766   2.012   4.958   5.351  0.5533  1.7269 -1.6068
   33MOL    H23 7767   1.863   5.031   5.401 -0.2452 -2.3515 -0.2801
   33MOL    H24 7768   1.930   5.225   5.169 -0.5467 -0.4418  0.1596
   33MOL    H25 7769   2.033   5.093   5.164  0.2243  0.0594  0.6436
   33MOL    O26 7770   2.108   5.323   5.035  0.0641  0.3727 -0.3271
   33MOL    C27 7771   2.183   5.423   4.960 -0.4480  0.1730  0.3341
   33MOL    C28 7772   2.217   5.551   5.039  0.2135  0.5826  0.9161
   33MOL    C29 7773   2.305   5.353   4.900 -0.0044 -0.4124  0.4504
   33MOL    C30 7774   2.350   5.422   4.773  0.4558  0.5946  0.2378
   33MOL    O31 7775   2.281   5.405   4.675  1.0911 -0.1172  0.2693
   33MOL    H32 7776   2.118   5.441   4.874  2.7990  3.0844 -1.6515
   33MOL    H33 7777   2.132   5.585   5.098 -1.9488 -0.2934 -1.5947
   33MOL    H34 7778   2.238   5.635   4.973  0.5086  0.9688  1.4961
   33MOL    H35 7779   2.298   5.533   5.110 -0.4046 -1.7781  1.0698
   33MOL    H36 7780   2.286   5.249   4.874 -0.2587 -0.0205 -0.9393
   33MOL    H37 7781   2.387   5.364   4.971 -1.2277  1.2514  1.6300
   33MOL    O38 7782   2.464   5.486   4.789 -0.1887 -0.1477 -0.5610
   33MOL    C39 7783   2.523   5.551   4.673  0.2417 -0.3317  0.2263
   33MOL    C40 7784   2.447   5.679   4.630 -0.0368 -0.4451 -0.2871
   33MOL    C41 7785   2.671   5.576   4.669  0.8476 -0.4142  1.0190
   33MOL    C42 7786   2.712   5.677   4.779  0.4082  0.4847  0.0438
   33MOL    O43 7787   2.791   5.769   4.749 -0.3383 -0.2884 -0.7364
   33MOL    H44 7788   2.497   5.476   4.599  0.6508 -0.1137 -0.1389
   33MOL    H45 7789   2.354   5.649   4.581 -0.9046  0.4975  0.7462
   33MOL    H46 7790   2.502   5.744   4.561 -1.3987  1.4844  0.3860
   33MOL    H47 7791   2.406   5.727   4.719  0.3448  0.7630 -0.7461
   33MOL    H48 7792   2.694   5.609   4.568 -1.5854 -0.7707  0.3124
   33MOL    H49 7793   2.712   5.478   4.691  1.8607  0.1155  1.5141
   33MOL    O50 7794   2.670   5.646   4.910  0.4088 -0.1340 -0.4489
   33MOL    C51 7795   2.695   5.742   5.016  0.1542  0.6762  0.1388
   33MOL    C52 7796   2.548   5.780   5.069  0.3886 -0.0431 -0.0215
   33MOL    C53 7797   2.778   5.667   5.126  0.4814  0.1881 -0.0808
   33MOL    C54 7798   2.919   5.620   5.081 -0.3986 -0.1683 -0.3214
   33MOL    O55 7799   2.954   5.500   5.082 -0.3936 -0.2673  0.6111
   33MOL    H56 7800   2.760   5.819   4.975  0.6904 -0.2808 -0.8323
   33MOL    H57 7801   2.543   5.861   5.141 -1.1357  0.0577 -0.2175
   33MOL    H58 7802   2.498   5.696   5.117 -0.7598  1.5066  1.5435
   33MOL    H59 7803   2.478   5.809   4.990  0.3221 -1.5617 -0.5469
   33MOL    H60 7804   2.723   5.576   5.146 -1.2454  1.2036 -0.1358
   33MOL    H61 7805   2.788   5.729   5.215  0.0300 -1.0113  0.8227
   33MOL    O62 7806   3.002   5.726   5.057  0.1594  0.1702 -0.0405
   33MOL    C63 7807   3.134   5.713   5.000 -0.3058 -0.5576 -0.0935
   33MOL    C64 7808   3.123   5.735   4.850  0.2669  0.8535  0.4378
   33MOL    C65 7809   3.245   5.804   5.054 -0.4033 -0.3317  0.4008
   33MOL    C66 7810   3.257   5.775   5.205 -0.0901 -0.5900  0.7173
   33MOL    O67 7811   3.321   5.676   5.242 -0.3997 -0.1137  0.1614
   33MOL    H68 7812   3.177   5.615   5.024  2.3535 -0.0962 -2.6256
   33MOL    H69 7813   3.104   5.839   4.824  1.2988  0.8252 -0.4570
   33MOL    H70 7814   3.039   5.676   4.814  1.5066  0.1194 -1.3503
   33MOL    H71 7815   3.214   5.714   4.795 -0.0103 -1.0758  0.6779
   33MOL    H72 7816   3.223   5.910   5.039  0.2363 -0.3562 -0.7585
   33MOL    H73 7817   3.339   5.776   5.007  0.0602  1.2476  0.3663
   33MOL    O74 7818   3.189   5.863   5.278  0.0398  0.3854 -0.2063
   33MOL    C75 7819   3.196   5.868   5.423 -0.3502  0.0103  0.9125
   33MOL    C76 7820   3.320   5.954   5.470 -0.3187  0.0261 -0.2657
   33MOL    C77 7821   3.064   5.936   5.475  0.1271  0.2576  1.4047
   33MOL    C78 7822   2.937   5.854   5.474 -0.9260  0.5222  0.4639
   33MOL    O79 7823   2.935   5.744   5.422 -0.1289  0.2871  0.8936
   33MOL    H80 7824   3.201   5.771   5.475 -1.0638  0.5117  1.9493
   33MOL    H81 7825   3.411   5.895   5.458 -1.1824 -1.5955  0.9983
   33MOL    H82 7826   3.320   5.995   5.571  1.9421  1.4862 -0.8251
   33MOL    H83 7827   3.328   6.042   5.405 -0.5937  0.9724  0.9609
   33MOL    H84 7828   3.045   6.018   5.406  2.1045 -1.5372 -1.3849
   33MOL    H85 7829   3.072   5.968   5.579 -5.1414  4.1269  0.8308
   33MOL    O86 7830   2.836   5.909   5.541 -0.8589  0.3222  0.6323
   33MOL    C87 7831   2.721   5.837   5.578  0.8115 -0.4713  0.0286
   33MOL    C88 7832   2.735   5.805   5.725  0.2318  0.0037  0.1305
   33MOL    C89 7833   2.608   5.922   5.529  0.4499 -0.0698 -0.0807
   33MOL    C90 7834   2.466   5.883   5.551 -0.0224 -0.5363 -0.4522
   33MOL    O91 7835   2.425   5.793   5.479  0.0873  0.6196 -0.1464
   33MOL    H92 7836   2.722   5.744   5.522 -0.2311 -1.2784  1.3048
   33MOL    H93 7837   2.647   5.748   5.754  1.3054 -2.0782 -0.6002
   33MOL    H94 7838   2.746   5.886   5.797  0.2206  0.1682 -0.0504
   33MOL    H95 7839   2.824   5.743   5.738 -0.0755  0.1396  3.2609
   33MOL    H96 7840   2.615   5.944   5.422  1.5257 -1.2799 -0.2771
   33MOL    H97 7841   2.627   6.015   5.583 -2.2840  0.1291  0.5659
   33MOL    O98 7842   2.404   5.948   5.653  0.5352 -0.3713  0.2063
   33MOL    C99 7843   2.263   5.919   5.687  0.3710 -0.0384 -0.3020
   33MOL   C100 7844   2.253   5.812   5.791 -0.6815 -0.3137 -0.6020
   33MOL   C101 7845   2.193   6.055   5.728  0.1294  0.1401  0.4582
   33MOL   C102 7846   2.152   6.142   5.610 -1.0902 -0.5769  0.1624
   33MOL   O103 7847   2.033   6.147   5.576 -0.1587  0.2729 -0.8170
   33MOL   H104 7848   2.226   5.867   5.598 -2.7704  0.4579  0.6797
   33MOL   H105 7849   2.153   5.768   5.795 -1.1999  0.9447  0.4363
   33MOL   H106 7850   2.283   5.860   5.884  0.7830  0.2364 -1.3512
   33MOL   H107 7851   2.310   5.722   5.766  2.0505  1.3825 -0.5986
   33MOL   H108 7852   2.246   6.111   5.804  0.0523  2.3367 -1.0666
   33MOL   H109 7853   2.104   6.034   5.787 -0.1022  0.7321  0.3164
   33MOL   O110 7854   2.249   6.220   5.561  0.0320  0.1087 -0.1896
   33MOL   C111 7855   2.224   6.334   5.478 -0.1430 -0.0881  0.0411
   33MOL   C112 7856   2.263   6.461   5.563 -0.3526 -0.1620  0.2462
   33MOL   C113 7857   2.314   6.319   5.352  0.6784 -0.6340  0.2809
   33MOL   C114 7858   2.252   6.239   5.242  0.6690  0.0292 -0.0711
   33MOL   O115 7859   2.214   6.291   5.140  0.1512 -0.1696 -0.3896
   33MOL   H116 7860   2.117   6.336   5.460 -0.0791  1.6769 -0.1502
   33MOL   H117 7861   2.232   6.452   5.667 -0.5845  2.1828  0.4107
   33MOL   H118 7862   2.209   6.544   5.519  1.4052  1.2443  0.6916
   33MOL   H119 7863   2.365   6.497   5.571 -0.5201  0.3058  0.2859
   33MOL   H120 7864   2.407   6.270   5.379  1.8481  2.0068  1.1651
   33MOL   H121 7865   2.334   6.419   5.313 -1.5620 -1.4155 -3.1486
   33MOL   O122 7866   2.232   6.113   5.267 -0.4048 -0.0133  0.1764
   33MOL   C123 7867   2.179   6.026   5.169  0.0837  0.4108  0.5321
   33MOL   C124 7868   2.276   5.928   5.121 -0.4400 -0.5216  0.0708
   33MOL   C125 7869   2.048   5.962   5.225  0.6363 -0.3920 -0.0828
   33MOL   C126 7870   1.967   5.885   5.113  0.0404 -0.3695 -0.1586
   33MOL   O127 7871   1.904   5.783   5.144  0.4301 -0.2052 -0.2914
   33MOL   H128 7872   2.148   6.084   5.082 -3.2488 -1.9492  0.0518
   33MOL   H129 7873   2.355   5.979   5.065  0.2877 -1.0580  0.5925
   33MOL   H130 7874   2.233   5.847   5.062  0.6629  0.0468 -1.5599
   33MOL   H131 7875   2.323   5.879   5.207  0.0576 -4.4989 -2.3463
   33MOL   H132 7876   1.990   6.048   5.259  2.5378  1.3754 -1.1925
   33MOL   H133 7877   2.076   5.909   5.317  2.4374 -1.7516 -1.3741
   33MOL   O134 7878   1.970   5.947   4.990 -0.3723  0.0333  0.1749
   33MOL   C135 7879   1.919   5.886   4.877  0.0595 -0.8186  0.3747
   33MOL   C136 7880   1.794   5.961   4.837  0.3016 -0.4923  0.4449
   33MOL   C137 7881   2.031   5.867   4.781 -0.0647 -0.6890 -0.8621
   33MOL   C138 7882   2.079   5.990   4.701  0.0019  0.3167  0.1347
   33MOL   O139 7883   2.045   6.003   4.581  0.2620  0.0969 -0.3610
   33MOL   H140 7884   1.896   5.781   4.896 -2.0436 -1.1072 -3.3580
   33MOL   H141 7885   1.819   6.056   4.790  1.8956 -1.2741 -0.3256
   33MOL   H142 7886   1.730   5.979   4.923  1.7147  1.0928  1.1887
   33MOL   H143 7887   1.727   5.904   4.772  0.4547  0.4284 -0.5179
   33MOL   H144 7888   1.985   5.810   4.700 -4.0446 -1.5451  1.8911
   33MOL   H145 7889   2.120   5.816   4.819  0.0979  0.0124 -0.2967
   33MOL   O146 7890   2.174   6.060   4.772  0.1674  0.3454 -0.2195
   33MOL   C147 7891   2.237   6.169   4.704 -1.2358 -0.8718  0.3726
   33MOL   C148 7892   2.230   6.291   4.802  0.1714  0.4553 -0.2790
   33MOL   C149 7893   2.383   6.129   4.660  0.3322 -0.1753 -0.2081
   33MOL   C150 7894   2.480   6.081   4.767  0.7255  0.3357  0.7724
   33MOL   O151 7895   2.495   5.965   4.796 -0.2233  0.8205  0.4284
   33MOL   H152 7896   2.179   6.195   4.615 -0.2150 -0.8531 -0.2965
   33MOL   H153 7897   2.131   6.327   4.828  0.1526 -1.1422  2.0407
   33MOL   H154 7898   2.277   6.382   4.763  0.2798  0.8166  0.6686
   33MOL   H155 7899   2.288   6.260   4.889 -1.8881 -3.9763 -0.3424
   33MOL   H156 7900   2.438   6.204   4.603  2.8656  0.0565  2.4440
   33MOL   H157 7901   2.365   6.049   4.588 -1.4055  0.1087 -0.1005
   33MOL   O158 7902   2.546   6.181   4.831 -0.6840 -0.1124 -0.2511
   33MOL   C159 7903   2.623   6.154   4.951 -0.5475 -0.2431  0.1044
   33MOL   C160 7904   2.764   6.097   4.913 -0.2883  0.7857  0.3392
   33MOL   C161 7905   2.621   6.287   5.035  0.1818  0.0029 -0.5782
   33MOL   C162 7906   2.660   6.263   5.187 -0.2153 -0.7702  0.3424
   33MOL   O163 7907   2.643   6.159   5.244 -0.0510  0.0626  0.2787
   33MOL   H164 7908   2.572   6.076   5.007 -1.6764 -0.7124 -1.5420
   33MOL   H165 7909   2.764   6.010   4.846  1.0649  1.1405 -0.1386
   33MOL   H166 7910   2.822   6.073   5.002  0.9581 -1.6240 -1.0352
   33MOL   H167 7911   2.817   6.175   4.858  0.4498  0.0484 -0.0229
   33MOL   H168 7912   2.515   6.314   5.040  0.1013 -0.7842  3.9125
   33MOL   H169 7913   2.687   6.359   4.988  0.4207 -1.1460 -2.0655
   33MOL   O170 7914   2.734   6.368   5.238 -0.4439 -0.4520  0.5532
   33MOL   C171 7915   2.785   6.359   5.370 -0.3252 -0.0354  0.2839
   33MOL   C172 7916   2.925   6.288   5.379  0.0433 -0.0213 -0.1950
   33MOL   C173 7917   2.785   6.487   5.448 -0.5841 -0.4587  0.4614
   33MOL   C174 7918   2.886   6.595   5.403 -0.2567 -0.3295 -0.1174
   33MOL   O175 7919   2.950   6.656   5.489  0.3308  0.0691 -0.3535
   33MOL   H176 7920   2.711   6.301   5.424  1.4023 -1.6322  0.9757
   33MOL   H177 7921   2.961   6.256   5.477  2.8085  2.9508 -0.1790
   33MOL   H178 7922   3.003   6.358   5.348  1.1768 -0.4179  1.7147
   33MOL   H179 7923   2.940   6.200   5.316 -0.2400 -0.4080  0.2685
   33MOL   H180 7924   2.823   6.458   5.546  1.2593  0.8057  0.1438
   33MOL   H181 7925   2.684   6.527   5.459 -0.1921  0.8577 -0.6875
   33MOL   O182 7926   2.894   6.609   5.267  0.2786  0.2238  0.0353
   33MOL   C183 7927   2.963   6.717   5.206  0.4268  0.0447  0.4877
   33MOL   C184 7928   2.924   6.705   5.051 -0.1589 -0.3474  0.5987
   33MOL   C185 7929   2.922   6.859   5.249  0.7012  0.1209  0.5583
   33MOL   C186 7930   3.029   6.960   5.223  0.1109  0.0826  0.4912
   33MOL   O187 7931   3.006   7.056   5.149  0.5656 -0.6746 -0.1419
   33MOL   H188 7932   3.069   6.703   5.226  0.3827 -0.8422  0.1013
   33MOL   H189 7933   2.949   6.607   5.010  1.0729  0.3836 -0.4147
   33MOL   H190 7934   2.972   6.782   4.991 -2.0005  0.1419 -0.2994
   33MOL   H191 7935   2.816   6.722   5.049 -0.2120 -0.6556  0.7863
   33MOL   H192 7936   2.909   6.867   5.357  2.2082 -0.2847  0.7762
   33MOL   H193 7937   2.838   6.900   5.194  1.3494 -1.2486 -1.5508
   33MOL   O194 7938   3.147   6.935   5.292 -0.0481 -0.2606  0.0206
   33MOL   C195 7939   3.260   7.020   5.289 -0.4405 -0.3437 -0.2890
   33MOL   C196 7940   3.295   7.046   5.432 -0.2671 -0.1834 -0.3289
   33MOL   C197 7941   3.378   6.940   5.225  0.4641 -0.3155  0.5757
   33MOL   C198 7942   3.381   6.929   5.076  0.6060  0.4301 -0.2190
   33MOL   O199 7943   3.308   7.001   5.009 -0.9498  0.5957 -0.0625
   33MOL   H200 7944   3.240   7.112   5.235  0.6642  0.9520  1.4486
   33MOL   H201 7945   3.291   6.949   5.482 -0.5884  0.1044  0.2038
   33MOL   H202 7946   3.222   7.100   5.493 -0.1903  0.5910 -0.9176
   33MOL   H203 7947   3.390   7.099   5.437 -0.8405  0.8677 -0.5672
   33MOL   H204 7948   3.374   6.839   5.266  0.4072 -1.2479 -1.6698
   33MOL   H205 7949   3.467   6.997   5.254  0.6404 -0.2749 -0.0445
   33MOL   O206 7950   3.449   6.829   5.037  0.4057 -0.1129  0.5398
   33MOL   C207 7951   3.443   6.781   4.899 -0.3086  0.5362 -0.2403
   33MOL   C208 7952   3.545   6.851   4.812  0.9046  0.2223 -0.0098
   33MOL   C209 7953   3.471   6.625   4.898 -1.1246 -0.1243  0.6750
   33MOL   C210 7954   3.356   6.539   4.958  0.1409 -0.7990  0.1107
   33MOL   O211 7955   3.240   6.561   4.941  0.1794  0.0939  0.0104
   33MOL   H212 7956   3.345   6.798   4.854 -0.7071 -0.5026  0.2427
   33MOL   H213 7957   3.641   6.805   4.836  0.9241 -1.3105 -2.7979
   33MOL   H214 7958   3.566   6.956   4.833 -0.5975  0.5081  0.0853
   33MOL   H215 7959   3.540   6.839   4.704 -0.3464  0.5034  0.0091
   33MOL   H216 7960   3.569   6.603   4.941 -1.6564 -1.8977  1.0413
   33MOL   H217 7961   3.488   6.604   4.793  0.8673 -0.9534  1.1393
   33MOL   O218 7962   3.407   6.438   5.043 -0.5189  0.2269  0.3783
   33MOL   C219 7963   3.324   6.365   5.135 -0.3885 -0.3550  0.4708
   33MOL   C220 7964   3.245   6.253   5.054  0.3732  0.4805 -0.2777
   33MOL   C221 7965   3.429   6.300   5.229 -0.1773 -0.5317  0.6165
   33MOL   C222 7966   3.483   6.387   5.342 -1.1034 -0.4419 -0.7098
   33MOL   O223 7967   3.601   6.390   5.361 -0.0860 -0.1029  0.3838
   33MOL   H224 7968   3.250   6.423   5.190  1.7926  1.6999  1.3363
   33MOL   H225 7969   3.184   6.308   4.983 -0.6110 -1.6458 -1.1298
   33MOL   H226 7970   3.185   6.186   5.116 -1.5470  3.6167  1.4232
   33MOL   H227 7971   3.313   6.195   4.992  0.2589 -0.5776  0.5624
   33MOL   H228 7972   3.506   6.237   5.184 -1.3765 -1.0576 -0.7175
   33MOL   H229 7973   3.366   6.225   5.278 -0.5521 -1.0647 -0.6640
   33MOL   O230 7974   3.384   6.447   5.411  0.4825  0.0188 -0.8086
   33MOL   C231 7975   3.405   6.508   5.535  0.1543  0.3439  0.5875
   33MOL   C232 7976   3.397   6.661   5.514 -0.7528  0.5011  0.2076
   33MOL   C233 7977   3.306   6.461   5.638  0.1566  0.6209  0.2928
   33MOL   C234 7978   3.355   6.351   5.733 -0.3496 -0.5270  0.2389
   33MOL   O235 7979   3.472   6.307   5.719  0.3382  0.4564 -0.0164
   33MOL   H236 7980   3.504   6.487   5.575  0.6933  0.7790 -0.4789
   33MOL   H237 7981   3.451   6.686   5.423  0.7911 -0.1758  0.9334
   33MOL   H238 7982   3.447   6.719   5.591 -0.1066  0.0220  0.1482
   33MOL   H239 7983   3.293   6.690   5.496 -0.7616  0.3481  0.0080
   33MOL   H240 7984   3.206   6.437   5.601 -0.2969 -0.1901  1.9754
   33MOL   H241 7985   3.291   6.544   5.707  2.0097  1.8799 -0.7798
   33MOL   H242 7986   3.288   6.325   5.815  1.1679 -2.7639  0.8006
   34MOL     O1 7987   3.063   0.054   1.686  0.1049 -0.2194  0.0450
   34MOL     C2 7988   3.161   7.933   1.700  0.5886 -0.0839 -0.5115
   34MOL     C3 7989   3.091   7.823   1.777  0.6806 -0.0571 -0.3774
   34MOL     C4 7990   3.194   7.886   1.556 -0.1833 -0.6873  0.4661
   34MOL     C5 7991   3.293   7.773   1.546 -0.8326  0.5530 -0.9733
   34MOL     O6 7992   3.274   7.697   1.450  0.2515  0.0825 -0.0704
   34MOL     H7 7993   3.253   7.965   1.750  0.4968 -1.2383  0.4184
   34MOL     H8 7994   3.037   7.855   1.867 -0.5097 -2.0775 -0.3330
   34MOL     H9 7995   3.168   7.750   1.803  0.2959 -0.7204 -1.0613
   34MOL    H10 7996   3.017   7.768   1.719  1.3184 -0.8188 -0.4829
   34MOL    H11 7997   3.237   7.963   1.491 -0.5619  0.4017  1.4860
   34MOL    H12 7998   3.100   7.871   1.503  0.4355  0.3934 -0.9604
   34MOL    H13 7999   3.072   0.121   1.752  2.1171  1.9163 -2.3453
   34MOL    O14 8000   3.404   7.783   1.629 -0.2215 -0.1771  0.0841
   34MOL    C15 8001   3.522   7.700   1.611  0.6851 -0.4296 -0.0372
   34MOL    C16 8002   3.646   7.780   1.640  1.0385 -0.1264  0.0234
   34MOL    C17 8003   3.535   7.564   1.692 -0.1512  0.5488 -0.2488
   34MOL    C18 8004   3.518   7.579   1.841  0.0242  0.9714 -0.1125
   34MOL    O19 8005   3.407   7.562   1.894 -0.2602  0.1049 -0.1647
   34MOL    H20 8006   3.521   7.678   1.504  4.3968  0.2802 -0.2895
   34MOL    H21 8007   3.650   7.804   1.747  1.3001 -1.9004  0.4222
   34MOL    H22 8008   3.639   7.878   1.594  1.9909  0.5847  1.3354
   34MOL    H23 8009   3.738   7.736   1.603  0.8806 -1.0279  0.6710
   34MOL    H24 8010   3.629   7.512   1.670  0.3801  0.8483  1.2239
   34MOL    H25 8011   3.461   7.500   1.645  0.6356 -0.2972 -0.3487
   34MOL    O26 8012   3.626   7.607   1.905  0.0092  0.6496 -0.3133
   34MOL    C27 8013   3.642   7.618   2.043  0.1088 -0.0715 -0.1096
   34MOL    C28 8014   3.753   7.518   2.077  0.3516 -0.2418 -0.1006
   34MOL    C29 8015   3.689   7.762   2.093 -0.1633 -0.1513 -0.5927
   34MOL    C30 8016   3.593   7.876   2.068  0.1778  0.0584  0.1768
   34MOL    O31 8017   3.608   7.959   1.982 -0.2200 -0.5544  0.6100
   34MOL    H32 8018   3.544   7.608   2.091 -0.9767  2.0182 -1.7983
   34MOL    H33 8019   3.719   7.414   2.076  2.5093 -0.9714 -2.7116
   34MOL    H34 8020   3.798   7.551   2.171  0.7648  4.3595 -1.8032
   34MOL    H35 8021   3.826   7.523   1.997  0.2874  1.6446 -0.0594
   34MOL    H36 8022   3.781   7.790   2.042  0.3457 -0.9766 -0.1328
   34MOL    H37 8023   3.705   7.754   2.200 -2.9095  1.4430 -0.0032
   34MOL    O38 8024   3.485   7.857   2.152  0.0892  0.3938 -0.2304
   34MOL    C39 8025   3.358   7.927   2.124  0.1159 -0.5118  0.2072
   34MOL    C40 8026   3.261   7.813   2.107 -0.6042  0.0023  0.4466
   34MOL    C41 8027   3.330   0.049   2.231 -0.2870 -0.2580  0.1200
   34MOL    C42 8028   3.213   0.143   2.207  0.5165  0.1038  0.3129
   34MOL    O43 8029   3.231   0.267   2.194 -0.1357 -0.3399  0.5050
   34MOL    H44 8030   3.366   0.000   2.029 -1.4765  1.9282  1.3838
   34MOL    H45 8031   3.246   7.753   2.197  3.2270 -1.2704  0.3228
   34MOL    H46 8032   3.294   7.757   2.020  1.4641  3.2694 -0.9415
   34MOL    H47 8033   3.159   7.843   2.080  0.2101  0.9890 -1.6043
   34MOL    H48 8034   3.421   0.110   2.233 -1.2668  1.3137 -1.5135
   34MOL    H49 8035   3.321   0.005   2.330 -0.0992 -2.0974 -0.6605
   34MOL    O50 8036   3.094   0.073   2.208  0.2922 -0.4567 -0.2028
   34MOL    C51 8037   2.976   0.147   2.209  0.4185 -0.1773 -0.4379
   34MOL    C52 8038   2.884   0.096   2.090 -0.0641 -0.4786 -0.0167
   34MOL    C53 8039   2.911   0.150   2.349 -0.1722  0.5722 -0.2779
   34MOL    C54 8040   2.939   0.263   2.450  0.3712  0.7431  0.0504
   34MOL    O55 8041   2.985   0.240   2.561  0.3989  0.6419  0.1230
   34MOL    H56 8042   2.994   0.252   2.187 -1.4256 -0.0139 -1.3074
   34MOL    H57 8043   2.785   0.142   2.094 -1.0957 -2.6594  0.0449
   34MOL    H58 8044   2.868   7.968   2.094  0.0865 -0.4673  1.0621
   34MOL    H59 8045   2.930   0.123   1.995 -1.1229 -0.1190 -0.4349
   34MOL    H60 8046   2.915   0.056   2.404 -0.1835  0.8811  0.2539
   34MOL    H61 8047   2.804   0.161   2.333 -0.2910  1.0528  0.8229
   34MOL    O62 8048   2.928   0.384   2.386  0.2757 -0.2531  0.5291
   34MOL    C63 8049   2.974   0.506   2.440 -0.1600  0.0190 -0.1104
   34MOL    C64 8050   3.109   0.541   2.375 -0.0437 -0.2551 -0.1051
   34MOL    C65 8051   2.864   0.614   2.441  0.4235  0.6043  0.3126
   34MOL    C66 8052   2.746   0.585   2.526  0.0680 -0.0784 -0.9410
   34MOL    O67 8053   2.635   0.573   2.481 -0.7863  0.0195 -0.1410
   34MOL    H68 8054   2.996   0.491   2.545  0.1911 -0.7566 -0.2915
   34MOL    H69 8055   3.181   0.464   2.402 -0.3748  0.1555  2.0012
   34MOL    H70 8056   3.160   0.633   2.404  1.5457 -2.0041  2.8502
   34MOL    H71 8057   3.100   0.560   2.268  0.4005  0.9934  0.0725
   34MOL    H72 8058   2.830   0.630   2.339  1.1913 -1.9388 -0.3761
   34MOL    H73 8059   2.902   0.710   2.478  1.6661  0.4443 -0.5012
   34MOL    O74 8060   2.780   0.566   2.656  0.3633 -0.4998 -0.0446
   34MOL    C75 8061   2.683   0.519   2.754 -0.2201 -0.0239 -0.0418
   34MOL    C76 8062   2.750   0.396   2.811 -0.4185 -0.3981 -0.4246
   34MOL    C77 8063   2.658   0.634   2.852  0.6454 -0.3421 -0.0190
   34MOL    C78 8064   2.555   0.601   2.961 -0.1514  0.4392 -0.6979
   34MOL    O79 8065   2.579   0.615   3.077  0.1399 -0.4518 -0.4361
   34MOL    H80 8066   2.595   0.478   2.704 -1.0161  0.7302  0.7145
   34MOL    H81 8067   2.775   0.333   2.725 -0.5433 -0.5558 -0.3460
   34MOL    H82 8068   2.691   0.344   2.886  2.6120 -0.7840  1.8246
   34MOL    H83 8069   2.845   0.425   2.857  0.1112 -0.9495 -1.1455
   34MOL    H84 8070   2.635   0.727   2.800  1.5213 -0.2740 -0.2961
   34MOL    H85 8071   2.756   0.653   2.897  1.3705 -1.1380 -1.2362
   34MOL    O86 8072   2.440   0.547   2.912 -0.5671  0.0774 -0.2426
   34MOL    C87 8073   2.344   0.500   3.004 -0.2030  0.0623  0.2541
   34MOL    C88 8074   2.217   0.481   2.914  0.0846  0.0300 -0.5548
   34MOL    C89 8075   2.382   0.365   3.067  0.3870 -0.4250 -0.4534
   34MOL    C90 8076   2.307   0.329   3.198 -0.7105 -0.2360 -0.0733
   34MOL    O91 8077   2.201   0.387   3.230 -0.4718  0.1289 -0.3020
   34MOL    H92 8078   2.327   0.582   3.074  1.7070  0.2046  0.5624
   34MOL    H93 8079   2.125   0.458   2.968  1.7165 -0.5294  2.0796
   34MOL    H94 8080   2.225   0.396   2.848 -0.3960 -0.7765  0.4073
   34MOL    H95 8081   2.206   0.571   2.853 -0.8576 -0.3695 -0.9867
   34MOL    H96 8082   2.489   0.362   3.088  0.3807 -0.6781 -0.4624
   34MOL    H97 8083   2.361   0.277   3.006 -1.5256  0.0154 -0.4469
   34MOL    O98 8084   2.371   0.241   3.261  0.5291  0.1884 -0.4107
   34MOL    C99 8085   2.335   0.202   3.394  0.3240 -0.6453  0.0238
   34MOL   C100 8086   2.311   0.053   3.388 -0.3486  0.1156 -0.0942
   34MOL   C101 8087   2.452   0.227   3.492 -0.0999 -0.0231  0.1899
   34MOL   C102 8088   2.478   0.385   3.500  0.0880 -0.2095  0.0556
   34MOL   O103 8089   2.590   0.435   3.503 -0.4131  0.5658 -0.1303
   34MOL   H104 8090   2.247   0.257   3.426  1.7490  1.4729  0.4730
   34MOL   H105 8091   2.405   7.979   3.404 -2.1416 -2.9420  0.5476
   34MOL   H106 8092   2.274   0.033   3.288 -1.8041  0.4225  0.3796
   34MOL   H107 8093   2.232   0.029   3.459 -0.2523  0.6896  0.2099
   34MOL   H108 8094   2.546   0.181   3.462 -0.0359 -0.1460  0.5704
   34MOL   H109 8095   2.432   0.186   3.591 -0.4920 -0.6969 -0.1629
   34MOL   O110 8096   2.361   0.457   3.493 -0.2518  0.1783 -0.2145
   34MOL   C111 8097   2.376   0.597   3.502  0.7488 -0.2875 -0.2637
   34MOL   C112 8098   2.263   0.650   3.410 -0.2858  0.3193 -0.5124
   34MOL   C113 8099   2.369   0.646   3.644 -0.2626  0.2029 -0.2648
   34MOL   C114 8100   2.418   0.786   3.673  0.1612 -0.8014  0.0483
   34MOL   O115 8101   2.333   0.883   3.673  0.1537 -0.1671 -0.0443
   34MOL   H116 8102   2.472   0.629   3.462  1.1764  0.5456  1.3873
   34MOL   H117 8103   2.288   0.644   3.304 -1.1611 -0.0765 -0.6995
   34MOL   H118 8104   2.234   0.753   3.432 -0.0540  0.3636 -0.4060
   34MOL   H119 8105   2.175   0.590   3.435 -0.6584  1.2497  0.4535
   34MOL   H120 8106   2.431   0.583   3.708  0.0352  1.3399  0.6022
   34MOL   H121 8107   2.273   0.619   3.687  0.6768 -0.4373  1.4794
   34MOL   O122 8108   2.550   0.800   3.698 -0.1006  0.3783 -1.0604
   34MOL   C123 8109   2.603   0.916   3.761 -0.1255 -0.1645 -0.0969
   34MOL   C124 8110   2.603   0.889   3.912 -0.2596  0.9846 -0.2338
   34MOL   C125 8111   2.755   0.933   3.723 -0.5223 -0.3517  0.8724
   34MOL   C126 8112   2.777   0.961   3.569  0.4984  0.6259 -0.3115
   34MOL   O127 8113   2.886   0.944   3.523 -0.6822  0.3259 -0.7022
   34MOL   H128 8114   2.548   1.005   3.733 -0.7893 -0.8480 -1.0260
   34MOL   H129 8115   2.507   0.867   3.960  0.6982 -0.6882  0.9549
   34MOL   H130 8116   2.635   0.981   3.960  1.9120 -0.3735  0.9656
   34MOL   H131 8117   2.659   0.798   3.933 -1.4108  0.1091 -0.8849
   34MOL   H132 8118   2.807   0.838   3.739  2.1724  0.7846 -0.7310
   34MOL   H133 8119   2.800   1.009   3.786 -0.5652 -0.4494  1.0219
   34MOL   O134 8120   2.666   1.006   3.503 -0.6081  0.4756  0.4985
   34MOL   C135 8121   2.670   1.021   3.365 -0.5815  0.2049 -0.3264
   34MOL   C136 8122   2.544   0.948   3.307 -0.2379 -0.1892 -0.7016
   34MOL   C137 8123   2.687   1.167   3.321 -0.4244  0.0301  0.8723
   34MOL   C138 8124   2.574   1.268   3.336  0.0213 -0.3550  0.0569
   34MOL   O139 8125   2.463   1.230   3.372 -0.3579 -0.6083 -0.7179
   34MOL   H140 8126   2.762   0.975   3.329 -0.2224 -0.1478  1.0292
   34MOL   H141 8127   2.559   0.841   3.322  1.3044 -0.1441 -1.8260
   34MOL   H142 8128   2.536   0.973   3.202 -1.2233  1.8377 -0.1630
   34MOL   H143 8129   2.461   0.988   3.366  1.2162  0.8343  0.6919
   34MOL   H144 8130   2.721   1.169   3.218  1.0559  1.1604  1.3759
   34MOL   H145 8131   2.767   1.207   3.384  1.1623 -1.2297 -0.3072
   34MOL   O146 8132   2.607   1.399   3.303  0.2547  0.3993  0.1292
   34MOL   C147 8133   2.522   1.506   3.337 -0.3368  0.4060  0.0723
   34MOL   C148 8134   2.575   1.644   3.382  0.3714  0.3329  0.3066
   34MOL   C149 8135   2.423   1.524   3.227 -0.0860  0.0641 -0.6344
   34MOL   C150 8136   2.488   1.568   3.091 -0.2021  0.1680  0.1376
   34MOL   O151 8137   2.416   1.627   3.014 -0.5833  0.0008  0.0484
   34MOL   H152 8138   2.471   1.482   3.430 -2.3125  1.9383 -0.5646
   34MOL   H153 8139   2.646   1.639   3.465  0.4673  1.2255  0.2763
   34MOL   H154 8140   2.496   1.701   3.431 -0.7355 -2.2368  1.6785
   34MOL   H155 8141   2.626   1.695   3.301  0.7627  0.1916  0.4630
   34MOL   H156 8142   2.348   1.596   3.259  0.0948  0.3000 -0.7464
   34MOL   H157 8143   2.376   1.425   3.221  1.9951 -0.8759 -1.8198
   34MOL   O158 8144   2.616   1.535   3.066  0.7940  0.5424 -0.0783
   34MOL   C159 8145   2.670   1.541   2.939  0.0641  0.4780 -0.4776
   34MOL   C160 8146   2.820   1.549   2.964 -0.4883  0.0833 -0.0561
   34MOL   C161 8147   2.619   1.426   2.854 -0.3567 -0.1066  0.0968
   34MOL   C162 8148   2.658   1.285   2.913  0.5797  0.0738  0.0316
   34MOL   O163 8149   2.572   1.228   2.978 -0.3382 -0.0329  0.8957
   34MOL   H164 8150   2.657   1.644   2.904  2.9245  1.0812  0.1259
   34MOL   H165 8151   2.844   1.639   3.020  2.0608 -0.3439 -0.4087
   34MOL   H166 8152   2.891   1.546   2.882  0.2383  0.3060  0.5634
   34MOL   H167 8153   2.850   1.459   3.018  0.9251  0.2897 -0.4847
   34MOL   H168 8154   2.662   1.445   2.756 -1.4439 -0.3618 -0.4359
   34MOL   H169 8155   2.511   1.421   2.844 -0.4269  2.8416 -1.0361
   34MOL   O170 8156   2.774   1.240   2.876  0.0633 -0.3108  0.0243
   34MOL   C171 8157   2.802   1.094   2.896 -0.0928 -0.1240 -0.6949
   34MOL   C172 8158   2.775   1.014   2.772 -0.3157  0.1144  0.2313
   34MOL   C173 8159   2.954   1.100   2.929 -0.0262 -0.3399 -0.0336
   34MOL   C174 8160   2.979   1.131   3.078 -0.6659 -0.2883  0.7076
   34MOL   O175 8161   2.916   1.083   3.165 -0.2067  0.3649 -0.1648
   34MOL   H176 8162   2.760   1.045   2.984  3.3159  0.1827  1.1580
   34MOL   H177 8163   2.807   0.910   2.785 -1.0291 -0.1956 -0.4776
   34MOL   H178 8164   2.825   1.052   2.683  0.0857 -0.7651  0.0689
   34MOL   H179 8165   2.667   1.007   2.758 -0.3726  0.8565  0.3133
   34MOL   H180 8166   3.009   1.183   2.885  0.1441  0.4722  1.6983
   34MOL   H181 8167   2.984   0.996   2.912 -0.1008 -0.0747 -1.9481
   34MOL   O182 8168   3.087   1.208   3.093  0.2147  0.2541 -0.2631
   34MOL   C183 8169   3.114   1.250   3.229 -0.2176  0.3416  0.7074
   34MOL   C184 8170   3.200   1.145   3.304  0.4412 -0.0245  0.2455
   34MOL   C185 8171   3.202   1.373   3.226 -0.8902  0.0033 -0.2848
   34MOL   C186 8172   3.137   1.505   3.186  0.1235  1.1736 -0.0860
   34MOL   O187 8173   3.132   1.546   3.071  0.2894 -0.9431 -0.0250
   34MOL   H188 8174   3.021   1.284   3.275 -0.9231  0.3738 -0.7255
   34MOL   H189 8175   3.217   1.187   3.404  0.9195 -1.7023  0.8834
   34MOL   H190 8176   3.291   1.118   3.251  0.1904 -1.4683  0.5388
   34MOL   H191 8177   3.141   1.054   3.318 -1.4839  0.9777 -1.1340
   34MOL   H192 8178   3.287   1.348   3.163 -0.4243  0.7316  0.0619
   34MOL   H193 8179   3.237   1.392   3.328  2.4726 -1.0984 -1.1870
   34MOL   O194 8180   3.090   1.575   3.298 -0.5279  0.1326  0.2210
   34MOL   C195 8181   2.996   1.680   3.286 -0.1417 -0.1810 -0.4683
   34MOL   C196 8182   2.921   1.695   3.420  0.1452 -0.3052  0.2824
   34MOL   C197 8183   3.064   1.812   3.251 -0.0549 -0.2562  0.3444
   34MOL   C198 8184   2.959   1.921   3.225 -0.1262  0.4519  0.3794
   34MOL   O199 8185   2.943   2.008   3.313 -0.5794 -0.0371 -0.1298
   34MOL   H200 8186   2.911   1.652   3.224 -0.9694  2.3342 -0.5508
   34MOL   H201 8187   2.834   1.761   3.414 -0.2385 -0.7917  0.4457
   34MOL   H202 8188   2.991   1.738   3.491  0.4589  0.1801 -0.3192
   34MOL   H203 8189   2.882   1.601   3.460  1.7236 -0.1170  2.3028
   34MOL   H204 8190   3.134   1.813   3.167  0.3058  3.4848  0.5840
   34MOL   H205 8191   3.107   1.854   3.342  1.0883 -1.0185  0.1637
   34MOL   O206 8192   2.890   1.912   3.116  0.6189 -0.6851  0.1271
   34MOL   C207 8193   2.780   2.005   3.091 -0.3280  0.0594  0.6617
   34MOL   C208 8194   2.800   2.043   2.940 -0.1189  0.5851  0.9943
   34MOL   C209 8195   2.650   1.930   3.127  0.6038  0.3586 -0.3313
   34MOL   C210 8196   2.521   2.011   3.122  1.4639  0.6260 -0.2499
   34MOL   O211 8197   2.517   2.120   3.063 -0.3877  0.0959 -0.3511
   34MOL   H212 8198   2.788   2.097   3.150  1.4404  0.1599  0.2923
   34MOL   H213 8199   2.724   2.118   2.922 -0.4715  0.2820  1.2308
   34MOL   H214 8200   2.776   1.965   2.868  0.4755  2.4090 -1.2412
   34MOL   H215 8201   2.899   2.087   2.927 -0.4202  1.5499  1.9662
   34MOL   H216 8202   2.654   1.889   3.228 -2.1143 -2.0838 -1.1347
   34MOL   H217 8203   2.625   1.844   3.064  0.5769  0.2396 -0.1580
   34MOL   O218 8204   2.420   1.958   3.204 -0.0497 -0.2954  0.2961
   34MOL   C219 8205   2.295   2.027   3.229 -0.1653  0.8075 -0.2592
   34MOL   C220 8206   2.190   1.977   3.130  0.0979 -0.1373  0.1672
   34MOL   C221 8207   2.256   2.005   3.372  0.4640  0.3365 -0.4757
   34MOL   C222 8208   2.342   2.064   3.483 -0.9417  0.0710 -0.3961
   34MOL   O223 8209   2.317   2.176   3.527 -0.1382 -0.2622  0.3114
   34MOL   H224 8210   2.322   2.132   3.220  0.0835  0.7755  0.1281
   34MOL   H225 8211   2.229   2.004   3.032 -1.3671  0.3613 -0.2861
   34MOL   H226 8212   2.088   2.015   3.137  0.1352 -0.0910  0.4639
   34MOL   H227 8213   2.172   1.869   3.129 -2.4194  0.2229  2.1725
   34MOL   H228 8214   2.254   1.898   3.394 -0.1151  0.2824 -0.7799
   34MOL   H229 8215   2.155   2.045   3.380  0.9316  2.0134 -2.3919
   34MOL   O230 8216   2.438   1.975   3.519  0.2590 -0.7867  0.0242
   34MOL   C231 8217   2.542   2.023   3.613  0.5714 -0.2709 -0.2272
   34MOL   C232 8218   2.528   1.944   3.745 -0.3883  0.4756 -0.1317
   34MOL   C233 8219   2.688   2.013   3.555  0.2473 -0.1112 -0.4042
   34MOL   C234 8220   2.785   2.102   3.637 -0.7943 -0.2080 -0.5309
   34MOL   O235 8221   2.837   2.061   3.738  0.0924 -0.1470  0.0600
   34MOL   H236 8222   2.525   2.127   3.639 -0.1703 -0.2847 -0.6440
   34MOL   H237 8223   2.428   1.957   3.786  0.0713  0.5823  0.9797
   34MOL   H238 8224   2.606   1.961   3.818 -0.7005 -0.9616  0.5670
   34MOL   H239 8225   2.536   1.841   3.708  0.7594  0.7392 -0.6146
   34MOL   H240 8226   2.686   2.051   3.453  0.2753  1.0939  0.0323
   34MOL   H241 8227   2.716   1.908   3.559  1.0853  0.0562 -1.7028
   34MOL   H242 8228   2.809   2.201   3.599  2.4426 -0.7637 -0.0796
   35MOL     O1 8229   1.385   5.774   5.041 -0.3497 -0.1635  0.3229
   35MOL     C2 8230   1.333   5.896   5.086 -0.2843 -0.1694  0.7041
   35MOL     C3 8231   1.447   5.991   5.118 -0.4524 -0.4642 -0.4766
   35MOL     C4 8232   1.235   5.955   4.979  0.8658 -0.1252  0.5045
   35MOL     C5 8233   1.140   6.072   5.018  0.3098  0.2238 -0.8903
   35MOL     O6 8234   1.155   6.152   5.114  0.0592  0.5661 -0.3747
   35MOL     H7 8235   1.286   5.870   5.181 -0.5542 -0.0218  0.6120
   35MOL     H8 8236   1.497   6.025   5.027 -1.8306  1.6284 -0.4903
   35MOL     H9 8237   1.523   5.940   5.177 -1.2379  0.4495  1.3466
   35MOL    H10 8238   1.421   6.086   5.166  1.7587 -0.0245 -0.0935
   35MOL    H11 8239   1.162   5.878   4.953  2.6013 -1.6622  0.0340
   35MOL    H12 8240   1.286   5.986   4.887 -0.2359 -2.2147 -0.8731
   35MOL    H13 8241   1.432   5.730   5.110 -1.0271 -3.0242 -0.9923
   35MOL    O14 8242   1.039   6.074   4.932 -0.1553  0.6147  0.6237
   35MOL    C15 8243   0.938   6.177   4.939  0.4581  0.2517  0.1609
   35MOL    C16 8244   0.969   6.275   4.825 -0.0618 -0.2055  0.3181
   35MOL    C17 8245   0.796   6.125   4.918  0.2643 -0.4895  0.1803
   35MOL    C18 8246   0.772   6.018   5.024 -0.0804  0.1067 -0.2683
   35MOL    O19 8247   0.720   6.049   5.133 -0.0632  0.3759 -0.2118
   35MOL    H20 8248   0.953   6.220   5.038  2.2844 -0.6371  0.3045
   35MOL    H21 8249   0.954   6.233   4.726  0.5562 -1.0226  0.5702
   35MOL    H22 8250   1.074   6.304   4.826 -0.7330  2.3503  0.8423
   35MOL    H23 8251   0.912   6.368   4.836 -0.7417 -0.4089 -1.3940
   35MOL    H24 8252   0.781   6.091   4.816 -1.1266  1.9566 -0.4591
   35MOL    H25 8253   0.727   6.206   4.941  0.2755 -0.4195 -0.0287
   35MOL    O26 8254   0.826   5.903   4.994  0.3132  0.5505  0.3654
   35MOL    C27 8255   0.834   5.800   5.098 -0.1951  0.1613 -0.2076
   35MOL    C28 8256   0.790   5.664   5.042 -0.0332 -0.7847 -0.1777
   35MOL    C29 8257   0.979   5.806   5.152 -0.3018  0.0654 -0.4446
   35MOL    C30 8258   0.992   5.737   5.286 -0.3326 -0.2428 -0.4241
   35MOL    O31 8259   0.896   5.690   5.347  0.0254  0.1412 -0.6094
   35MOL    H32 8260   0.761   5.816   5.177 -1.0058 -2.8004 -0.3118
   35MOL    H33 8261   0.806   5.580   5.111 -1.2795 -0.0354  1.0459
   35MOL    H34 8262   0.845   5.640   4.951 -0.8322 -0.8927 -0.6332
   35MOL    H35 8263   0.682   5.658   5.028 -0.2710  0.1413  1.1471
   35MOL    H36 8264   0.993   5.910   5.182  1.8148  0.0843 -1.4072
   35MOL    H37 8265   1.057   5.779   5.080  2.2098  2.2660  1.3656
   35MOL    O38 8266   1.113   5.751   5.342  0.4789  0.4862  0.1859
   35MOL    C39 8267   1.148   5.702   5.473  0.5782 -0.6405 -0.1621
   35MOL    C40 8268   1.244   5.587   5.452  0.5155  0.3167  0.2151
   35MOL    C41 8269   1.211   5.820   5.553  0.7294 -0.2089 -0.0397
   35MOL    C42 8270   1.105   5.932   5.589 -0.2443 -0.0083 -0.0213
   35MOL    O43 8271   1.046   5.933   5.697  0.0122  0.5249 -0.3016
   35MOL    H44 8272   1.060   5.666   5.526 -0.2991  0.2689 -0.9809
   35MOL    H45 8273   1.327   5.637   5.402 -0.2988  1.8110  0.3132
   35MOL    H46 8274   1.199   5.511   5.389 -0.4211  0.8896  0.1974
   35MOL    H47 8275   1.283   5.535   5.540 -0.2709 -0.5518  0.0577
   35MOL    H48 8276   1.284   5.870   5.489  0.7611  1.8818  1.5474
   35MOL    H49 8277   1.261   5.774   5.638 -3.3284  0.4114  2.7803
   35MOL    O50 8278   1.088   6.015   5.488  0.2034  0.4519 -0.3727
   35MOL    C51 8279   1.010   6.135   5.503 -0.2507  0.0524 -0.1284
   35MOL    C52 8280   1.110   6.238   5.449 -0.7431 -0.0439  0.1893
   35MOL    C53 8281   0.880   6.137   5.420 -0.0575  1.2087  0.4150
   35MOL    C54 8282   0.765   6.102   5.520 -0.6433  0.1274 -0.1091
   35MOL    O55 8283   0.663   6.173   5.534  0.2122  0.2032  0.3364
   35MOL    H56 8284   0.999   6.145   5.611  0.4076 -0.7498  0.0200
   35MOL    H57 8285   1.160   6.205   5.358  0.1442 -1.4049  1.1559
   35MOL    H58 8286   1.190   6.264   5.518 -0.6272  1.6996 -0.5672
   35MOL    H59 8287   1.068   6.338   5.441  2.7770  1.7011  2.2792
   35MOL    H60 8288   0.881   6.066   5.337 -0.5591  2.0679 -0.3468
   35MOL    H61 8289   0.866   6.238   5.382 -1.4355  0.3286 -1.4954
   35MOL    O62 8290   0.792   5.992   5.594 -0.1989  0.3168  0.0150
   35MOL    C63 8291   0.701   5.962   5.696 -0.3321  0.2574  0.8434
   35MOL    C64 8292   0.702   5.807   5.711  0.0509 -0.9330  0.5487
   35MOL    C65 8293   0.737   6.057   5.822  0.1326  0.6453 -0.0535
   35MOL    C66 8294   0.646   6.021   5.939  0.2363 -0.1373  0.1354
   35MOL    O67 8295   0.687   5.961   6.041 -0.4213 -0.4763  0.1841
   35MOL    H68 8296   0.600   5.989   5.664 -1.0139 -2.8032  0.3088
   35MOL    H69 8297   0.703   5.759   5.613  3.7207 -0.5467  0.3502
   35MOL    H70 8298   0.619   5.771   5.772 -1.4892 -0.6886 -1.3304
   35MOL    H71 8299   0.796   5.766   5.748  1.1846  0.6503 -0.4955
   35MOL    H72 8300   0.711   6.158   5.790  0.6591  1.2085  1.2815
   35MOL    H73 8301   0.845   6.047   5.834  0.0009 -1.3806 -0.3256
   35MOL    O74 8302   0.517   6.050   5.910 -0.5565 -0.1907 -0.0659
   35MOL    C75 8303   0.427   6.030   6.015 -0.4147  0.7973  0.0935
   35MOL    C76 8304   0.357   6.167   6.032  0.1410 -0.0481 -0.0008
   35MOL    C77 8305   0.342   5.906   6.007 -0.1735 -0.6299  0.2384
   35MOL    C78 8306   0.278   5.886   5.872  0.0284  0.0459  0.2682
   35MOL    O79 8307   0.324   5.805   5.790  0.1731 -0.0763 -0.0337
   35MOL    H80 8308   0.477   6.016   6.111  1.0704 -1.3626 -0.9393
   35MOL    H81 8309   0.291   6.169   6.119  2.8060 -2.0745  2.1511
   35MOL    H82 8310   0.300   6.194   5.943  0.5377 -2.3230 -0.9754
   35MOL    H83 8311   0.433   6.243   6.047 -1.2147  1.7364 -1.9053
   35MOL    H84 8312   0.272   5.900   6.090  1.4771 -3.9521  1.4360
   35MOL    H85 8313   0.400   5.817   6.028  1.7590  0.9115  1.5615
   35MOL    O86 8314   0.172   5.963   5.851  0.0054  0.1374 -0.6584
   35MOL    C87 8315   0.116   5.961   5.719 -0.1779 -0.3690  0.6306
   35MOL    C88 8316   7.945   5.989   5.730  0.3435  0.3637 -0.1512
   35MOL    C89 8317   0.190   6.052   5.619  0.4538 -0.4351 -0.1513
   35MOL    C90 8318   0.202   6.192   5.673  0.0033 -0.3744  0.0658
   35MOL    O91 8319   0.130   6.236   5.760 -0.4166  0.1254  0.3212
   35MOL    H92 8320   0.129   5.863   5.672  1.0078  0.1917 -0.2475
   35MOL    H93 8321   7.905   5.925   5.809  0.8022  0.0906 -0.1355
   35MOL    H94 8322   7.893   5.974   5.636 -2.3839 -0.4270  1.4445
   35MOL    H95 8323   7.908   6.086   5.764  0.4053  0.7647 -1.2216
   35MOL    H96 8324   0.139   6.055   5.523  2.4276 -0.7978 -1.2482
   35MOL    H97 8325   0.292   6.016   5.606 -1.0573 -4.7481 -0.7249
   35MOL    O98 8326   0.299   6.251   5.610 -0.2583 -0.0476 -0.7719
   35MOL    C99 8327   0.314   6.393   5.634 -0.1434 -0.8105  0.1311
   35MOL   C100 8328   0.437   6.403   5.716  0.5164  0.7603 -0.3906
   35MOL   C101 8329   0.320   6.455   5.491  0.1713 -0.6098 -0.5652
   35MOL   C102 8330   0.304   6.607   5.518  0.0319  0.2190 -0.5196
   35MOL   O103 8331   0.386   6.683   5.566  0.0615 -0.0624 -0.0568
   35MOL   H104 8332   0.244   6.443   5.701  2.0406 -0.4055  2.1684
   35MOL   H105 8333   0.458   6.508   5.736  1.9587  0.5628 -0.7889
   35MOL   H106 8334   0.524   6.362   5.663  1.5341  1.2176  0.8976
   35MOL   H107 8335   0.433   6.339   5.803  1.1290 -0.7933 -1.4792
   35MOL   H108 8336   0.244   6.428   5.418 -0.2107 -0.0036 -0.4034
   35MOL   H109 8337   0.420   6.448   5.450  0.2137 -2.1333 -0.2358
   35MOL   O110 8338   0.179   6.651   5.475 -0.4934 -0.3985  0.6249
   35MOL   C111 8339   0.157   6.794   5.464  0.1142 -0.3618  0.0821
   35MOL   C112 8340   0.060   6.818   5.342 -0.3005  0.1851  0.0526
   35MOL   C113 8341   0.131   6.868   5.600 -0.1218  0.4846 -0.1216
   35MOL   C114 8342   0.003   6.823   5.662  0.7108  0.0708 -0.6203
   35MOL   O115 8343   7.885   6.901   5.651  0.1943  0.5135  0.3649
   35MOL   H116 8344   0.253   6.832   5.432  0.3383 -1.7065 -0.8703
   35MOL   H117 8345   7.940   6.781   5.363  0.2970 -0.5969  1.5862
   35MOL   H118 8346   0.084   6.762   5.252 -2.8649 -1.8558  0.5740
   35MOL   H119 8347   0.049   6.925   5.326 -1.6876  0.3020  1.5781
   35MOL   H120 8348   0.129   6.976   5.592  1.1123  0.4709 -0.7692
   35MOL   H121 8349   0.208   6.842   5.673 -1.1322 -0.5943  0.5819
   35MOL   O122 8350   7.978   6.703   5.717 -0.0646 -0.5850  0.2874
   35MOL   C123 8351   7.868   6.645   5.793  0.0692 -0.1405 -0.6995
   35MOL   C124 8352   7.891   6.491   5.767  0.5474  0.2177 -0.3994
   35MOL   C125 8353   7.897   6.695   5.937 -0.5328  0.3685  0.1474
   35MOL   C126 8354   7.773   6.681   6.020 -0.1357 -0.3792  0.5081
   35MOL   O127 8355   7.751   6.757   6.111 -0.0485  0.1958  0.3632
   35MOL   H128 8356   7.768   6.685   5.774  0.2072  0.3606 -0.3944
   35MOL   H129 8357   7.848   6.428   5.845  1.3573 -0.5269 -0.5480
   35MOL   H130 8358   0.017   6.465   5.774 -0.3872 -3.6379  0.4192
   35MOL   H131 8359   7.846   6.455   5.674  1.1773 -0.5541 -0.4133
   35MOL   H132 8360   7.913   6.802   5.931  0.3505  0.4471  3.3029
   35MOL   H133 8361   7.976   6.637   5.984 -1.3836 -0.7611  0.2141
   35MOL   O134 8362   7.710   6.567   6.008  0.0933 -0.0025 -0.0422
   35MOL   C135 8363   7.583   6.542   6.075 -0.5852  0.9131  0.5372
   35MOL   C136 8364   7.503   6.438   5.996 -0.0431 -0.2921  0.2989
   35MOL   C137 8365   7.598   6.501   6.217 -1.0465  0.4661 -0.0331
   35MOL   C138 8366   7.474   6.463   6.295  0.2089  0.0385 -0.1195
   35MOL   O139 8367   7.378   6.537   6.300 -0.1951 -0.2667 -0.1285
   35MOL   H140 8368   7.526   6.635   6.076 -0.8978  0.7250 -0.0812
   35MOL   H141 8369   7.566   6.349   5.996 -1.0910 -1.0798 -2.2283
   35MOL   H142 8370   7.497   6.471   5.892  3.0551  0.3402  0.2738
   35MOL   H143 8371   7.403   6.426   6.037 -0.4858 -1.3778 -1.0557
   35MOL   H144 8372   7.643   6.576   6.282 -0.0098 -1.2156  1.2503
   35MOL   H145 8373   7.666   6.415   6.221 -0.2642  1.1070  0.6148
   35MOL   O146 8374   7.484   6.337   6.353  0.2808  0.1751 -0.0333
   35MOL   C147 8375   7.372   6.263   6.406 -0.8615  0.6045  0.2182
   35MOL   C148 8376   7.365   6.127   6.326  0.1541  0.2044 -0.3780
   35MOL   C149 8377   7.382   6.238   6.558 -0.8309 -0.3936 -0.1437
   35MOL   C150 8378   7.250   6.221   6.630  0.4875 -0.3043  0.3786
   35MOL   O151 8379   7.191   6.315   6.676  0.1570 -0.6227  0.2278
   35MOL   H152 8380   7.287   6.325   6.380 -0.4769  0.9354 -0.2523
   35MOL   H153 8381   7.277   6.069   6.354  0.8098 -1.1188 -1.0400
   35MOL   H154 8382   7.450   6.060   6.337  1.1330  1.3946 -0.5688
   35MOL   H155 8383   7.349   6.141   6.219 -0.1362  0.1561 -0.3422
   35MOL   H156 8384   7.433   6.323   6.603  0.8235 -1.0478 -0.7364
   35MOL   H157 8385   7.447   6.150   6.561 -0.8399 -0.3897  0.1478
   35MOL   O158 8386   7.196   6.102   6.629  0.2233 -0.2269  0.2363
   35MOL   C159 8387   7.063   6.065   6.673 -0.5450  0.8996 -0.2175
   35MOL   C160 8388   6.967   6.054   6.554  1.1510 -0.0634  0.4672
   35MOL   C161 8389   7.068   5.930   6.750 -0.9698  0.3578  0.1031
   35MOL   C162 8390   7.123   5.950   6.893 -0.7171  0.2372  0.2810
   35MOL   O163 8391   7.066   6.029   6.970 -0.1308  0.5000  0.2078
   35MOL   H164 8392   7.024   6.139   6.743 -4.0247 -0.8245 -0.1990
   35MOL   H165 8393   6.873   6.012   6.591  0.6282  1.0271  0.4044
   35MOL   H166 8394   7.005   5.985   6.479 -2.4697 -0.1436 -1.4108
   35MOL   H167 8395   6.951   6.153   6.512 -0.3698  0.3459  1.9546
   35MOL   H168 8396   7.123   5.865   6.684  0.7485  2.3043 -0.4247
   35MOL   H169 8397   6.973   5.879   6.767 -1.9347  2.2804  0.5910
   35MOL   O170 8398   7.231   5.881   6.918 -0.4878  0.1621 -0.1623
   35MOL   C171 8399   7.310   5.921   7.036  0.0731  0.6983  0.5211
   35MOL   C172 8400   7.274   5.821   7.146  0.9349 -0.3457 -0.1144
   35MOL   C173 8401   7.463   5.931   7.006  0.6003  0.4206  0.0505
   35MOL   C174 8402   7.513   6.019   6.892 -0.1154 -0.8839 -0.3755
   35MOL   O175 8403   7.446   6.080   6.813  0.4910 -0.4778 -0.2876
   35MOL   H176 8404   7.282   6.013   7.087  0.0859  0.8253  0.2984
   35MOL   H177 8405   7.316   5.837   7.246 -2.2514 -0.1595  1.2596
   35MOL   H178 8406   7.295   5.718   7.116  0.1067 -0.7211  0.5481
   35MOL   H179 8407   7.171   5.846   7.171  1.5180  2.7431 -0.6230
   35MOL   H180 8408   7.508   5.835   6.979 -0.0677  0.8878 -2.8915
   35MOL   H181 8409   7.510   5.971   7.096 -0.7884  2.2521 -0.0174
   35MOL   O182 8410   7.654   6.008   6.891  0.5816  0.1975  0.2553
   35MOL   C183 8411   7.737   6.074   6.803 -0.4887  0.0910 -0.3947
   35MOL   C184 8412   7.839   6.135   6.895 -0.3592 -0.9933 -0.7632
   35MOL   C185 8413   7.798   5.985   6.688  0.0365  0.4404 -0.5855
   35MOL   C186 8414   7.687   5.950   6.592 -0.6717 -0.2498  0.3319
   35MOL   O187 8415   7.664   6.023   6.502 -0.3588 -0.4566  0.5950
   35MOL   H188 8416   7.682   6.155   6.757  0.8598  0.4056 -1.4861
   35MOL   H189 8417   7.883   6.066   6.967  1.7633  2.1516  1.1102
   35MOL   H190 8418   7.803   6.217   6.958  1.5104 -0.8367  0.1396
   35MOL   H191 8419   7.917   6.175   6.830  0.2052 -0.0014  0.4876
   35MOL   H192 8420   7.823   5.890   6.736 -1.1564  0.0285 -0.7630
   35MOL   H193 8421   7.881   6.033   6.637  0.7185  1.3533  1.3468
   35MOL   O194 8422   7.632   5.836   6.613  0.0433 -0.1070 -0.9834
   35MOL   C195 8423   7.538   5.782   6.525 -0.8177  0.0357 -0.3438
   35MOL   C196 8424   7.576   5.636   6.505 -0.1699  1.0482  0.4983
   35MOL   C197 8425   7.399   5.828   6.567  0.6941 -0.5903  0.2567
   35MOL   C198 8426   7.280   5.759   6.500 -0.5767  0.0572  0.5274
   35MOL   O199 8427   7.222   5.820   6.414  0.6387  0.0153  0.0316
   35MOL   H200 8428   7.555   5.828   6.427  2.7208  2.0023  1.1205
   35MOL   H201 8429   7.670   5.626   6.450 -0.5030 -2.7764  0.4798
   35MOL   H202 8430   7.498   5.574   6.461  1.9425 -1.3425 -0.0056
   35MOL   H203 8431   7.582   5.606   6.610  0.9971  0.2064  0.2107
   35MOL   H204 8432   7.392   5.937   6.574  0.2540 -0.5832 -0.2683
   35MOL   H205 8433   7.380   5.809   6.673 -3.1489  0.8190 -0.1196
   35MOL   O206 8434   7.259   5.636   6.547  0.1077 -0.3413 -0.1343
   35MOL   C207 8435   7.146   5.560   6.500 -0.3857 -0.0705 -0.1678
   35MOL   C208 8436   7.195   5.413   6.506  0.0219 -0.0799  0.7655
   35MOL   C209 8437   7.013   5.595   6.569 -0.7064  0.0924  0.7969
   35MOL   C210 8438   7.010   5.555   6.721 -0.4008  0.4684 -0.1436
   35MOL   O211 8439   7.110   5.531   6.789 -0.4186 -0.1697  0.2151
   35MOL   H212 8440   7.134   5.590   6.395  0.0322  1.2256  0.1490
   35MOL   H213 8441   7.293   5.396   6.462  0.2726  4.4257 -0.6555
   35MOL   H214 8442   7.123   5.355   6.447 -0.3234 -0.1896  1.2969
   35MOL   H215 8443   7.207   5.368   6.604  3.1578 -1.1918 -0.0593
   35MOL   H216 8444   6.931   5.534   6.532 -1.2129 -0.3355  2.5596
   35MOL   H217 8445   6.986   5.700   6.569 -1.4469 -0.0939 -0.0941
   35MOL   O218 8446   6.887   5.554   6.763  0.3555  0.2261  0.2273
   35MOL   C219 8447   6.854   5.511   6.897  0.1632  0.4884 -0.2266
   35MOL   C220 8448   6.881   5.630   6.991 -0.1792  0.4981  0.1451
   35MOL   C221 8449   6.718   5.439   6.918 -0.3864 -0.1116 -0.0613
   35MOL   C222 8450   6.598   5.521   6.874  0.0172  0.5677  0.5525
   35MOL   O223 8451   6.563   5.619   6.937  0.3615 -0.5631  0.3921
   35MOL   H224 8452   6.936   5.446   6.926  0.1816 -0.2125 -1.7735
   35MOL   H225 8453   6.988   5.647   6.991 -0.2225  0.7592  0.6888
   35MOL   H226 8454   6.859   5.607   7.095  0.9691 -0.6710  0.1406
   35MOL   H227 8455   6.826   5.718   6.957  0.4185  0.7407 -0.1996
   35MOL   H228 8456   6.698   5.406   7.020  0.4127 -0.7386 -0.0988
   35MOL   H229 8457   6.725   5.360   6.843  0.6480 -0.3897  0.3111
   35MOL   O230 8458   6.522   5.456   6.790  0.3547 -0.3327  0.8339
   35MOL   C231 8459   6.412   5.516   6.729 -0.3872 -0.3915  0.0772
   35MOL   C232 8460   6.445   5.512   6.573 -0.5859  0.2813 -0.0512
   35MOL   C233 8461   6.287   5.430   6.763 -0.0179  0.2827 -0.0379
   35MOL   C234 8462   6.239   5.425   6.904 -0.0059 -0.4497  0.3929
   35MOL   O235 8463   6.119   5.437   6.928 -0.0679 -0.2713 -0.3061
   35MOL   H236 8464   6.394   5.617   6.765  0.8470 -0.0139 -0.3485
   35MOL   H237 8465   6.544   5.551   6.555 -0.0669 -0.2968  1.4465
   35MOL   H238 8466   6.374   5.570   6.513 -1.1002  0.1024  0.3758
   35MOL   H239 8467   6.429   5.411   6.536  0.8679  0.3808 -0.9737
   35MOL   H240 8468   6.315   5.326   6.742  1.4182  0.7058 -0.2255
   35MOL   H241 8469   6.199   5.468   6.711 -0.0069  0.7610  0.2975
   35MOL   H242 8470   6.318   5.404   6.977 -0.7002  1.0455  1.5821
   36MOL     O1 8471   3.516   3.971   6.509  0.3022 -0.2212 -0.2249
   36MOL     C2 8472   3.423   3.875   6.558 -0.2192  0.2236  0.2201
   36MOL     C3 8473   3.381   3.931   6.698 -0.0430 -0.0641  0.2838
   36MOL     C4 8474   3.309   3.836   6.463 -1.2848  0.4932  0.0054
   36MOL     C5 8475   3.344   3.757   6.331  0.3335 -0.1258 -0.3306
   36MOL     O6 8476   3.343   3.636   6.323  0.1380 -0.0288  0.2747
   36MOL     H7 8477   3.484   3.785   6.572  3.3995  2.8120  1.7757
   36MOL     H8 8478   3.319   3.854   6.744 -1.9336  0.7215 -0.9012
   36MOL     H9 8479   3.324   4.024   6.695  0.2498  0.0953 -0.2947
   36MOL    H10 8480   3.469   3.945   6.760  0.0067  2.1878 -0.2506
   36MOL    H11 8481   3.250   3.923   6.432 -1.3465  1.6459  3.1477
   36MOL    H12 8482   3.238   3.779   6.523 -0.3123  1.3896  2.0659
   36MOL    H13 8483   3.480   4.058   6.519  0.1113 -0.4536  1.2842
   36MOL    O14 8484   3.366   3.835   6.225  0.1403 -0.2086 -0.2559
   36MOL    C15 8485   3.387   3.781   6.092  0.8849  0.5263  0.2280
   36MOL    C16 8486   3.378   3.904   6.000  0.7233  0.6627  0.1417
   36MOL    C17 8487   3.528   3.718   6.088 -0.2020 -0.8459 -0.4971
   36MOL    C18 8488   3.560   3.645   5.964 -0.0206 -0.3808 -0.1721
   36MOL    O19 8489   3.475   3.580   5.904 -0.0423 -0.1764 -0.1718
   36MOL    H20 8490   3.313   3.704   6.070 -1.7847  3.0479  0.1740
   36MOL    H21 8491   3.401   3.879   5.897 -0.3138 -0.4569  0.1757
   36MOL    H22 8492   3.455   3.972   6.035 -0.9554  0.7308  4.0020
   36MOL    H23 8493   3.279   3.948   6.009  0.0424 -0.6781 -0.6468
   36MOL    H24 8494   3.550   3.651   6.170  1.8111  0.1273 -0.2243
   36MOL    H25 8495   3.605   3.794   6.100 -0.7615 -0.2086 -0.8284
   36MOL    O26 8496   3.683   3.667   5.924 -0.3446 -0.4401 -0.6708
   36MOL    C27 8497   3.737   3.630   5.797  0.6445  0.5272  0.6140
   36MOL    C28 8498   3.783   3.757   5.719 -0.0279  0.7090  0.3398
   36MOL    C29 8499   3.860   3.533   5.816 -0.0627 -0.2037 -0.0128
   36MOL    C30 8500   3.828   3.389   5.841  0.1047  0.1153  0.4104
   36MOL    O31 8501   3.834   3.337   5.951  0.0514 -0.0251  0.7866
   36MOL    H32 8502   3.667   3.579   5.730  1.3085  1.9960 -1.2694
   36MOL    H33 8503   3.858   3.814   5.775 -0.7428  0.2765  1.7639
   36MOL    H34 8504   3.704   3.832   5.709 -0.3152  0.1466 -1.9503
   36MOL    H35 8505   3.823   3.736   5.620 -0.9151  0.5713  0.0055
   36MOL    H36 8506   3.916   3.567   5.903 -0.8667 -1.7339  1.1183
   36MOL    H37 8507   3.927   3.540   5.730  1.3540 -0.7577  1.0148
   36MOL    O38 8508   3.786   3.326   5.733 -0.0693  0.2277  0.1065
   36MOL    C39 8509   3.780   3.185   5.736  1.4613 -0.1039  0.4079
   36MOL    C40 8510   3.635   3.152   5.781 -0.8255  0.1289 -0.2848
   36MOL    C41 8511   3.805   3.147   5.589  0.5750 -0.4022  0.4410
   36MOL    C42 8512   3.949   3.177   5.546  0.5434  0.0209  0.1583
   36MOL    O43 8513   3.977   3.256   5.455  0.1467  0.0416 -0.1269
   36MOL    H44 8514   3.851   3.140   5.805  2.0255 -0.9296 -0.6907
   36MOL    H45 8515   3.613   3.191   5.880  1.6037 -1.6978  1.0259
   36MOL    H46 8516   3.621   3.045   5.800  0.7739  0.0312  0.3908
   36MOL    H47 8517   3.548   3.193   5.729 -0.4021 -0.5296 -1.5290
   36MOL    H48 8518   3.738   3.209   5.530 -1.9968 -2.2589  1.3175
   36MOL    H49 8519   3.782   3.043   5.565 -1.0520 -0.3908  1.8794
   36MOL    O50 8520   4.038   3.123   5.627  0.4470  0.7342 -0.4697
   36MOL    C51 8521   4.180   3.141   5.616 -1.0825  0.4574  0.0397
   36MOL    C52 8522   4.225   3.274   5.662 -0.4530  0.2876  0.0228
   36MOL    C53 8523   4.244   3.019   5.680  0.2808  0.2032  0.2050
   36MOL    C54 8524   4.257   3.011   5.828 -0.4200 -0.3393  0.0486
   36MOL    O55 8525   4.371   3.001   5.886 -0.0206  0.5126  0.2096
   36MOL    H56 8526   4.212   3.120   5.514  2.7575 -0.1352  1.2834
   36MOL    H57 8527   4.330   3.280   5.632 -0.7984 -1.3030 -1.5647
   36MOL    H58 8528   4.221   3.280   5.771  3.2396 -2.7065  0.4591
   36MOL    H59 8529   4.178   3.359   5.612  0.1543 -0.2603 -1.5177
   36MOL    H60 8530   4.347   3.013   5.645 -0.4908  0.2391 -2.2312
   36MOL    H61 8531   4.208   2.921   5.649  0.3241  0.2783 -0.0911
   36MOL    O62 8532   4.142   3.022   5.896 -0.2334  0.1797 -0.1373
   36MOL    C63 8533   4.128   3.016   6.038 -0.4289 -0.1354 -0.3599
   36MOL    C64 8534   4.097   3.150   6.102  0.2340  0.1887 -0.4137
   36MOL    C65 8535   4.029   2.910   6.076  0.0486  0.1760  0.2425
   36MOL    C66 8536   4.046   2.834   6.204  0.3161 -0.1869 -0.2139
   36MOL    O67 8537   4.073   2.715   6.206  0.1771  0.2551  0.1437
   36MOL    H68 8538   4.222   2.979   6.079 -1.1849 -1.1667  0.4673
   36MOL    H69 8539   4.181   3.215   6.077 -0.4630  1.1345 -0.3255
   36MOL    H70 8540   4.086   3.154   6.211  0.7135 -0.9037 -0.3202
   36MOL    H71 8541   4.001   3.190   6.069 -1.2385 -2.3138  0.7111
   36MOL    H72 8542   4.030   2.841   5.992 -0.2001  0.4805 -0.0130
   36MOL    H73 8543   3.927   2.947   6.079  0.1109  0.2476  1.3504
   36MOL    O74 8544   4.011   2.900   6.310 -0.4624 -0.0974 -0.5766
   36MOL    C75 8545   3.995   2.850   6.441  0.3844 -0.1587  0.7963
   36MOL    C76 8546   3.935   2.962   6.522 -0.0527 -0.8671 -0.2929
   36MOL    C77 8547   3.906   2.729   6.440  1.0178  0.2260  0.3145
   36MOL    C78 8548   3.756   2.741   6.403  0.6570  0.1561 -0.2300
   36MOL    O79 8549   3.661   2.720   6.474  0.3108  0.5165  0.0603
   36MOL    H80 8550   4.092   2.816   6.477  0.4490  1.3450  2.0490
   36MOL    H81 8551   3.915   2.938   6.626 -0.2285 -2.8088 -0.7633
   36MOL    H82 8552   3.841   2.993   6.477  1.6458  1.8078 -2.1373
   36MOL    H83 8553   4.004   3.047   6.523 -0.9132 -0.1558  2.0449
   36MOL    H84 8554   3.914   2.681   6.538  3.3353 -3.6803 -1.6383
   36MOL    H85 8555   3.955   2.650   6.383 -0.4692  0.4911 -1.3505
   36MOL    O86 8556   3.739   2.802   6.281 -0.5594 -0.2076  0.0171
   36MOL    C87 8557   3.608   2.834   6.227  0.4533 -0.4224 -0.4937
   36MOL    C88 8558   3.636   2.972   6.181  0.1969  0.1957  0.6158
   36MOL    C89 8559   3.561   2.722   6.141 -0.4145  0.1076 -0.2201
   36MOL    C90 8560   3.436   2.755   6.055  0.2052  0.0817  0.0178
   36MOL    O91 8561   3.441   2.835   5.964  0.4340  0.0488  0.7142
   36MOL    H92 8562   3.541   2.842   6.313  0.4170 -0.6436 -0.4999
   36MOL    H93 8563   3.542   3.006   6.136 -0.7386 -0.8116  1.7777
   36MOL    H94 8564   3.707   2.972   6.099 -0.8382  0.1106 -0.2902
   36MOL    H95 8565   3.680   3.040   6.255  1.0455  0.5620 -0.2143
   36MOL    H96 8566   3.540   2.639   6.208 -2.4654  1.0470  0.3438
   36MOL    H97 8567   3.636   2.692   6.068  1.0447  4.1718 -0.5013
   36MOL    O98 8568   3.329   2.686   6.100 -0.3383  0.6897  0.0910
   36MOL    C99 8569   3.208   2.662   6.021 -0.4921  0.4131 -0.3129
   36MOL   C100 8570   3.190   2.510   5.981 -0.2831  0.0495  0.3407
   36MOL   C101 8571   3.081   2.724   6.098  0.4053  1.0429 -0.8276
   36MOL   C102 8572   3.058   2.870   6.091  0.3085  0.2157  0.5077
   36MOL   O103 8573   2.949   2.920   6.064  0.2270  0.2231  1.3682
   36MOL   H104 8574   3.214   2.715   5.926  1.5717 -0.0627 -0.4696
   36MOL   H105 8575   3.151   2.449   6.062 -2.4247 -0.8170 -1.3018
   36MOL   H106 8576   3.279   2.455   5.949 -1.0111 -0.6421 -0.5331
   36MOL   H107 8577   3.119   2.504   5.899 -0.5842  0.6654  0.5508
   36MOL   H108 8578   3.095   2.696   6.203  0.6229  0.3885 -1.0269
   36MOL   H109 8579   2.992   2.674   6.059  0.6149 -0.2455  0.2756
   36MOL   O110 8580   3.177   2.933   6.110 -0.1224 -0.4771 -0.0586
   36MOL   C111 8581   3.175   3.077   6.103 -0.8589  0.9296 -0.5669
   36MOL   C112 8582   3.246   3.115   6.225  0.3147  0.0172  0.2616
   36MOL   C113 8583   3.242   3.127   5.969 -1.0105 -0.1750 -0.3513
   36MOL   C114 8584   3.150   3.106   5.849 -0.6555  0.4161  0.1162
   36MOL   O115 8585   3.085   3.196   5.803 -0.0260 -0.0222 -0.1605
   36MOL   H116 8586   3.075   3.116   6.122 -0.9431 -0.0546  1.1622
   36MOL   H117 8587   3.337   3.057   6.242 -0.0456 -0.1219  1.8253
   36MOL   H118 8588   3.182   3.090   6.309 -1.6172 -0.6674 -1.3756
   36MOL   H119 8589   3.265   3.222   6.228 -1.4714  0.3000  1.5628
   36MOL   H120 8590   3.337   3.076   5.954 -1.5895 -1.2041 -0.6235
   36MOL   H121 8591   3.256   3.235   5.972 -2.5188  0.0230 -0.0625
   36MOL   O122 8592   3.171   2.983   5.795 -0.3631  0.3722 -0.6302
   36MOL   C123 8593   3.134   2.956   5.661  0.2003 -0.2877 -0.3832
   36MOL   C124 8594   3.257   2.980   5.573  0.8716 -0.2174 -0.1084
   36MOL   C125 8595   3.097   2.805   5.657 -1.1622  0.0645  0.0968
   36MOL   C126 8596   2.965   2.767   5.726 -0.8272 -0.4631 -0.3674
   36MOL   O127 8597   2.956   2.673   5.802 -0.0181  0.2457  0.0924
   36MOL   H128 8598   3.059   3.028   5.628 -0.0634 -0.3499  0.0701
   36MOL   H129 8599   3.263   2.918   5.483 -0.8762  1.4126 -1.3683
   36MOL   H130 8600   3.354   2.966   5.619  1.0773 -0.2180 -0.5359
   36MOL   H131 8601   3.273   3.082   5.540  1.6266 -0.3895 -0.2942
   36MOL   H132 8602   3.179   2.744   5.695 -0.6375  0.0790 -1.0204
   36MOL   H133 8603   3.068   2.786   5.554 -3.4128 -1.6369  1.0209
   36MOL   O134 8604   2.870   2.857   5.703 -0.4907 -1.0270 -0.3058
   36MOL   C135 8605   2.744   2.853   5.772 -0.4229  0.3244 -0.1765
   36MOL   C136 8606   2.718   2.996   5.839  0.1790  0.4877  0.0612
   36MOL   C137 8607   2.642   2.830   5.661  0.2231  0.0840  0.3816
   36MOL   C138 8608   2.526   2.741   5.706 -0.1313  0.0936 -0.2732
   36MOL   O139 8609   2.531   2.620   5.683  0.2583  0.0764  0.3312
   36MOL   H140 8610   2.740   2.769   5.841 -3.0134  0.0479 -0.5952
   36MOL   H141 8611   2.628   3.006   5.899 -1.6778  1.2131 -2.7526
   36MOL   H142 8612   2.722   3.070   5.759 -0.3414 -1.0425 -1.4109
   36MOL   H143 8613   2.800   3.033   5.901 -0.6313  0.6349  1.0606
   36MOL   H144 8614   2.695   2.798   5.572 -1.6731 -2.3179  0.0717
   36MOL   H145 8615   2.599   2.929   5.643 -1.2380 -0.6656 -0.3799
   36MOL   O146 8616   2.425   2.806   5.768 -0.3088 -0.6332 -0.5031
   36MOL   C147 8617   2.304   2.729   5.791 -0.6295  0.4757 -0.2341
   36MOL   C148 8618   2.305   2.696   5.940 -0.2892 -0.2948  0.1939
   36MOL   C149 8619   2.182   2.813   5.749 -0.5787  0.1195 -0.3954
   36MOL   C150 8620   2.164   2.825   5.602  0.2367  0.2685 -0.8064
   36MOL   O151 8621   2.051   2.845   5.552  0.3423 -0.0132  0.6189
   36MOL   H152 8622   2.314   2.635   5.737  4.6538 -1.5591  3.9149
   36MOL   H153 8623   2.401   2.652   5.969 -0.4887 -0.7116  0.2301
   36MOL   H154 8624   2.218   2.636   5.965  0.1348 -0.9385  0.1346
   36MOL   H155 8625   2.299   2.794   5.986 -0.8984 -0.7825  1.1750
   36MOL   H156 8626   2.209   2.910   5.790 -1.7960  1.2245 -2.1547
   36MOL   H157 8627   2.092   2.780   5.801  0.5783 -0.3489  1.3730
   36MOL   O158 8628   2.285   2.842   5.535  0.7623 -0.1617  0.7346
   36MOL   C159 8629   2.287   2.875   5.390 -0.3012 -0.5316  0.5362
   36MOL   C160 8630   2.326   3.018   5.376 -0.0514 -0.5983  0.3227
   36MOL   C161 8631   2.375   2.772   5.322 -0.6351 -0.9184 -0.1952
   36MOL   C162 8632   2.309   2.631   5.316 -0.2081  0.7744 -0.4364
   36MOL   O163 8633   2.252   2.591   5.213 -0.1726  0.0685 -0.3518
   36MOL   H164 8634   2.185   2.877   5.351 -0.1104 -0.4512  0.0361
   36MOL   H165 8635   2.336   3.040   5.270  0.3629  0.5193  0.5887
   36MOL   H166 8636   2.426   3.037   5.416  1.4106  2.2180 -4.3007
   36MOL   H167 8637   2.260   3.087   5.428 -0.2704 -0.4224 -0.1865
   36MOL   H168 8638   2.481   2.768   5.348 -0.0637 -3.9241 -2.6839
   36MOL   H169 8639   2.387   2.822   5.226  0.3007 -1.6149 -0.4590
   36MOL   O170 8640   2.340   2.563   5.424  0.1169  0.4937  0.4866
   36MOL   C171 8641   2.303   2.423   5.439  0.0672 -0.1518  1.0738
   36MOL   C172 8642   2.433   2.338   5.449 -0.4790 -0.5448 -0.0665
   36MOL   C173 8643   2.206   2.399   5.555 -0.1204 -0.2228  0.2847
   36MOL   C174 8644   2.066   2.457   5.526 -0.3154 -0.1082  0.1968
   36MOL   O175 8645   2.019   2.533   5.605  0.1588 -0.1069  0.0059
   36MOL   H176 8646   2.246   2.393   5.352 -1.3952  0.7510  1.7024
   36MOL   H177 8647   2.496   2.374   5.531 -1.8016  0.1372  0.6633
   36MOL   H178 8648   2.495   2.334   5.360 -0.7806 -2.0804 -0.2203
   36MOL   H179 8649   2.402   2.238   5.480 -0.1042 -0.5375  0.3497
   36MOL   H180 8650   2.244   2.441   5.648 -0.3106 -1.0846  0.7564
   36MOL   H181 8651   2.184   2.293   5.566  0.9639 -0.3863  0.9636
   36MOL   O182 8652   2.015   2.421   5.403  0.2879 -0.6599  0.4044
   36MOL   C183 8653   1.884   2.472   5.355 -0.6375  0.7755 -0.5603
   36MOL   C184 8654   1.895   2.624   5.323  0.6456  0.3161 -0.6401
   36MOL   C185 8655   1.829   2.400   5.222  0.9031  0.0427 -0.0835
   36MOL   C186 8656   1.808   2.245   5.241 -1.0578  0.3620 -0.3079
   36MOL   O187 8657   1.735   2.175   5.171  0.1869 -0.0348  0.1407
   36MOL   H188 8658   1.812   2.464   5.436  1.2064  0.0311  1.0452
   36MOL   H189 8659   1.801   2.657   5.278 -0.1445 -1.2262 -0.1592
   36MOL   H190 8660   1.981   2.632   5.258  0.3339 -0.4412 -1.1628
   36MOL   H191 8661   1.921   2.669   5.418  0.7215 -0.1754 -0.4246
   36MOL   H192 8662   1.874   2.442   5.131 -0.0439  2.1550  0.4035
   36MOL   H193 8663   1.730   2.445   5.215  0.8073  0.1039  1.4989
   36MOL   O194 8664   1.914   2.190   5.320  0.2746  0.0826  0.2847
   36MOL   C195 8665   1.911   2.053   5.363 -0.7055  0.2294 -0.1619
   36MOL   C196 8666   1.977   1.967   5.249  0.2595  0.0684  0.0100
   36MOL   C197 8667   1.978   2.034   5.502  0.3945 -0.6386  0.7984
   36MOL   C198 8668   1.886   2.093   5.610 -0.2418 -0.3614 -0.5604
   36MOL   O199 8669   1.796   2.171   5.591  0.1297 -0.3700 -0.1253
   36MOL   H200 8670   1.808   2.018   5.364 -0.3398 -0.8353  1.5377
   36MOL   H201 8671   1.921   1.971   5.156  1.1707  0.3643 -0.5330
   36MOL   H202 8672   1.988   1.859   5.264  2.6708  0.1262 -1.1352
   36MOL   H203 8673   2.074   2.008   5.222  1.5647 -2.2585  1.0254
   36MOL   H204 8674   2.069   2.095   5.505  0.8301 -1.2042 -0.5075
   36MOL   H205 8675   2.000   1.929   5.525  0.9072 -1.1175 -1.6878
   36MOL   O206 8676   1.924   2.049   5.742  0.5085 -0.5568 -0.1830
   36MOL   C207 8677   1.865   2.104   5.858  0.1430 -0.7410  0.1272
   36MOL   C208 8678   1.890   1.999   5.970  0.1753  0.0788  0.0465
   36MOL   C209 8679   1.915   2.248   5.889 -0.3478  0.1190  0.1902
   36MOL   C210 8680   2.052   2.261   5.963  0.1700  0.1365 -0.0318
   36MOL   O211 8681   2.058   2.287   6.083  0.0691 -0.5246  0.0526
   36MOL   H212 8682   1.757   2.110   5.842  0.5973  0.0823 -2.8263
   36MOL   H213 8683   1.844   1.903   5.944  1.0324 -0.7280  1.3961
   36MOL   H214 8684   1.859   2.029   6.070 -1.3152 -0.5565 -0.2064
   36MOL   H215 8685   1.996   1.976   5.982 -0.1424 -0.7564  1.3888
   36MOL   H216 8686   1.843   2.306   5.947  0.1353 -0.7127  1.6438
   36MOL   H217 8687   1.908   2.307   5.798  0.7417  0.2936  0.2127
   36MOL   O218 8688   2.159   2.223   5.889 -0.0102 -0.6028 -0.4511
   36MOL   C219 8689   2.282   2.189   5.951 -0.8818  0.5488  1.1870
   36MOL   C220 8690   2.273   2.042   6.000  0.0940 -0.3991  0.1573
   36MOL   C221 8691   2.390   2.229   5.845 -0.0262 -0.3751 -0.8112
   36MOL   C222 8692   2.529   2.239   5.910  0.7412  1.0170  0.1000
   36MOL   O223 8693   2.600   2.137   5.928  0.2738 -0.5167 -0.3850
   36MOL   H224 8694   2.295   2.263   6.030 -0.0313  0.9320  0.6941
   36MOL   H225 8695   2.230   1.987   5.915  1.2820 -1.0950 -0.0005
   36MOL   H226 8696   2.200   2.026   6.079 -0.6446  1.6169 -0.0933
   36MOL   H227 8697   2.370   1.999   6.023  0.3772 -0.5056 -1.1888
   36MOL   H228 8698   2.376   2.327   5.798 -0.4367 -0.0103  0.0778
   36MOL   H229 8699   2.403   2.153   5.767 -1.2169 -1.4270  0.0157
   36MOL   O230 8700   2.556   2.363   5.940 -0.8674  0.0938  0.2516
   36MOL   C231 8701   2.678   2.397   6.009  0.5760  0.1094  1.1921
   36MOL   C232 8702   2.802   2.390   5.916 -0.1710  0.3956  0.1568
   36MOL   C233 8703   2.664   2.540   6.074 -0.4385 -0.7180  0.1346
   36MOL   C234 8704   2.777   2.582   6.174 -0.7472 -0.2557 -0.5240
   36MOL   O235 8705   2.870   2.503   6.219  0.0009 -0.2070 -0.1146
   36MOL   H236 8706   2.680   2.321   6.087 -3.7661 -2.4793 -0.9952
   36MOL   H237 8707   2.776   2.442   5.824  1.3421 -1.2060 -1.2191
   36MOL   H238 8708   2.829   2.287   5.891  0.8183  0.7968 -0.4436
   36MOL   H239 8709   2.890   2.437   5.959 -0.9137  1.9218  0.0460
   36MOL   H240 8710   2.575   2.529   6.137  0.7685 -1.8441  1.6667
   36MOL   H241 8711   2.628   2.622   6.012 -1.1742 -0.4355  0.9301
   36MOL   H242 8712   2.765   2.686   6.205  3.6457  0.2199 -0.0752
   37MOL     O1 8713   3.757   4.972   3.586  0.2457 -0.1918 -0.4490
   37MOL     C2 8714   3.704   4.861   3.655  0.3848  0.4809  0.0402
   37MOL     C3 8715   3.787   4.832   3.783  0.5846  0.4576  0.5714
   37MOL     C4 8716   3.549   4.878   3.683  0.2495  0.4986  0.7547
   37MOL     C5 8717   3.481   4.798   3.795 -0.0922 -0.1244  0.7097
   37MOL     O6 8718   3.467   4.677   3.782  0.9429 -0.4545 -0.9512
   37MOL     H7 8719   3.731   4.775   3.592  2.8894 -0.9034  2.8764
   37MOL     H8 8720   3.789   4.919   3.848 -2.0491 -0.0921  1.4498
   37MOL     H9 8721   3.894   4.813   3.766  0.5359 -0.0632  0.8451
   37MOL    H10 8722   3.743   4.748   3.837  2.1480  0.7386  2.3599
   37MOL    H11 8723   3.491   4.867   3.592  0.8646 -0.3773  0.4683
   37MOL    H12 8724   3.522   4.975   3.725 -0.0219 -0.5504  3.1045
   37MOL    H13 8725   3.752   5.044   3.646  0.4462 -0.6461  0.1163
   37MOL    O14 8726   3.441   4.872   3.903  0.5169 -0.0603  0.4143
   37MOL    C15 8727   3.393   4.800   4.016 -0.1842  0.3561 -0.4153
   37MOL    C16 8728   3.431   4.865   4.152  0.1771 -0.3674 -0.1329
   37MOL    C17 8729   3.245   4.753   4.001 -0.0307  0.2771 -1.3702
   37MOL    C18 8730   3.136   4.860   4.013 -0.5911 -0.1609 -0.2825
   37MOL    O19 8731   3.124   4.958   3.936  0.3798 -0.1810 -0.3040
   37MOL    H20 8732   3.459   4.713   4.012 -0.1712  0.2572  1.2878
   37MOL    H21 8733   3.539   4.884   4.150  0.1516  0.3382  2.7183
   37MOL    H22 8734   3.404   4.799   4.235 -1.3436  0.0217 -0.3112
   37MOL    H23 8735   3.390   4.964   4.171 -0.5230 -0.6842  0.0130
   37MOL    H24 8736   3.223   4.670   4.067 -0.0983  2.2334  1.1295
   37MOL    H25 8737   3.221   4.717   3.901 -1.6989  0.4863 -1.0492
   37MOL    O26 8738   3.054   4.831   4.111  0.3029  0.0641 -0.2878
   37MOL    C27 8739   2.960   4.930   4.147  0.6509  0.3916  0.9033
   37MOL    C28 8740   2.838   4.924   4.051  0.6511  0.4555 -0.2095
   37MOL    C29 8741   2.914   4.928   4.292 -0.0381 -0.3482  0.1428
   37MOL    C30 8742   3.019   4.985   4.386  0.1269  0.1115 -0.0583
   37MOL    O31 8743   3.095   4.918   4.455  0.1593  0.1501  0.1362
   37MOL    H32 8744   3.014   5.023   4.132 -1.2706  1.4522  0.3719
   37MOL    H33 8745   2.866   4.979   3.961 -0.9825  0.4070 -0.7669
   37MOL    H34 8746   2.758   4.983   4.095  0.3966  0.6015 -0.8635
   37MOL    H35 8747   2.802   4.824   4.028 -0.3548  1.0098 -1.0680
   37MOL    H36 8748   2.883   4.829   4.324 -0.2335 -0.3304  0.0094
   37MOL    H37 8749   2.828   4.993   4.307  1.6252  1.4916  2.2373
   37MOL    O38 8750   3.031   5.118   4.378 -0.4531 -0.1406 -0.5897
   37MOL    C39 8751   3.108   5.196   4.465  0.6183  0.1339 -1.0887
   37MOL    C40 8752   3.249   5.224   4.418  0.1900  0.3045  0.0318
   37MOL    C41 8753   3.039   5.321   4.497 -0.2465 -0.5317  0.5813
   37MOL    C42 8754   3.066   5.373   4.640 -0.2539 -0.1983 -0.5408
   37MOL    O43 8755   2.988   5.446   4.703 -0.0625 -0.3867  0.4006
   37MOL    H44 8756   3.106   5.136   4.557 -1.5138 -1.4290 -2.1032
   37MOL    H45 8757   3.303   5.131   4.400  2.3106  1.5775 -0.4224
   37MOL    H46 8758   3.316   5.281   4.483 -2.0819  0.7262  2.0662
   37MOL    H47 8759   3.249   5.294   4.334 -0.8266  1.2068  0.7740
   37MOL    H48 8760   2.931   5.314   4.489 -0.0996 -1.7332 -0.5064
   37MOL    H49 8761   3.072   5.400   4.430  1.5661 -0.7403  1.2081
   37MOL    O50 8762   3.194   5.337   4.691 -0.3283 -0.6089 -0.0920
   37MOL    C51 8763   3.223   5.373   4.825 -0.7390 -0.7388 -0.0230
   37MOL    C52 8764   3.156   5.263   4.914  0.7768  0.5374  0.0340
   37MOL    C53 8765   3.375   5.367   4.855 -0.8607  0.3258 -0.0517
   37MOL    C54 8766   3.463   5.461   4.774 -0.0916 -0.2423  0.0886
   37MOL    O55 8767   3.488   5.570   4.822  0.0826  0.8042 -0.2116
   37MOL    H56 8768   3.192   5.472   4.859 -0.5961 -0.3093 -1.1225
   37MOL    H57 8769   3.189   5.160   4.898 -1.7987 -0.2938 -0.1577
   37MOL    H58 8770   3.049   5.267   4.895  1.2107 -1.4480 -3.2235
   37MOL    H59 8771   3.170   5.289   5.019  1.1776  0.1890  0.0702
   37MOL    H60 8772   3.402   5.265   4.828 -1.5815  0.4533 -1.2517
   37MOL    H61 8773   3.407   5.384   4.958 -0.2960 -0.3282 -0.1097
   37MOL    O62 8774   3.516   5.407   4.659  0.3707 -0.3468  0.4897
   37MOL    C63 8775   3.610   5.476   4.581 -0.1027 -0.1820  0.8795
   37MOL    C64 8776   3.739   5.396   4.589  0.4134 -0.0294  0.0800
   37MOL    C65 8777   3.558   5.489   4.439 -0.4020 -0.4446 -0.5320
   37MOL    C66 8778   3.494   5.621   4.410 -0.1070  0.0708 -0.3438
   37MOL    O67 8779   3.564   5.718   4.379  0.6869 -0.3223 -0.4321
   37MOL    H68 8780   3.617   5.579   4.615 -3.0288  0.1418  0.6093
   37MOL    H69 8781   3.722   5.291   4.564 -2.9624  0.8667 -1.7262
   37MOL    H70 8782   3.774   5.400   4.692  2.1276 -2.4336 -0.3635
   37MOL    H71 8783   3.822   5.431   4.528 -0.1115 -0.5558 -0.9672
   37MOL    H72 8784   3.483   5.416   4.407  0.3666 -1.3213 -0.3503
   37MOL    H73 8785   3.645   5.491   4.373 -0.1089 -2.0441 -0.2163
   37MOL    O74 8786   3.369   5.615   4.415  0.8466 -0.0347  0.2769
   37MOL    C75 8787   3.285   5.717   4.365 -0.2657 -0.9454  0.0428
   37MOL    C76 8788   3.250   5.695   4.221  0.6574  0.4595 -0.2809
   37MOL    C77 8789   3.153   5.715   4.447  0.3049  0.7746 -0.6974
   37MOL    C78 8790   3.049   5.823   4.409  0.6119  0.4838  0.0328
   37MOL    O79 8791   3.074   5.941   4.382  0.0421 -0.3725  0.4637
   37MOL    H80 8792   3.332   5.814   4.378 -1.4113 -0.6258  2.0276
   37MOL    H81 8793   3.336   5.679   4.156  0.0117 -2.8798 -0.4296
   37MOL    H82 8794   3.199   5.780   4.178  0.3968  0.5941  0.3013
   37MOL    H83 8795   3.185   5.609   4.204  0.4132  0.4005  0.8912
   37MOL    H84 8796   3.167   5.710   4.555 -3.3786 -1.0771 -0.2138
   37MOL    H85 8797   3.093   5.626   4.428 -0.5639  1.3614 -0.7389
   37MOL    O86 8798   2.925   5.776   4.398 -0.1371  0.1498 -0.1304
   37MOL    C87 8799   2.824   5.860   4.344 -0.0621 -0.4630 -0.5490
   37MOL    C88 8800   2.736   5.778   4.255 -0.1395 -0.1543 -0.0812
   37MOL    C89 8801   2.752   5.932   4.450  0.8749 -0.1318 -0.5234
   37MOL    C90 8802   2.693   6.071   4.409 -0.0425  0.0693  0.0102
   37MOL    O91 8803   2.601   6.077   4.329 -0.2807 -0.3287  0.0822
   37MOL    H92 8804   2.868   5.931   4.274 -3.2754 -0.1263 -2.3291
   37MOL    H93 8805   2.638   5.826   4.252  0.0005  0.3050  1.8049
   37MOL    H94 8806   2.718   5.683   4.305 -2.5932  0.8508  1.0331
   37MOL    H95 8807   2.770   5.767   4.152 -2.4098  1.4687 -1.0667
   37MOL    H96 8808   2.812   5.950   4.539 -0.2554  2.3205 -0.2285
   37MOL    H97 8809   2.676   5.875   4.503 -0.1980  0.1993 -1.6854
   37MOL    O98 8810   2.757   6.175   4.466 -0.6160 -0.6841  0.0467
   37MOL    C99 8811   2.730   6.300   4.418 -0.1688 -0.0410 -0.5296
   37MOL   C100 8812   2.685   6.396   4.522  0.5179 -0.5537 -0.3453
   37MOL   C101 8813   2.856   6.345   4.342  0.2148  0.6245 -0.2818
   37MOL   C102 8814   2.975   6.382   4.428  0.6211 -0.5881 -0.2401
   37MOL   O103 8815   3.081   6.317   4.436 -0.6324 -0.0773  0.1807
   37MOL   H104 8816   2.663   6.301   4.332 -0.2950 -0.2292 -0.4337
   37MOL   H105 8817   2.586   6.366   4.556 -0.1257  0.8394 -0.9248
   37MOL   H106 8818   2.671   6.496   4.481 -0.9309 -0.7995 -0.5001
   37MOL   H107 8819   2.751   6.412   4.607  0.0455 -1.2138  0.1517
   37MOL   H108 8820   2.823   6.434   4.289 -3.5657 -1.9199 -2.4416
   37MOL   H109 8821   2.888   6.279   4.262 -0.5745  0.1391 -0.2032
   37MOL   O110 8822   2.948   6.498   4.501  0.1613 -0.5651 -0.7754
   37MOL   C111 8823   3.045   6.573   4.569  0.2771  0.3658 -0.4692
   37MOL   C112 8824   3.137   6.663   4.480  0.6524 -0.2403 -0.2037
   37MOL   C113 8825   2.973   6.638   4.693  0.4078 -0.1455 -0.2952
   37MOL   C114 8826   2.875   6.748   4.652  0.0222 -0.0020 -0.2461
   37MOL   O115 8827   2.754   6.721   4.643 -0.0758 -0.4508 -0.4160
   37MOL   H116 8828   3.114   6.504   4.618 -1.9383 -1.9422 -0.4972
   37MOL   H117 8829   3.212   6.707   4.545  1.5788 -2.0099 -0.0287
   37MOL   H118 8830   3.085   6.746   4.433 -0.6739 -1.1013 -0.2755
   37MOL   H119 8831   3.182   6.607   4.398 -0.1207 -0.6256 -0.3713
   37MOL   H120 8832   3.049   6.678   4.761 -1.1525  1.1533  0.7372
   37MOL   H121 8833   2.929   6.556   4.751 -1.0987  1.6418  1.1419
   37MOL   O122 8834   2.933   6.871   4.649  1.0380  0.2471  0.4649
   37MOL   C123 8835   2.841   6.984   4.641  0.2932  0.4406 -0.5317
   37MOL   C124 8836   2.908   7.082   4.734 -0.2180 -0.5205  0.3641
   37MOL   C125 8837   2.812   7.028   4.495 -0.4834 -0.8202  0.6461
   37MOL   C126 8838   2.699   7.131   4.485 -0.0215 -0.1109 -0.1471
   37MOL   O127 8839   2.703   7.225   4.406 -0.3427 -0.3371 -0.7500
   37MOL   H128 8840   2.755   6.962   4.706  0.9884  0.3912  0.3835
   37MOL   H129 8841   2.839   7.165   4.745 -2.4768 -2.3269  0.2723
   37MOL   H130 8842   3.000   7.126   4.695  0.2156 -1.8976 -0.1998
   37MOL   H131 8843   2.932   7.044   4.833  0.0118  1.0047  0.8982
   37MOL   H132 8844   2.786   6.939   4.438 -2.1866  0.8250 -1.2216
   37MOL   H133 8845   2.910   7.055   4.454 -0.7152 -0.2704  0.4498
   37MOL   O134 8846   2.600   7.106   4.571  0.2184 -0.2654 -0.2788
   37MOL   C135 8847   2.501   7.199   4.589 -0.7160  0.1145 -0.0803
   37MOL   C136 8848   2.375   7.116   4.574  0.0269 -0.2174 -0.4523
   37MOL   C137 8849   2.524   7.278   4.724 -0.1464  0.2575  0.5951
   37MOL   C138 8850   2.459   7.412   4.720 -0.2154 -1.1168 -0.6936
   37MOL   O139 8851   2.374   7.448   4.639 -0.4768 -0.2096 -0.2486
   37MOL   H140 8852   2.505   7.276   4.512 -0.0746  0.4700  0.2999
   37MOL   H141 8853   2.357   7.059   4.665  0.3657  1.5997  0.7982
   37MOL   H142 8854   2.367   7.056   4.484  0.7740  0.6871 -1.1396
   37MOL   H143 8855   2.288   7.181   4.569 -0.2306 -0.6296 -1.3161
   37MOL   H144 8856   2.628   7.310   4.736  0.6574 -1.1974 -2.2103
   37MOL   H145 8857   2.486   7.222   4.809 -0.7038 -0.7404 -0.3091
   37MOL   O146 8858   2.494   7.482   4.827  0.0508  0.0995  0.1553
   37MOL   C147 8859   2.424   7.600   4.868  0.1194 -0.8564  0.3592
   37MOL   C148 8860   2.304   7.559   4.950 -0.3257  0.2032  0.2658
   37MOL   C149 8861   2.519   7.710   4.934 -0.5462  0.0103  0.3482
   37MOL   C150 8862   2.578   7.814   4.841  0.0750  0.7884  0.0040
   37MOL   O151 8863   2.500   7.891   4.784  0.3844  0.6373  0.0126
   37MOL   H152 8864   2.380   7.653   4.784  1.3085  1.7857  1.3237
   37MOL   H153 8865   2.250   7.647   4.984 -0.8879 -0.0579  0.0508
   37MOL   H154 8866   2.338   7.504   5.038 -0.4601  1.5429  1.1697
   37MOL   H155 8867   2.230   7.499   4.896  0.0503 -0.7814  0.8182
   37MOL   H156 8868   2.598   7.655   4.985 -0.6820  1.9510  2.7461
   37MOL   H157 8869   2.463   7.756   5.016 -0.8547 -1.7810  1.1837
   37MOL   O158 8870   2.714   7.804   4.837 -0.3735  0.2303  0.0475
   37MOL   C159 8871   2.770   7.870   4.727  0.0738 -0.4798 -0.4471
   37MOL   C160 8872   2.823   0.024   4.785  0.6305  0.0394 -0.3694
   37MOL   C161 8873   2.875   7.789   4.656 -0.6241  0.3532 -0.3598
   37MOL   C162 8874   2.851   7.645   4.609 -0.2638 -0.0467 -0.3811
   37MOL   O163 8875   2.743   7.587   4.628 -0.3002  0.0295  0.0423
   37MOL   H164 8876   2.691   7.898   4.658  0.3119  2.3569  0.3470
   37MOL   H165 8877   2.740   0.083   4.824 -1.5122 -2.6175 -0.7203
   37MOL   H166 8878   2.874   0.090   4.715  1.5899  0.4013  0.6641
   37MOL   H167 8879   2.893   0.007   4.866 -0.3477 -0.0951  0.4569
   37MOL   H168 8880   2.967   7.790   4.715 -0.4686 -2.6933 -0.4682
   37MOL   H169 8881   2.908   7.840   4.566 -0.4537 -0.5530 -0.8168
   37MOL   O170 8882   2.956   7.596   4.535 -0.6594 -0.2166 -0.2901
   37MOL   C171 8883   2.951   7.464   4.486  0.1175 -0.0154 -0.5193
   37MOL   C172 8884   3.037   7.471   4.353  0.2354  0.1719  0.2041
   37MOL   C173 8885   3.020   7.372   4.587 -0.2763  0.1994  0.4736
   37MOL   C174 8886   3.157   7.416   4.634  0.3742 -0.5023 -0.2190
   37MOL   O175 8887   3.210   7.524   4.611  0.2675 -0.0341  0.3668
   37MOL   H176 8888   2.849   7.431   4.467 -0.1262 -0.0650  0.8074
   37MOL   H177 8889   2.987   7.516   4.268 -1.1543 -2.9860 -0.7072
   37MOL   H178 8890   3.064   7.369   4.325 -0.4330  0.4474 -1.4903
   37MOL   H179 8891   3.124   7.534   4.375  0.7715 -0.6967  0.6077
   37MOL   H180 8892   3.014   7.270   4.550 -1.2259  0.5405 -0.3381
   37MOL   H181 8893   2.951   7.366   4.672 -0.4169 -1.8553  0.2379
   37MOL   O182 8894   3.207   7.324   4.722 -0.3994  0.1805 -0.5978
   37MOL   C183 8895   3.322   7.360   4.805  0.1966 -0.1554  0.1532
   37MOL   C184 8896   3.274   7.366   4.946 -0.2699 -0.1150  0.3854
   37MOL   C185 8897   3.427   7.251   4.779 -0.3344  0.3925 -0.7962
   37MOL   C186 8898   3.560   7.270   4.855 -0.3712 -0.2458 -0.1880
   37MOL   O187 8899   3.666   7.311   4.805  0.2129 -0.0586 -0.0021
   37MOL   H188 8900   3.366   7.456   4.778  1.9620 -1.2061 -0.8029
   37MOL   H189 8901   3.225   7.278   4.989 -3.7639  1.8482  0.6101
   37MOL   H190 8902   3.193   7.438   4.950 -0.4194 -0.1277 -2.0088
   37MOL   H191 8903   3.347   7.402   5.019 -1.1711  2.0524  0.2582
   37MOL   H192 8904   3.463   7.262   4.676  1.2190  0.9899 -0.2023
   37MOL   H193 8905   3.391   7.151   4.799  0.4335  0.1550 -0.5765
   37MOL   O194 8906   3.550   7.229   4.984 -0.3082  0.2612  0.3688
   37MOL   C195 8907   3.664   7.222   5.075  0.1943 -0.8088  0.1593
   37MOL   C196 8908   3.605   7.265   5.212 -0.3085  0.0373  0.2922
   37MOL   C197 8909   3.724   7.076   5.068 -0.3385  0.2300 -0.7915
   37MOL   C198 8910   3.872   7.080   5.085 -0.0037  0.3127  1.2333
   37MOL   O199 8911   3.925   7.146   5.166  0.3741 -0.2156 -0.2977
   37MOL   H200 8912   3.744   7.291   5.049 -0.0309 -0.9155 -0.8687
   37MOL   H201 8913   3.651   7.223   5.301 -1.1537 -0.6308  0.4173
   37MOL   H202 8914   3.504   7.225   5.215  0.6477 -2.3585  1.9738
   37MOL   H203 8915   3.597   7.373   5.218 -1.8530 -0.0759  0.5038
   37MOL   H204 8916   3.697   7.030   4.973 -1.2537  1.7551 -1.2824
   37MOL   H205 8917   3.681   7.008   5.141  1.1854 -0.4334 -0.4935
   37MOL   O206 8918   3.940   6.998   4.992  0.4816  0.4841 -0.4559
   37MOL   C207 8919   4.081   7.020   4.978  0.5597  0.1979 -0.7798
   37MOL   C208 8920   4.153   6.928   5.078  0.5863 -0.1745 -0.6428
   37MOL   C209 8921   4.106   6.987   4.827  0.1125  0.0752 -0.4475
   37MOL   C210 8922   4.240   7.026   4.777 -0.2240 -0.5100 -0.3694
   37MOL   O211 8923   4.306   6.963   4.700 -0.4752  0.2975  0.1579
   37MOL   H212 8924   4.116   7.121   4.996 -0.6449  0.6327 -0.8469
   37MOL   H213 8925   4.134   6.822   5.066  1.1630 -0.4161  0.5067
   37MOL   H214 8926   4.128   6.955   5.181 -1.9456 -0.1677 -1.2262
   37MOL   H215 8927   4.260   6.939   5.063  0.8534 -0.2885  1.0837
   37MOL   H216 8928   4.029   7.033   4.765 -1.3672 -1.5616  0.1243
   37MOL   H217 8929   4.089   6.880   4.817 -2.4059  0.1367  2.5288
   37MOL   O218 8930   4.278   7.142   4.827 -0.1338 -0.6534 -1.0291
   37MOL   C219 8931   4.402   7.205   4.782 -0.6206 -0.1448 -0.4596
   37MOL   C220 8932   4.364   7.299   4.664 -0.1584 -0.1992  0.5031
   37MOL   C221 8933   4.482   7.261   4.903  0.6634 -0.0028 -0.4505
   37MOL   C222 8934   4.579   7.376   4.866  0.2267  0.4048  0.0996
   37MOL   O223 8935   4.565   7.489   4.913  0.0772  0.2282 -0.0414
   37MOL   H224 8936   4.473   7.137   4.736 -1.8441 -1.9417  0.2134
   37MOL   H225 8937   4.298   7.253   4.590  2.8380  2.0388 -3.7866
   37MOL   H226 8938   4.463   7.319   4.624  1.1185 -3.7886  1.6690
   37MOL   H227 8939   4.312   7.388   4.702 -0.4250  1.1320 -2.7977
   37MOL   H228 8940   4.546   7.187   4.951  0.6623 -0.1801 -0.7291
   37MOL   H229 8941   4.410   7.299   4.976  0.3979 -1.5100  0.0753
   37MOL   O230 8942   4.677   7.333   4.777 -0.1077 -0.0578  0.1232
   37MOL   C231 8943   4.768   7.426   4.727 -0.5218  0.4695 -0.1427
   37MOL   C232 8944   4.887   7.338   4.688 -0.6942  0.5836  0.1412
   37MOL   C233 8945   4.706   7.494   4.610 -0.0059  0.2578 -0.7437
   37MOL   C234 8946   4.784   7.611   4.553  0.2457  0.1474  0.5865
   37MOL   O235 8947   4.844   7.597   4.448  0.0672 -0.6776 -0.2032
   37MOL   H236 8948   4.802   7.497   4.803  1.0288 -0.3868 -0.0226
   37MOL   H237 8949   4.869   7.275   4.601  1.7885 -0.8007  0.5864
   37MOL   H238 8950   4.924   7.279   4.772 -0.4801 -0.9516 -0.9974
   37MOL   H239 8951   4.974   7.400   4.666 -1.1732  1.1075 -0.2740
   37MOL   H240 8952   4.618   7.542   4.652 -0.7902 -0.5819 -1.3999
   37MOL   H241 8953   4.687   7.411   4.542  1.3223 -0.6713 -0.0083
   37MOL   H242 8954   4.777   7.709   4.600 -1.3249  0.6346 -0.6009
   38MOL     O1 8955   4.617   5.010   1.042  0.0180  0.1560  0.3136
   38MOL     C2 8956   4.643   4.873   1.020  0.3667  0.0372  0.7055
   38MOL     C3 8957   4.764   4.877   0.922  0.3253 -0.5476  0.1968
   38MOL     C4 8958   4.677   4.793   1.149 -0.3041  0.4246  0.6758
   38MOL     C5 8959   4.627   4.645   1.143  0.4842 -0.4463 -0.1742
   38MOL     O6 8960   4.698   4.549   1.096  0.4894  0.1872 -0.2819
   38MOL     H7 8961   4.559   4.838   0.961  0.5208  2.4979 -1.0084
   38MOL     H8 8962   4.841   4.947   0.953  0.3998  0.6573 -2.5891
   38MOL     H9 8963   4.740   4.904   0.819 -1.8607  0.1790  0.8575
   38MOL    H10 8964   4.810   4.778   0.923 -0.1437 -0.7932 -1.0689
   38MOL    H11 8965   4.620   4.844   1.227 -1.1902 -0.4217  0.5902
   38MOL    H12 8966   4.783   4.786   1.174 -0.0743 -2.0931 -0.7485
   38MOL    H13 8967   4.703   5.047   1.031 -0.2642  0.2774 -1.5363
   38MOL    O14 8968   4.492   4.642   1.183  0.0434  0.0900 -0.5215
   38MOL    C15 8969   4.431   4.515   1.178  0.0512  0.2771 -0.0076
   38MOL    C16 8970   4.440   4.457   1.324 -0.5921  0.1912 -0.3629
   38MOL    C17 8971   4.284   4.525   1.132 -0.5761 -0.7175  0.0681
   38MOL    C18 8972   4.268   4.553   0.985  0.4108 -0.1228  0.8026
   38MOL    O19 8973   4.232   4.468   0.906  0.4482  0.3363  0.3866
   38MOL    H20 8974   4.490   4.444   1.119  1.1635  0.6596  0.6158
   38MOL    H21 8975   4.539   4.477   1.364 -0.6273  0.3870 -0.3735
   38MOL    H22 8976   4.409   4.352   1.327  0.3240 -0.0924 -0.6382
   38MOL    H23 8977   4.369   4.510   1.388  0.9617  2.9635 -0.8888
   38MOL    H24 8978   4.232   4.598   1.196  2.5878  1.3457  0.3703
   38MOL    H25 8979   4.232   4.430   1.149  2.1321 -2.0889  0.8914
   38MOL    O26 8980   4.299   4.678   0.951  0.4330  0.2275 -0.1294
   38MOL    C27 8981   4.246   4.748   0.835 -0.8992  0.3739  0.1321
   38MOL    C28 8982   4.141   4.851   0.894 -0.0894 -0.4426  0.1342
   38MOL    C29 8983   4.354   4.816   0.762 -0.0636 -1.1206 -0.1101
   38MOL    C30 8984   4.446   4.739   0.674 -0.3363  0.5890 -0.4622
   38MOL    O31 8985   4.570   4.733   0.694  0.4855 -0.0646  0.0386
   38MOL    H32 8986   4.198   4.682   0.762 -1.3469 -1.0654  1.7093
   38MOL    H33 8987   4.044   4.802   0.907 -0.3718 -0.3263 -1.4191
   38MOL    H34 8988   4.117   4.926   0.820  2.1937  0.0177 -0.1806
   38MOL    H35 8989   4.171   4.904   0.984  2.0626 -3.8302  1.5229
   38MOL    H36 8990   4.421   4.869   0.830 -0.3946  0.8283 -1.2549
   38MOL    H37 8991   4.306   4.894   0.702 -0.1126 -1.4278 -0.4708
   38MOL    O38 8992   4.389   4.675   0.573 -0.4431  0.1499 -0.0360
   38MOL    C39 8993   4.466   4.618   0.471 -0.2899  0.5477  0.2380
   38MOL    C40 8994   4.489   4.468   0.507  0.5155 -0.5958  0.0655
   38MOL    C41 8995   4.387   4.638   0.338 -0.4908  0.0346  0.0667
   38MOL    C42 8996   4.428   4.557   0.218 -0.2613  1.0235 -0.2770
   38MOL    O43 8997   4.346   4.478   0.165 -0.2801  0.3972  0.1446
   38MOL    H44 8998   4.564   4.662   0.455  0.5729 -1.0049  1.1399
   38MOL    H45 8999   4.513   4.461   0.613 -0.6885 -0.7032  0.3437
   38MOL    H46 9000   4.570   4.417   0.454  0.4213  0.1452 -0.7962
   38MOL    H47 9001   4.395   4.413   0.499  0.6485 -0.4756 -2.7019
   38MOL    H48 9002   4.394   4.743   0.309 -0.3972 -0.6009 -2.2616
   38MOL    H49 9003   4.288   4.609   0.374 -2.8016  3.0813 -3.5108
   38MOL    O50 9004   4.557   4.575   0.183  0.3368 -0.9845 -0.0860
   38MOL    C51 9005   4.613   4.517   0.067 -0.1621 -0.5047 -0.6335
   38MOL    C52 9006   4.703   4.624   0.006  0.3183  0.5406  0.0739
   38MOL    C53 9007   4.692   4.391   0.109  0.2164  0.2179 -0.0716
   38MOL    C54 9008   4.707   4.292   7.975 -0.1496 -0.7944 -0.2000
   38MOL    O55 9009   4.615   4.280   7.893  0.8960 -0.1168 -0.6033
   38MOL    H56 9010   4.530   4.487   0.004 -1.5257 -0.1976  0.9931
   38MOL    H57 9011   4.778   4.659   0.077  1.5730  0.5624 -1.2447
   38MOL    H58 9012   4.659   4.722   7.963  1.5186  1.0817  0.0446
   38MOL    H59 9013   4.763   4.588   7.903 -1.3376 -3.2252  0.4350
   38MOL    H60 9014   4.655   4.331   0.191 -0.0827  0.8098  0.2324
   38MOL    H61 9015   4.787   4.411   0.158 -0.9803  0.9774  2.0073
   38MOL    O62 9016   4.823   4.234   7.974 -0.2113  0.3898 -0.0606
   38MOL    C63 9017   4.858   4.138   7.864 -0.0982  0.3242 -0.7603
   38MOL    C64 9018   5.004   4.153   7.826  0.0020  0.1821 -0.0695
   38MOL    C65 9019   4.825   3.988   7.915 -0.0419  0.0527  0.2376
   38MOL    C66 9020   4.869   3.878   7.810  0.3171  0.3312  0.1032
   38MOL    O67 9021   4.985   3.855   7.785 -0.4477 -0.2701  0.4153
   38MOL    H68 9022   4.798   4.153   7.775 -2.1702 -0.2441  0.5103
   38MOL    H69 9023   5.023   4.100   7.733  0.2052  0.2993 -0.0954
   38MOL    H70 9024   5.060   4.122   7.915  1.3711 -0.3107 -1.0900
   38MOL    H71 9025   5.008   4.258   7.798 -0.8022  0.6617  1.5432
   38MOL    H72 9026   4.718   3.968   7.926  0.2473 -1.3846  0.6684
   38MOL    H73 9027   4.862   3.964   0.035 -0.9648  1.2106  0.8625
   38MOL    O74 9028   4.758   3.815   7.761 -0.1570 -0.0151 -0.3257
   38MOL    C75 9029   4.759   3.718   7.657  0.1625 -0.8419  0.0124
   38MOL    C76 9030   4.668   3.604   7.710  0.3828 -0.4959  0.3174
   38MOL    C77 9031   4.706   3.785   7.530  0.0121 -0.7057  0.4068
   38MOL    C78 9032   4.819   3.795   7.422 -0.0927 -0.6458 -0.5501
   38MOL    O79 9033   4.804   3.741   7.314  0.0996 -0.5024  0.1214
   38MOL    H80 9034   4.861   3.683   7.638  0.4366 -0.0230 -0.0564
   38MOL    H81 9035   4.713   3.577   7.805  0.3887 -0.3423  0.3584
   38MOL    H82 9036   4.679   3.513   7.651 -2.9226 -0.5002 -0.3848
   38MOL    H83 9037   4.561   3.623   7.707 -0.2316 -3.8221 -3.5801
   38MOL    H84 9038   4.672   3.885   7.556  0.5289 -0.4504  0.1169
   38MOL    H85 9039   4.623   3.725   7.491  0.0353  0.8338 -2.1642
   38MOL    O86 9040   4.934   3.855   7.471  0.1242  0.1667 -0.3443
   38MOL    C87 9041   5.058   3.860   7.396  0.5288  0.2075  0.8649
   38MOL    C88 9042   5.044   3.973   7.289 -0.5444 -0.5546  0.3509
   38MOL    C89 9043   5.169   3.882   7.509  0.1565 -0.7579 -0.3189
   38MOL    C90 9044   5.296   3.808   7.473 -0.8776  0.2585  0.6751
   38MOL    O91 9045   5.315   3.786   7.356 -0.0179 -0.3749 -0.0102
   38MOL    H92 9046   5.061   3.761   7.352 -2.2717  1.6589 -2.8088
   38MOL    H93 9047   5.130   3.950   7.226 -0.8810  1.4835 -0.9119
   38MOL    H94 9048   5.059   4.071   7.334  0.5820 -0.7688  0.4559
   38MOL    H95 9049   4.954   3.963   7.228 -1.5271 -1.3210  1.8925
   38MOL    H96 9050   5.133   3.837   7.602 -1.3723  1.6848  0.3347
   38MOL    H97 9051   5.181   3.989   7.529 -0.0945 -0.9646  1.0164
   38MOL    O98 9052   5.381   3.783   7.579 -0.0461 -0.5801  0.2004
   38MOL    C99 9053   5.496   3.701   7.562 -0.1190 -0.2750  0.0487
   38MOL   C100 9054   5.619   3.796   7.588  0.5150  0.0310 -0.0947
   38MOL   C101 9055   5.496   3.581   7.665  0.1384  0.4264 -0.4276
   38MOL   C102 9056   5.390   3.470   7.637  0.4000 -0.0392  0.2445
   38MOL   O103 9057   5.406   3.352   7.676  0.2023  0.1884  0.0179
   38MOL   H104 9058   5.504   3.668   7.459 -0.1141 -1.2538  0.3540
   38MOL   H105 9059   5.608   3.892   7.536  1.0045  0.2414  0.1904
   38MOL   H106 9060   5.717   3.757   7.559  0.2744 -0.9253  0.3624
   38MOL   H107 9061   5.626   3.816   7.695  0.1924 -1.2894  0.1806
   38MOL   H108 9062   5.484   3.624   7.765 -1.2053 -1.6100  0.3094
   38MOL   H109 9063   5.587   3.523   7.663 -0.7391 -0.9504 -0.9180
   38MOL   O110 9064   5.270   3.521   7.596  0.6076 -0.1445 -0.2938
   38MOL   C111 9065   5.142   3.458   7.630  0.4216  1.0540  0.2278
   38MOL   C112 9066   5.108   3.530   7.765 -0.7199 -1.0007 -0.3131
   38MOL   C113 9067   5.035   3.483   7.527 -0.3121 -0.1381 -0.5357
   38MOL   C114 9068   5.038   3.377   7.417 -1.0922 -0.0459 -0.6627
   38MOL   O115 9069   5.022   3.410   7.297 -0.2207  0.6423 -0.0995
   38MOL   H116 9070   5.160   3.353   7.651 -1.8324  1.0157  2.2539
   38MOL   H117 9071   5.104   3.637   7.745  0.2037 -0.5814  1.6740
   38MOL   H118 9072   5.187   3.515   7.838 -0.5473  0.9195 -0.0832
   38MOL   H119 9073   5.016   3.506   7.818  0.1619  1.8269  2.6408
   38MOL   H120 9074   5.049   3.581   7.481  2.1197 -0.7044 -1.0753
   38MOL   H121 9075   4.937   3.492   7.574 -0.6119 -0.0997 -1.1721
   38MOL   O122 9076   5.063   3.251   7.453 -0.2472  0.4781 -0.4311
   38MOL   C123 9077   5.080   3.141   7.358 -0.2882 -0.0864 -0.5933
   38MOL   C124 9078   5.208   3.068   7.391 -0.2328  0.3009  0.0047
   38MOL   C125 9079   4.956   3.046   7.347  1.0924  1.0844  0.1303
   38MOL   C126 9080   4.931   2.971   7.208 -0.0577  0.2001 -0.3764
   38MOL   O127 9081   5.010   2.985   7.115  0.0222  0.4687 -0.3225
   38MOL   H128 9082   5.095   3.184   7.259 -0.5253  0.1899 -0.5112
   38MOL   H129 9083   5.198   2.996   7.472  0.5183 -0.6694 -0.7570
   38MOL   H130 9084   5.287   3.138   7.419  0.4610 -0.3182 -0.3921
   38MOL   H131 9085   5.233   3.016   7.299 -2.1297  2.3928 -1.7525
   38MOL   H132 9086   4.866   3.104   7.365  1.3477  0.6033  3.2570
   38MOL   H133 9087   4.957   2.979   7.432 -0.1172  2.1408  0.9922
   38MOL   O134 9088   4.829   2.888   7.203 -0.0846  0.7484 -0.3957
   38MOL   C135 9089   4.798   2.813   7.083 -0.3109 -0.1257 -0.0302
   38MOL   C136 9090   4.869   2.679   7.091  0.2095  0.0483 -0.2175
   38MOL   C137 9091   4.641   2.809   7.066  0.2510 -0.1854 -1.0467
   38MOL   C138 9092   4.579   2.941   7.022 -0.7486  0.6505 -0.4022
   38MOL   O139 9093   4.651   3.031   6.973  0.0335 -0.0011 -0.0431
   38MOL   H140 9094   4.831   2.867   6.995 -2.9905 -0.2956 -1.1815
   38MOL   H141 9095   4.977   2.676   7.106  0.0513 -0.8919  0.8666
   38MOL   H142 9096   4.847   2.620   7.002  0.2048  0.3186 -0.3965
   38MOL   H143 9097   4.835   2.630   7.182  0.1265  0.1593 -0.1890
   38MOL   H144 9098   4.593   2.776   7.158  0.6952 -1.1507 -1.1573
   38MOL   H145 9099   4.636   2.733   6.989  1.7488 -0.1714 -1.1813
   38MOL   O146 9100   4.438   2.934   7.021 -0.4753 -0.2109 -0.5135
   38MOL   C147 9101   4.361   3.044   6.974  0.0144  0.6591  0.0244
   38MOL   C148 9102   4.234   2.972   6.904  0.1577 -0.0527 -0.0593
   38MOL   C149 9103   4.338   3.155   7.071  0.4759  0.4631  0.4795
   38MOL   C150 9104   4.254   3.273   7.020  0.4192  0.7418  0.1275
   38MOL   O151 9105   4.160   3.302   7.092  0.3014 -0.4008  0.3139
   38MOL   H152 9106   4.425   3.079   6.893  1.6370 -1.1908  0.4731
   38MOL   H153 9107   4.158   3.039   6.863 -0.7334 -0.5344  0.7938
   38MOL   H154 9108   4.182   2.916   6.982  0.6342  0.7174  0.8194
   38MOL   H155 9109   4.268   2.899   6.831 -0.7668 -1.3020  0.7243
   38MOL   H156 9110   4.431   3.193   7.113 -1.8242  2.2766  4.2686
   38MOL   H157 9111   4.284   3.104   7.151  0.3152 -2.8483 -1.6526
   38MOL   O158 9112   4.292   3.320   6.901  0.5324 -0.1186  0.3011
   38MOL   C159 9113   4.222   3.410   6.821 -0.0256  0.1150  0.1419
   38MOL   C160 9114   4.319   3.520   6.767 -0.1739  0.4872 -0.5599
   38MOL   C161 9115   4.153   3.330   6.705 -0.7908 -0.0785 -0.0615
   38MOL   C162 9116   4.242   3.261   6.604  0.2456 -0.5801  0.7520
   38MOL   O163 9117   4.204   3.262   6.488  0.0714  0.6272 -0.5320
   38MOL   H164 9118   4.151   3.458   6.889  2.1813  1.8705  1.2943
   38MOL   H165 9119   4.265   3.589   6.703  1.2002  1.7121 -0.4265
   38MOL   H166 9120   4.400   3.460   6.725 -0.9577  0.4941 -2.1306
   38MOL   H167 9121   4.358   3.581   6.849 -1.5005 -0.5309  0.8687
   38MOL   H168 9122   4.075   3.382   6.650 -0.4250  1.9641  1.2899
   38MOL   H169 9123   4.106   3.240   6.746 -1.8885  0.4675 -0.1183
   38MOL   O170 9124   4.350   3.193   6.645 -0.1185  0.4682 -0.1664
   38MOL   C171 9125   4.434   3.121   6.552 -0.4028  0.5337 -0.0569
   38MOL   C172 9126   4.581   3.141   6.587 -0.3598  0.4914 -0.1026
   38MOL   C173 9127   4.378   2.970   6.544  0.2677  0.4909  0.3627
   38MOL   C174 9128   4.386   2.927   6.398  0.0484  0.6988  0.1669
   38MOL   O175 9129   4.290   2.928   6.320  0.4007  0.5855 -0.5860
   38MOL   H176 9130   4.436   3.169   6.455  0.9683  1.2146  0.2905
   38MOL   H177 9131   4.605   3.100   6.684 -0.2559  3.3557  1.1378
   38MOL   H178 9132   4.604   3.246   6.608 -2.8592  0.6681  1.9795
   38MOL   H179 9133   4.647   3.101   6.510  0.0780 -0.8364  0.9554
   38MOL   H180 9134   4.271   2.970   6.565 -0.0630 -0.3268 -1.2716
   38MOL   H181 9135   4.414   2.901   6.621 -1.2190  0.5766  1.1543
   38MOL   O182 9136   4.510   2.882   6.370 -0.0814 -0.1188  0.2791
   38MOL   C183 9137   4.549   2.816   6.250  0.1151  0.4914  0.4378
   38MOL   C184 9138   4.643   2.913   6.170 -0.1364 -1.1247  0.5266
   38MOL   C185 9139   4.617   2.673   6.275  0.4094 -0.2394  0.0160
   38MOL   C186 9140   4.739   2.672   6.366 -0.4707  0.4024 -0.4551
   38MOL   O187 9141   4.845   2.673   6.314  0.4177  0.0513 -0.0703
   38MOL   H188 9142   4.459   2.790   6.194  0.3093  1.3404 -0.2686
   38MOL   H189 9143   4.693   2.853   6.094 -1.1811 -1.3896  0.0477
   38MOL   H190 9144   4.712   2.967   6.235  1.5359 -2.3786 -0.1600
   38MOL   H191 9145   4.587   2.988   6.115  1.4882 -0.3085 -0.0408
   38MOL   H192 9146   4.646   2.630   6.179  1.8950 -0.1846  0.4280
   38MOL   H193 9147   4.538   2.608   6.313 -0.6118  0.8403 -0.2387
   38MOL   O194 9148   4.721   2.674   6.497 -0.3455 -0.0004  0.1681
   38MOL   C195 9149   4.828   2.672   6.584  0.1165 -0.4381  0.1255
   38MOL   C196 9150   4.793   2.765   6.700 -0.0250 -0.0610 -0.4862
   38MOL   C197 9151   4.886   2.536   6.617  0.2458  0.4946  0.4843
   38MOL   C198 9152   4.788   2.442   6.690 -0.6033 -0.1841  0.4260
   38MOL   O199 9153   4.740   2.492   6.792  0.5695 -1.1901  0.1695
   38MOL   H200 9154   4.910   2.723   6.534 -0.6036  0.6830  0.0805
   38MOL   H201 9155   4.864   2.766   6.783  2.3065 -1.8228 -2.3822
   38MOL   H202 9156   4.707   2.720   6.750  1.0886 -2.0434 -0.2985
   38MOL   H203 9157   4.781   2.870   6.671  2.4552  1.1795  2.6323
   38MOL   H204 9158   4.969   2.545   6.687  0.0699 -0.5779  0.8498
   38MOL   H205 9159   4.914   2.491   6.522  1.4741  0.2427  0.9533
   38MOL   O206 9160   4.772   2.310   6.642  0.3510 -0.5427  0.9329
   38MOL   C207 9161   4.695   2.212   6.711  0.1717  0.0425  0.4811
   38MOL   C208 9162   4.538   2.215   6.706  0.8801  0.3649 -0.2337
   38MOL   C209 9163   4.731   2.071   6.651  0.6348 -0.6514  0.4633
   38MOL   C210 9164   4.709   2.053   6.499 -0.7228 -0.8274 -0.3602
   38MOL   O211 9165   4.595   2.022   6.453  0.1575  0.2878  0.0866
   38MOL   H212 9166   4.721   2.219   6.817  0.4928 -2.5423  0.5862
   38MOL   H213 9167   4.489   2.191   6.611  0.3769  2.1127 -0.4446
   38MOL   H214 9168   4.514   2.317   6.736  0.6330  0.3605 -0.4096
   38MOL   H215 9169   4.502   2.148   6.784 -0.3115 -1.3907 -2.2288
   38MOL   H216 9170   4.670   2.001   6.709  0.3931 -0.9358 -0.1345
   38MOL   H217 9171   4.837   2.052   6.670  1.5896  1.1371 -2.7447
   38MOL   O218 9172   4.812   2.080   6.433  0.1209  0.2524  0.5633
   38MOL   C219 9173   4.798   2.106   6.292  0.9659 -0.0883 -0.1330
   38MOL   C220 9174   4.879   2.231   6.265  0.3454  0.4639 -0.3070
   38MOL   C221 9175   4.838   1.992   6.204 -0.0200 -0.1036  0.1491
   38MOL   C222 9176   4.728   1.898   6.156 -1.4461  0.1652  0.7153
   38MOL   O223 9177   4.614   1.927   6.145 -0.0540 -0.2609 -0.9518
   38MOL   H224 9178   4.697   2.137   6.262  0.4824 -0.3874  1.1481
   38MOL   H225 9179   4.987   2.218   6.265  0.4041  0.9096 -0.4279
   38MOL   H226 9180   4.855   2.309   6.337  1.1246  0.3396  0.0957
   38MOL   H227 9181   4.861   2.266   6.163 -2.4547 -1.8665 -0.6616
   38MOL   H228 9182   4.928   1.944   6.244  0.6808  0.4750 -0.6982
   38MOL   H229 9183   4.858   2.017   6.099 -0.1301 -2.6023 -0.5018
   38MOL   O230 9184   4.781   1.780   6.121  0.4327  0.0714  0.4325
   38MOL   C231 9185   4.707   1.680   6.050 -0.7144  0.3558 -0.6925
   38MOL   C232 9186   4.819   1.615   5.968 -0.3211  0.2811 -0.1140
   38MOL   C233 9187   4.654   1.589   6.160  0.1681  0.5402 -0.1738
   38MOL   C234 9188   4.581   1.468   6.113  1.0408 -0.2634  0.3379
   38MOL   O235 9189   4.473   1.487   6.060 -0.0679 -0.2991 -0.2297
   38MOL   H236 9190   4.627   1.720   5.988 -1.6727  1.5101  1.2300
   38MOL   H237 9191   4.883   1.552   6.028 -2.8554 -1.5661  0.7586
   38MOL   H238 9192   4.878   1.687   5.910  1.0743  0.6196  1.6963
   38MOL   H239 9193   4.788   1.542   5.893 -1.2679  0.8893 -0.3339
   38MOL   H240 9194   4.586   1.645   6.224 -1.1749 -2.0637  0.7269
   38MOL   H241 9195   4.737   1.543   6.214 -0.7017  0.2149  0.9053
   38MOL   H242 9196   4.631   1.373   6.132  1.3927 -0.5744 -2.0160
   39MOL     O1 9197   4.882   1.469   7.495 -0.0039 -0.4185  0.0006
   39MOL     C2 9198   4.796   1.426   7.392 -0.1511 -0.6087 -0.4698
   39MOL     C3 9199   4.791   1.533   7.285 -0.0076  0.9018 -0.4730
   39MOL     C4 9200   4.814   1.280   7.333  0.6901 -0.6217  0.3111
   39MOL     C5 9201   4.694   1.225   7.264  0.7531 -0.1991 -0.0852
   39MOL     O6 9202   4.600   1.174   7.323  0.0499 -0.7108  0.3509
   39MOL     H7 9203   4.702   1.427   7.449 -0.8837  2.3796 -1.6312
   39MOL     H8 9204   4.732   1.497   7.201  0.3397 -0.0705 -0.3006
   39MOL     H9 9205   4.893   1.557   7.257  0.1671  0.3337 -0.3151
   39MOL    H10 9206   4.725   1.612   7.323 -0.2599  0.0893  0.8483
   39MOL    H11 9207   4.851   1.207   7.404 -0.3478 -0.4194  1.0736
   39MOL    H12 9208   4.893   1.291   7.258  1.2550 -1.1878  0.8266
   39MOL    H13 9209   4.949   1.403   7.488  0.7865 -0.0319  3.1815
   39MOL    O14 9210   4.703   1.234   7.128  0.3278  0.1314  0.0770
   39MOL    C15 9211   4.587   1.203   7.048  0.9631  0.0118  0.3695
   39MOL    C16 9212   4.530   1.329   6.979 -0.0675  0.8768 -0.6756
   39MOL    C17 9213   4.624   1.093   6.932  0.0966 -0.4953 -0.2877
   39MOL    C18 9214   4.668   0.953   6.981  1.1043 -0.0636 -0.4066
   39MOL    O19 9215   4.609   0.850   6.940  0.3535  0.5157 -0.6158
   39MOL    H20 9216   4.511   1.165   7.116  1.0801 -1.8185 -0.4898
   39MOL    H21 9217   4.486   1.396   7.053 -3.3819 -0.5260 -1.2518
   39MOL    H22 9218   4.446   1.302   6.915  0.8334 -1.0847 -1.0599
   39MOL    H23 9219   4.604   1.386   6.924  0.8682  1.7674  1.4779
   39MOL    H24 9220   4.685   1.140   6.855  0.1024  0.6141  0.3846
   39MOL    H25 9221   4.529   1.084   6.880 -0.2737  0.0037  0.2976
   39MOL    O26 9222   4.753   0.962   7.081 -0.2385  0.1006  0.0538
   39MOL    C27 9223   4.780   0.847   7.155  0.2894 -0.6079  0.1718
   39MOL    C28 9224   4.907   0.777   7.092  0.0004 -0.0028 -0.5671
   39MOL    C29 9225   4.774   0.877   7.303 -1.2643 -0.3619 -0.2019
   39MOL    C30 9226   4.776   0.759   7.400  0.2569  0.1283  0.7282
   39MOL    O31 9227   4.868   0.736   7.479 -0.2744 -0.2696  0.3961
   39MOL    H32 9228   4.701   0.775   7.135 -1.9160  2.0837 -1.1317
   39MOL    H33 9229   4.881   0.751   6.989  1.3656  1.0347 -1.1857
   39MOL    H34 9230   4.937   0.680   7.133  0.5964  0.8045  0.9290
   39MOL    H35 9231   4.999   0.834   7.105 -0.3332  0.6867 -1.2280
   39MOL    H36 9232   4.684   0.936   7.323 -0.4668  0.9791 -0.5257
   39MOL    H37 9233   4.860   0.938   7.328 -2.9137  1.6927  0.6779
   39MOL    O38 9234   4.665   0.680   7.378 -0.0129  0.0977 -0.5159
   39MOL    C39 9235   4.653   0.548   7.448 -0.0366 -1.2954  0.7760
   39MOL    C40 9236   4.511   0.518   7.433  0.1828  0.2587 -0.1080
   39MOL    C41 9237   4.749   0.445   7.386  0.5885  0.4105  0.0697
   39MOL    C42 9238   4.787   0.330   7.482 -0.0229  0.2635 -0.3630
   39MOL    O43 9239   4.764   0.208   7.455 -0.4618 -0.6519  0.2981
   39MOL    H44 9240   4.683   0.563   7.551  1.8611 -0.0494  0.0671
   39MOL    H45 9241   4.451   0.577   7.503  2.0613 -2.6960  4.1761
   39MOL    H46 9242   4.498   0.417   7.470 -0.3221 -0.1617 -1.4269
   39MOL    H47 9243   4.457   0.531   7.339 -1.6048 -0.8577  0.7332
   39MOL    H48 9244   4.842   0.486   7.347  0.5528  0.7281  0.3107
   39MOL    H49 9245   4.703   0.406   7.296  0.7383 -0.2904  0.2913
   39MOL    O50 9246   4.844   0.385   7.595  0.0807  0.0539 -0.3225
   39MOL    C51 9247   4.864   0.294   7.706  0.3104  0.2733 -0.2746
   39MOL    C52 9248   5.006   0.318   7.757  0.2445  0.6094 -0.2784
   39MOL    C53 9249   4.764   0.326   7.820  0.3010  0.1709 -0.0253
   39MOL    C54 9250   4.620   0.283   7.794  0.4116  0.4067  0.4517
   39MOL    O55 9251   4.521   0.364   7.788 -0.5989  0.2957  0.0387
   39MOL    H56 9252   4.860   0.191   7.669  0.2184  0.4684 -0.8132
   39MOL    H57 9253   5.077   0.304   7.675 -1.3638 -0.1447 -1.5515
   39MOL    H58 9254   5.035   0.239   7.827  1.9714  1.2302 -0.2517
   39MOL    H59 9255   4.995   0.417   7.801 -1.6714  0.8451 -1.2570
   39MOL    H60 9256   4.764   0.425   7.865  0.5822  1.2166 -2.2607
   39MOL    H61 9257   4.775   0.257   7.904  2.4846  1.0052  0.4186
   39MOL    O62 9258   4.602   0.145   7.785  0.0450 -0.3385  0.3622
   39MOL    C63 9259   4.482   0.090   7.748 -0.0242 -0.4438 -0.1492
   39MOL    C64 9260   4.472   0.062   7.598  0.1754 -0.2447 -0.0293
   39MOL    C65 9261   4.451   7.963   7.848 -0.0327  0.1120  0.9684
   39MOL    C66 9262   4.304   7.933   7.881  0.3014 -0.5500 -0.7324
   39MOL    O67 9263   4.216   0.008   7.821 -0.2915 -0.3827  0.1129
   39MOL    H68 9264   4.410   0.169   7.770  1.6615 -0.1573  4.8864
   39MOL    H69 9265   4.368   0.043   7.570  0.0232  0.2620  0.1941
   39MOL    H70 9266   4.528   7.950   7.576  1.4891  1.0810 -2.4426
   39MOL    H71 9267   4.515   0.145   7.541 -2.9914  0.9676 -0.7407
   39MOL    H72 9268   4.506   0.003   7.940  0.2551  0.7628  0.6594
   39MOL    H73 9269   4.487   7.866   7.812  0.0884  0.6525 -0.4068
   39MOL    O74 9270   4.289   7.840   0.001 -0.2869  0.0492  0.0616
   39MOL    C75 9271   4.159   7.800   0.034 -1.1300 -0.3587 -0.1745
   39MOL    C76 9272   4.106   7.690   7.918 -0.7105  0.5944 -0.4380
   39MOL    C77 9273   4.173   7.746   0.178 -0.2856 -0.2679  0.2666
   39MOL    C78 9274   4.133   7.846   0.279 -0.3870 -0.8320 -0.4519
   39MOL    O79 9275   4.213   7.912   0.351 -0.1914  0.4305  0.6463
   39MOL    H80 9276   4.099   7.890   0.038 -0.5224 -0.0189  2.7824
   39MOL    H81 9277   4.094   7.735   7.819 -0.4756 -0.3512 -0.9060
   39MOL    H82 9278   4.009   7.675   7.963  0.2681 -0.2212  1.4560
   39MOL    H83 9279   4.175   7.606   7.908  1.3194  2.0377  1.0263
   39MOL    H84 9280   4.280   7.725   0.186 -0.1119  0.9503  1.2928
   39MOL    H85 9281   4.127   7.651   0.203 -0.8675 -0.8219 -2.7082
   39MOL    O86 9282   4.004   7.857   0.283 -0.5136 -0.1350 -0.9471
   39MOL    C87 9283   3.949   0.000   0.335 -0.4672  0.8611 -0.3967
   39MOL    C88 9284   3.945   0.104   0.221 -0.2740 -0.7269 -0.3595
   39MOL    C89 9285   3.811   7.949   0.402  0.2414  0.5092 -0.2806
   39MOL    C90 9286   3.825   7.873   0.536 -0.9960 -0.0649  0.4959
   39MOL    O91 9287   3.818   7.752   0.544 -0.0653 -0.2648  0.2110
   39MOL    H92 9288   4.008   0.044   0.415  0.8832  0.5417 -1.2123
   39MOL    H93 9289   3.893   0.062   0.134 -1.4245 -0.6119  0.2599
   39MOL    H94 9290   4.050   0.123   0.201  0.5407 -1.7606  2.7146
   39MOL    H95 9291   3.895   0.199   0.244 -2.8589 -2.1656  0.2275
   39MOL    H96 9292   3.744   7.882   0.348  1.0283 -0.5902  0.0937
   39MOL    H97 9293   3.751   0.060   0.417 -0.1126  0.3752 -0.8645
   39MOL    O98 9294   3.852   7.957   0.633 -0.0980 -0.0399  0.1222
   39MOL    C99 9295   3.847   7.914   0.769 -0.7515  0.4796 -0.6711
   39MOL   C100 9296   3.983   7.911   0.833  0.1112 -0.3334  0.0985
   39MOL   C101 9297   3.740   0.020   0.844 -0.1810 -0.4534 -0.8690
   39MOL   C102 9298   3.756   0.171   0.829  0.4045 -0.5273 -0.5758
   39MOL   O103 9299   3.831   0.244   0.890 -0.2646  0.1382  0.4762
   39MOL   H104 9300   3.792   7.821   0.770 -0.3992  0.2678 -0.7162
   39MOL   H105 9301   3.990   7.887   0.939  0.3991  0.1573  0.1928
   39MOL   H106 9302   4.045   0.018   0.810 -0.0926 -0.7578 -2.1681
   39MOL   H107 9303   4.044   7.831   0.791  2.2878  1.3955 -0.1364
   39MOL   H108 9304   3.759   0.002   0.950  1.2213  0.6951 -0.9070
   39MOL   H109 9305   3.638   7.973   0.818 -0.9084  3.1229 -2.0158
   39MOL   O110 9306   3.678   0.212   0.727 -0.2405  0.0450  0.3361
   39MOL   C111 9307   3.680   0.349   0.682  0.2468  0.0784  0.7789
   39MOL   C112 9308   3.671   0.337   0.524 -1.7085  0.1579  0.4224
   39MOL   C113 9309   3.554   0.425   0.738  0.0886  0.0025  0.3929
   39MOL   C114 9310   3.545   0.572   0.712  0.6214 -0.7326  0.5460
   39MOL   O115 9311   3.441   0.632   0.736  0.2716 -0.1192  0.4039
   39MOL   H116 9312   3.770   0.404   0.709  0.2610  0.4927 -0.1129
   39MOL   H117 9313   3.582   0.286   0.489 -2.0105  0.0027  1.4060
   39MOL   H118 9314   3.761   0.285   0.492  0.1262  2.1581  2.1362
   39MOL   H119 9315   3.673   0.432   0.470 -1.0539 -0.5305 -0.7684
   39MOL   H120 9316   3.558   0.411   0.846  1.4364  2.0499  0.6443
   39MOL   H121 9317   3.462   0.387   0.694  0.4753 -0.1805 -0.2639
   39MOL   O122 9318   3.650   0.636   0.662 -0.0466  0.5943  0.3108
   39MOL   C123 9319   3.648   0.769   0.604 -0.3177 -0.0563 -0.3161
   39MOL   C124 9320   3.720   0.864   0.695 -0.2439  0.1106 -0.1027
   39MOL   C125 9321   3.710   0.753   0.461  0.1786 -0.6738  0.6744
   39MOL   C126 9322   3.691   0.889   0.387 -0.5969  1.0100  0.2658
   39MOL   O127 9323   3.779   0.957   0.330  0.0906 -0.0385  0.3148
   39MOL   H128 9324   3.548   0.814   0.607 -0.4770 -0.4621  0.4992
   39MOL   H129 9325   3.709   0.839   0.801 -1.8724  1.3125  0.0273
   39MOL   H130 9326   3.700   0.967   0.666 -2.0687 -0.4071 -0.7154
   39MOL   H131 9327   3.826   0.848   0.677 -0.6970 -3.3369  0.0944
   39MOL   H132 9328   3.675   0.672   0.399  1.1658 -0.4397 -0.2031
   39MOL   H133 9329   3.818   0.739   0.466  0.4071  0.6852 -0.1784
   39MOL   O134 9330   3.567   0.912   0.373  0.1817 -0.4161  0.4496
   39MOL   C135 9331   3.526   1.042   0.331  0.8020 -0.5274  0.2164
   39MOL   C136 9332   3.523   1.051   0.178 -0.7166 -0.2722 -0.1526
   39MOL   C137 9333   3.384   1.063   0.402  0.2290  0.4444 -0.1745
   39MOL   C138 9334   3.387   1.060   0.555 -0.2163 -0.6852 -0.8231
   39MOL   O139 9335   3.484   1.086   0.621 -0.0614 -0.0918 -0.5965
   39MOL   H140 9336   3.587   1.124   0.369 -2.8617  1.6931  1.5745
   39MOL   H141 9337   3.495   1.148   0.138  1.2350  0.8041  1.0527
   39MOL   H142 9338   3.464   0.967   0.141 -1.6292 -0.6989  2.2198
   39MOL   H143 9339   3.624   1.036   0.139  0.0830  1.7991  1.0433
   39MOL   H144 9340   3.306   1.001   0.359  1.3632  1.5160 -4.0266
   39MOL   H145 9341   3.348   1.162   0.376  0.5052  1.1684  2.0748
   39MOL   O146 9342   3.265   1.035   0.601  0.4780  0.1700 -0.0620
   39MOL   C147 9343   3.227   1.044   0.738 -1.0963  0.7309 -0.1668
   39MOL   C148 9344   3.073   1.038   0.750  0.4607 -0.5761  0.0852
   39MOL   C149 9345   3.288   0.932   0.822  0.0908  0.7240  0.1399
   39MOL   C150 9346   3.288   0.957   0.973  0.3837  0.5007 -0.7243
   39MOL   O151 9347   3.385   1.000   1.027  0.3539  0.2551  0.2271
   39MOL   H152 9348   3.268   1.136   0.779 -0.0788 -0.1200  0.7795
   39MOL   H153 9349   3.041   1.090   0.841  2.1291 -0.6882  0.7519
   39MOL   H154 9350   3.031   0.938   0.746  1.1222 -0.9089  1.2035
   39MOL   H155 9351   3.037   1.093   0.663  1.4462  1.7623  1.1101
   39MOL   H156 9352   3.390   0.919   0.787  0.0034 -1.1787  0.5104
   39MOL   H157 9353   3.252   0.832   0.796  2.8559 -0.1441 -0.5421
   39MOL   O158 9354   3.169   0.926   1.031  0.3106  0.1228 -0.5446
   39MOL   C159 9355   3.156   0.940   1.169  0.3418 -0.0172  0.5855
   39MOL   C160 9356   3.071   1.060   1.192  0.0325 -0.5066  0.0467
   39MOL   C161 9357   3.097   0.821   1.243 -0.1856 -0.0043  0.2226
   39MOL   C162 9358   3.195   0.703   1.251 -0.4573  0.4210 -0.8014
   39MOL   O163 9359   3.233   0.664   1.360 -0.3190 -0.2648 -0.0779
   39MOL   H164 9360   3.251   0.960   1.219  0.2124 -0.8171  1.1454
   39MOL   H165 9361   3.117   1.148   1.148  0.9556  0.1822  2.3088
   39MOL   H166 9362   3.071   1.095   1.296  1.8936  1.8263 -0.7162
   39MOL   H167 9363   2.971   1.045   1.151 -0.1568  0.8494 -0.0227
   39MOL   H168 9364   3.004   0.782   1.201 -1.4881  0.4739  2.5530
   39MOL   H169 9365   3.069   0.862   1.340  1.1629 -0.0493  0.6408
   39MOL   O170 9366   3.235   0.662   1.137 -0.0956 -0.4650 -0.4867
   39MOL   C171 9367   3.349   0.577   1.124 -0.0386  0.7110 -0.3213
   39MOL   C172 9368   3.311   0.476   1.016  0.1023 -0.7412 -0.3866
   39MOL   C173 9369   3.472   0.658   1.085 -0.2201 -0.3304  0.1174
   39MOL   C174 9370   3.597   0.574   1.084  0.6028 -0.4965  0.0529
   39MOL   O175 9371   3.603   0.460   1.129  0.3850  0.3283 -0.0762
   39MOL   H176 9372   3.368   0.531   1.221  2.7159  0.0220 -1.1448
   39MOL   H177 9373   3.395   0.407   1.007 -0.1663 -0.7565 -3.0087
   39MOL   H178 9374   3.307   0.524   0.919  0.0921 -0.3113 -0.1744
   39MOL   H179 9375   3.221   0.427   1.051 -0.4975  0.7975  0.2887
   39MOL   H180 9376   3.489   0.746   1.147  0.5241 -1.8527  2.1166
   39MOL   H181 9377   3.458   0.697   0.984 -0.7705 -0.4992  0.1256
   39MOL   O182 9378   3.698   0.635   1.023 -0.5431  0.3041 -0.3459
   39MOL   C183 9379   3.826   0.572   1.013  0.7367  0.1420  0.4157
   39MOL   C184 9380   3.910   0.655   0.909  0.0794  0.5099 -0.2563
   39MOL   C185 9381   3.896   0.551   1.151  0.1027 -0.7572 -0.4718
   39MOL   C186 9382   4.009   0.444   1.163 -0.6026 -0.0704 -0.5123
   39MOL   O187 9383   3.988   0.338   1.230  0.9067 -0.4579 -0.5172
   39MOL   H188 9384   3.810   0.471   0.975 -0.4206  0.2459  0.6281
   39MOL   H189 9385   4.018   0.638   0.909 -0.0070 -0.3024  2.4326
   39MOL   H190 9386   3.894   0.758   0.942  2.1882  0.6493  0.4177
   39MOL   H191 9387   3.870   0.640   0.809 -0.1347 -0.2764 -0.0545
   39MOL   H192 9388   3.813   0.512   1.210  0.7209 -0.7297  0.4226
   39MOL   H193 9389   3.927   0.646   1.192  0.8085 -0.5914 -1.3817
   39MOL   O194 9390   4.114   0.480   1.081 -0.0598 -0.3555  0.1595
   39MOL   C195 9391   4.226   0.392   1.065  0.7749 -0.4538 -0.5482
   39MOL   C196 9392   4.187   0.304   0.949  0.2065  0.4789  0.1344
   39MOL   C197 9393   4.365   0.469   1.048  1.0659 -0.4353 -0.5981
   39MOL   C198 9394   4.484   0.377   1.057  0.4151  0.1778 -0.0448
   39MOL   O199 9395   4.536   0.339   0.954 -0.1406 -0.7235 -0.5556
   39MOL   H200 9396   4.246   0.322   1.147 -4.1621  0.5164  1.6694
   39MOL   H201 9397   4.173   0.359   0.855 -0.7455  0.7211  0.4164
   39MOL   H202 9398   4.092   0.255   0.971  0.3685 -0.3102 -0.8731
   39MOL   H203 9399   4.262   0.229   0.923  0.3826  0.3954  0.8864
   39MOL   H204 9400   4.378   0.548   1.121 -0.7812 -0.6965  0.0395
   39MOL   H205 9401   4.357   0.524   0.954 -1.9287 -0.3674 -0.3670
   39MOL   O206 9402   4.520   0.346   1.186 -0.3216 -0.0658 -0.1303
   39MOL   C207 9403   4.597   0.236   1.216  0.1984 -0.3327 -0.1429
   39MOL   C208 9404   4.745   0.272   1.210  0.1379  0.4249 -0.1697
   39MOL   C209 9405   4.533   0.190   1.353 -0.2701 -0.3009 -0.3356
   39MOL   C210 9406   4.567   0.043   1.392  0.2485 -0.0472 -0.0662
   39MOL   O211 9407   4.485   7.931   1.385  0.3346 -0.3228 -0.2935
   39MOL   H212 9408   4.584   0.146   1.156 -1.6894 -0.0693 -0.1619
   39MOL   H213 9409   4.817   0.203   1.253  0.4104 -0.2253 -1.6345
   39MOL   H214 9410   4.761   0.371   1.253  1.8188  0.0940 -0.0103
   39MOL   H215 9411   4.786   0.289   1.110 -1.7789 -0.8120 -1.2061
   39MOL   H216 9412   4.424   0.199   1.348 -0.4353 -2.2211 -0.6210
   39MOL   H217 9413   4.558   0.253   1.438 -0.6163 -1.5227  0.6808
   39MOL   O218 9414   4.697   0.038   1.433 -0.0719  0.9342  0.2262
   39MOL   C219 9415   4.757   7.886   1.460 -1.1200 -0.3427  0.3617
   39MOL   C220 9416   4.821   7.829   1.327 -0.5184  0.0188  0.9566
   39MOL   C221 9417   4.837   7.889   1.593 -0.2682  0.1116 -1.0666
   39MOL   C222 9418   4.856   7.758   1.670 -0.2319  0.6566 -0.4186
   39MOL   O223 9419   4.942   7.671   1.635 -0.2637 -0.0647 -0.0291
   39MOL   H224 9420   4.676   7.818   1.486 -2.2691  1.1044  0.6967
   39MOL   H225 9421   4.856   7.729   1.351 -1.8974 -0.5954  0.4621
   39MOL   H226 9422   4.904   7.892   1.294  0.6573 -1.1836  1.5523
   39MOL   H227 9423   4.746   7.816   1.249  0.8307  0.2018 -0.4041
   39MOL   H228 9424   4.783   7.954   1.661  0.5942  1.3157 -1.5100
   39MOL   H229 9425   4.939   7.926   1.579 -0.8016  1.2023 -2.0690
   39MOL   O230 9426   4.779   7.754   1.779  0.3289 -0.9820 -0.7229
   39MOL   C231 9427   4.757   7.638   1.858 -0.6319 -0.5699  0.0419
   39MOL   C232 9428   4.723   7.685   1.997 -0.5352  0.6618  0.4627
   39MOL   C233 9429   4.644   7.549   1.797 -0.1369 -0.5316 -0.4896
   39MOL   C234 9430   4.681   7.462   1.674  0.0563  0.2889 -0.2915
   39MOL   O235 9431   4.790   7.397   1.662 -0.1298 -0.7396  0.3495
   39MOL   H236 9432   4.848   7.577   1.856 -0.5656 -0.5380  1.7493
   39MOL   H237 9433   4.632   7.745   2.001 -2.7665 -2.6090  1.0157
   39MOL   H238 9434   4.794   7.738   2.061 -0.2789  0.8853 -0.0089
   39MOL   H239 9435   4.704   7.598   2.060  2.5329  1.5365  2.7193
   39MOL   H240 9436   4.557   7.608   1.771  0.5961  0.3109 -1.0654
   39MOL   H241 9437   4.609   7.482   1.875  0.4509 -0.3476 -0.0644
   39MOL   H242 9438   4.605   7.483   1.598 -0.9292  0.3834  0.7106
   40MOL     O1 9439   1.591   3.017   7.221  0.4153  0.1038 -0.1194
   40MOL     C2 9440   1.488   2.977   7.137 -0.3880  0.2332  0.0787
   40MOL     C3 9441   1.535   2.872   7.035 -0.3057  0.2722  0.3284
   40MOL     C4 9442   1.385   2.921   7.232  0.0271  0.2124  0.3695
   40MOL     C5 9443   1.255   2.872   7.177  0.1776  0.0037 -0.1625
   40MOL     O6 9444   1.237   2.757   7.152  0.2385  0.2026  0.2886
   40MOL     H7 9445   1.467   3.071   7.086 -0.9096 -0.2140 -0.5344
   40MOL     H8 9446   1.462   2.828   6.968  0.1743  1.8535 -1.2689
   40MOL     H9 9447   1.584   2.785   7.080 -0.0346 -1.0324 -2.3958
   40MOL    H10 9448   1.608   2.919   6.969 -0.1837 -0.7407 -0.2674
   40MOL    H11 9449   1.380   2.997   7.311  1.6315  0.9686 -0.2417
   40MOL    H12 9450   1.431   2.836   7.283 -0.7531 -1.5147 -1.7193
   40MOL    H13 9451   1.653   3.050   7.158  0.4240  0.4388  0.0627
   40MOL    O14 9452   1.175   2.971   7.153  0.5363  0.0533  0.0105
   40MOL    C15 9453   1.054   2.958   7.092  0.7153  0.3243  0.1441
   40MOL    C16 9454   0.958   3.041   7.172  0.1107 -0.3351  0.0627
   40MOL    C17 9455   1.048   2.986   6.939 -1.0512  0.6421 -0.2951
   40MOL    C18 9456   1.123   2.877   6.855 -0.3375  0.2018 -0.2963
   40MOL    O19 9457   1.224   2.909   6.795 -0.2273  0.0812 -0.1333
   40MOL    H20 9458   1.017   2.856   7.100  0.1667  0.3804 -1.3432
   40MOL    H21 9459   0.866   3.050   7.114  0.4773 -1.5665 -0.7380
   40MOL    H22 9460   0.987   3.144   7.195  1.2710 -0.7114  0.3186
   40MOL    H23 9461   0.936   2.987   7.264 -0.6724  0.0388  0.1055
   40MOL    H24 9462   1.100   3.079   6.916 -1.1893  0.3796 -1.7254
   40MOL    H25 9463   0.948   3.008   6.901 -0.4927  0.5243 -1.8995
   40MOL    O26 9464   1.066   2.756   6.858  0.4951 -0.0567 -0.4369
   40MOL    C27 9465   1.114   2.654   6.774  0.4026  0.0609 -0.1541
   40MOL    C28 9466   1.202   2.570   6.866  0.2377 -0.0963  0.7790
   40MOL    C29 9467   0.988   2.588   6.724  0.2305 -0.4989 -0.1205
   40MOL    C30 9468   1.028   2.484   6.616 -0.3773  0.1563  0.0965
   40MOL    O31 9469   1.105   2.517   6.527 -0.3254  1.1666  0.1993
   40MOL    H32 9470   1.179   2.693   6.695  1.9311 -0.8612  0.6377
   40MOL    H33 9471   1.261   2.496   6.810 -0.5698 -0.4286  0.3553
   40MOL    H34 9472   1.148   2.512   6.941  1.0178  0.5636  1.8713
   40MOL    H35 9473   1.269   2.640   6.915  1.9273 -2.7474  2.4448
   40MOL    H36 9474   0.925   2.663   6.675  0.9697  0.7943  0.8830
   40MOL    H37 9475   0.933   2.545   6.807 -0.2812 -3.5562 -1.9726
   40MOL    O38 9476   0.984   2.364   6.648  0.4871  0.3718 -0.6679
   40MOL    C39 9477   1.040   2.247   6.586  0.1188  0.3224  0.1532
   40MOL    C40 9478   1.098   2.165   6.702  0.5131  0.0054  0.2524
   40MOL    C41 9479   0.916   2.186   6.513 -0.3562  0.3172 -0.0940
   40MOL    C42 9480   0.953   2.063   6.438 -0.3946  0.1646  0.2090
   40MOL    O43 9481   0.948   1.959   6.506  0.3407  0.2607 -0.3154
   40MOL    H44 9482   1.123   2.267   6.518  0.2784 -2.0830 -0.3845
   40MOL    H45 9483   1.199   2.190   6.736  0.7655 -1.7459  0.8880
   40MOL    H46 9484   1.114   2.062   6.669 -0.9850  0.3381 -1.5596
   40MOL    H47 9485   1.026   2.154   6.783  1.8852  0.8852  1.6146
   40MOL    H48 9486   0.867   2.257   6.447 -1.1917  1.1333  1.3758
   40MOL    H49 9487   0.840   2.162   6.587 -0.5053  1.7075  0.2142
   40MOL    O50 9488   0.990   2.079   6.317  0.0986 -0.4554 -0.2304
   40MOL    C51 9489   1.017   1.962   6.243 -0.0192  0.6530 -0.1632
   40MOL    C52 9490   0.898   1.942   6.143 -1.0874 -0.7458 -0.0060
   40MOL    C53 9491   1.154   1.965   6.167 -0.0142  0.4442 -0.0141
   40MOL    C54 9492   1.271   1.958   6.268 -0.7051  0.2307 -0.5472
   40MOL    O55 9493   1.257   2.003   6.382  0.0448 -0.0719  0.4994
   40MOL    H56 9494   1.019   1.873   6.305 -0.9549  0.7172 -0.0349
   40MOL    H57 9495   0.893   1.841   6.101 -0.5277 -0.8799  0.2473
   40MOL    H58 9496   0.906   2.017   6.065 -1.8519 -1.4002 -0.7260
   40MOL    H59 9497   0.803   1.957   6.195 -0.9586  1.8064 -0.4605
   40MOL    H60 9498   1.172   2.052   6.105  0.6441 -0.1940 -0.7250
   40MOL    H61 9499   1.163   1.873   6.109 -1.3432  0.2962  0.0070
   40MOL    O62 9500   1.370   1.894   6.221 -0.2999 -0.0786 -0.2513
   40MOL    C63 9501   1.490   1.875   6.295  0.5905  0.0504  0.3246
   40MOL    C64 9502   1.582   1.796   6.202  0.2912  0.3977 -0.2561
   40MOL    C65 9503   1.561   2.014   6.344  0.1510 -0.4308 -0.1232
   40MOL    C66 9504   1.691   1.992   6.420 -0.4712 -0.2433 -0.2816
   40MOL    O67 9505   1.688   1.964   6.542 -0.2881 -0.2734  0.1398
   40MOL    H68 9506   1.457   1.810   6.377  0.7374  1.0416  1.1851
   40MOL    H69 9507   1.608   1.845   6.108  1.4250 -1.2044 -0.8045
   40MOL    H70 9508   1.531   1.704   6.173 -1.5553  1.5713 -0.8442
   40MOL    H71 9509   1.674   1.759   6.247 -0.6471 -0.9188  0.6261
   40MOL    H72 9510   1.493   2.078   6.400 -0.3627 -1.4537  0.4305
   40MOL    H73 9511   1.593   2.067   6.254  0.5644 -0.6059 -0.0809
   40MOL    O74 9512   1.797   1.995   6.339 -0.3503  0.0214 -0.0943
   40MOL    C75 9513   1.929   1.966   6.401 -0.8366  1.6079  0.1600
   40MOL    C76 9514   1.969   1.822   6.351  0.6833  0.5867 -0.7122
   40MOL    C77 9515   2.025   2.068   6.344  0.7631 -0.3270 -0.0739
   40MOL    C78 9516   2.161   2.083   6.418  0.3139 -0.4324  0.2923
   40MOL    O79 9517   2.163   2.121   6.534  0.6819  0.1472 -0.0652
   40MOL    H80 9518   1.927   1.972   6.510 -0.6684  0.4336  0.2455
   40MOL    H81 9519   1.893   1.757   6.395  0.9798  1.0211  0.4765
   40MOL    H82 9520   2.061   1.772   6.382 -0.1694 -1.3123 -1.1924
   40MOL    H83 9521   1.964   1.815   6.243 -1.8305  3.4531 -0.8414
   40MOL    H84 9522   1.980   2.167   6.357 -1.6465 -0.8058 -3.8780
   40MOL    H85 9523   2.025   2.054   6.235 -2.2484  2.2528 -0.4623
   40MOL    O86 9524   2.257   2.044   6.341 -0.2028  0.0146 -0.0682
   40MOL    C87 9525   2.394   2.055   6.387  0.2603 -0.3789  0.2337
   40MOL    C88 9526   2.460   1.917   6.387  0.2081  0.0274 -0.4964
   40MOL    C89 9527   2.474   2.155   6.298  0.1940 -0.1666 -0.0504
   40MOL    C90 9528   2.465   2.303   6.340 -0.2290  0.1170 -0.3605
   40MOL    O91 9529   2.566   2.377   6.340  0.2391 -0.1138  0.2143
   40MOL    H92 9530   2.407   2.091   6.489  0.9199  0.5156 -0.1645
   40MOL    H93 9531   2.558   1.934   6.431 -0.2223  1.7780 -0.1843
   40MOL    H94 9532   2.487   1.874   6.290 -1.3098 -0.7889 -0.5717
   40MOL    H95 9533   2.399   1.844   6.440 -2.9123  2.0510 -1.1737
   40MOL    H96 9534   2.449   2.147   6.193 -1.4171  0.9690  0.2245
   40MOL    H97 9535   2.582   2.140   6.301 -0.1110 -2.4159  0.8701
   40MOL    O98 9536   2.343   2.336   6.386 -0.2669 -0.1972  0.0776
   40MOL    C99 9537   2.307   2.454   6.451  0.0617  0.4963  0.0156
   40MOL   C100 9538   2.227   2.539   6.345 -0.9132  0.2236  0.5661
   40MOL   C101 9539   2.243   2.426   6.587  1.0020 -0.2535 -0.6987
   40MOL   C102 9540   2.220   2.551   6.674 -0.0766 -0.1494  0.4785
   40MOL   O103 9541   2.287   2.575   6.770  0.4380  0.3145  0.0983
   40MOL   H104 9542   2.398   2.509   6.477  0.3099 -0.5232  1.3842
   40MOL   H105 9543   2.265   2.531   6.244 -1.1846  3.9481  0.0754
   40MOL   H106 9544   2.223   2.646   6.366  4.1536  0.5104  0.5023
   40MOL   H107 9545   2.129   2.492   6.338 -1.6750  1.6048  1.6257
   40MOL   H108 9546   2.313   2.362   6.641  1.7649  0.8768 -0.3223
   40MOL   H109 9547   2.158   2.358   6.595 -1.1693  2.2366 -1.8044
   40MOL   O110 9548   2.124   2.633   6.628  0.3147  0.2030 -1.0334
   40MOL   C111 9549   2.122   2.765   6.680 -0.5711 -0.0169  0.7933
   40MOL   C112 9550   2.183   2.848   6.562  0.1199 -0.0503 -0.4540
   40MOL   C113 9551   1.978   2.796   6.697  0.2492  0.1800  0.3115
   40MOL   C114 9552   1.953   2.927   6.758  0.1632  0.3481 -0.4653
   40MOL   O115 9553   1.902   3.019   6.697 -0.6192 -0.4539 -0.2394
   40MOL   H116 9554   2.180   2.780   6.772  0.2714  1.5697  0.0285
   40MOL   H117 9555   2.133   2.839   6.466  0.0386 -1.0156 -0.3234
   40MOL   H118 9556   2.287   2.820   6.549  0.1567  0.2895 -0.8834
   40MOL   H119 9557   2.178   2.952   6.596 -0.6143  0.0774 -0.9494
   40MOL   H120 9558   1.928   2.725   6.762 -2.0543 -0.3487 -1.9478
   40MOL   H121 9559   1.929   2.782   6.601 -0.5958 -1.0290  0.9113
   40MOL   O122 9560   1.995   2.939   6.885 -0.4826  0.3706  0.7765
   40MOL   C123 9561   1.970   3.060   6.953  0.1053 -0.1436 -0.3036
   40MOL   C124 9562   1.963   3.030   7.109 -0.8689 -0.1537  0.2232
   40MOL   C125 9563   2.072   3.172   6.909 -0.0388 -0.7310  0.5695
   40MOL   C126 9564   2.010   3.313   6.902  0.4135 -0.2292  0.0350
   40MOL   O127 9565   2.048   3.401   6.972 -0.5383 -0.0220  0.8201
   40MOL   H128 9566   1.870   3.090   6.922  0.2719 -1.6409 -2.4316
   40MOL   H129 9567   1.879   2.964   7.129 -0.7537 -0.2939  0.2460
   40MOL   H130 9568   1.946   3.129   7.153 -1.0666 -1.5260  3.3739
   40MOL   H131 9569   2.051   2.986   7.156 -0.5715  0.1742 -0.0171
   40MOL   H132 9570   2.102   3.160   6.805  1.0749  1.5697  0.5751
   40MOL   H133 9571   2.157   3.160   6.977  2.6553  2.5595 -1.9864
   40MOL   O134 9572   1.915   3.317   6.800 -0.2221  0.7985  0.0480
   40MOL   C135 9573   1.832   3.429   6.795 -0.1577  0.7020 -0.4851
   40MOL   C136 9574   1.781   3.425   6.656 -0.0795  0.5966  0.2809
   40MOL   C137 9575   1.732   3.417   6.908  0.5273 -0.1559 -0.3146
   40MOL   C138 9576   1.650   3.284   6.902  0.8522 -0.3172  0.3655
   40MOL   O139 9577   1.678   3.189   6.969 -0.3738  0.1142  0.4151
   40MOL   H140 9578   1.883   3.523   6.813 -0.1978  0.4133  1.2015
   40MOL   H141 9579   1.703   3.500   6.647  1.3290  2.3542  2.3893
   40MOL   H142 9580   1.739   3.329   6.626 -0.4722  0.6112  0.7901
   40MOL   H143 9581   1.854   3.466   6.586  1.0303 -0.7747  0.6136
   40MOL   H144 9582   1.677   3.511   6.914 -2.2140 -1.6569 -1.1685
   40MOL   H145 9583   1.792   3.422   6.999  0.9627  0.1296 -0.6099
   40MOL   O146 9584   1.552   3.304   6.809 -0.6014  0.0071  0.0479
   40MOL   C147 9585   1.467   3.199   6.771 -0.1177  0.2863 -0.3215
   40MOL   C148 9586   1.332   3.237   6.842 -0.0128  0.1321  0.3495
   40MOL   C149 9587   1.442   3.203   6.615  0.1237  0.0467  0.0723
   40MOL   C150 9588   1.547   3.114   6.543  0.2568  0.5924 -0.3464
   40MOL   O151 9589   1.622   3.165   6.460 -0.1667  0.2139  0.0987
   40MOL   H152 9590   1.484   3.099   6.808 -0.3890  0.5984  0.6455
   40MOL   H153 9591   1.307   3.339   6.815 -0.0961 -0.3483 -1.4856
   40MOL   H154 9592   1.338   3.237   6.951 -1.5675  0.4972  0.4440
   40MOL   H155 9593   1.248   3.179   6.804  0.0022  0.3634 -0.0324
   40MOL   H156 9594   1.441   3.305   6.577 -1.0128 -0.8083 -2.2762
   40MOL   H157 9595   1.348   3.151   6.596  0.2782 -0.2449  0.0884
   40MOL   O158 9596   1.534   2.978   6.563 -0.4082 -0.1667  0.6109
   40MOL   C159 9597   1.624   2.879   6.526 -1.0631  0.4376 -0.2998
   40MOL   C160 9598   1.604   2.755   6.619 -0.4715  0.2268  0.1815
   40MOL   C161 9599   1.608   2.843   6.376 -0.4485  0.0304 -0.0846
   40MOL   C162 9600   1.734   2.772   6.322 -0.2900  0.7663  0.0421
   40MOL   O163 9601   1.835   2.740   6.385  0.6711 -0.2679 -0.2663
   40MOL   H164 9602   1.722   2.926   6.535 -0.8225  0.3880 -2.5198
   40MOL   H165 9603   1.629   2.781   6.722 -1.3375 -0.7194  0.6298
   40MOL   H166 9604   1.669   2.677   6.579  0.4439  1.5133 -0.8934
   40MOL   H167 9605   1.498   2.735   6.608 -0.2490 -1.3943  0.8917
   40MOL   H168 9606   1.594   2.937   6.323  2.8158 -1.1730 -3.2919
   40MOL   H169 9607   1.515   2.787   6.362  0.3712 -1.9712  2.1152
   40MOL   O170 9608   1.712   2.727   6.200 -0.7993 -0.6968  0.8351
   40MOL   C171 9609   1.816   2.654   6.142 -0.6514  0.3365 -0.4886
   40MOL   C172 9610   1.756   2.528   6.072  0.6342 -0.6040  0.3263
   40MOL   C173 9611   1.903   2.739   6.060 -0.2177  0.2056 -0.3551
   40MOL   C174 9612   1.835   2.829   5.962  0.4371 -0.5679  0.2493
   40MOL   O175 9613   1.730   2.790   5.913 -0.1000  0.3077  0.1220
   40MOL   H176 9614   1.877   2.602   6.216  0.6713  4.7255  1.6196
   40MOL   H177 9615   1.653   2.543   6.039  0.9669  0.8381 -0.0669
   40MOL   H178 9616   1.761   2.445   6.143  0.6012 -1.5281 -0.7313
   40MOL   H179 9617   1.800   2.503   5.976 -0.1559 -0.5165 -0.0674
   40MOL   H180 9618   1.966   2.676   5.997 -0.4064  0.7606 -1.1105
   40MOL   H181 9619   1.968   2.797   6.125 -1.4361 -0.0652  1.1332
   40MOL   O182 9620   1.896   2.948   5.949  0.0386  0.5923  0.3920
   40MOL   C183 9621   1.837   3.053   5.874 -0.0419  0.2983 -0.6155
   40MOL   C184 9622   1.794   3.161   5.978  0.4060 -0.7323 -0.2598
   40MOL   C185 9623   1.935   3.108   5.767  0.4301  0.7539 -0.4682
   40MOL   C186 9624   2.061   3.185   5.817 -0.0335  0.0203  0.6157
   40MOL   O187 9625   2.060   3.248   5.923  0.5837  0.2305  0.2619
   40MOL   H188 9626   1.749   3.012   5.825  1.0423 -3.0872  0.1549
   40MOL   H189 9627   1.859   3.166   6.066 -0.9238 -1.7603  0.8082
   40MOL   H190 9628   1.707   3.129   6.036  0.5299  1.0653  0.9705
   40MOL   H191 9629   1.773   3.256   5.930 -1.2468 -0.9028  0.0907
   40MOL   H192 9630   1.891   3.186   5.704 -1.7965 -1.3738 -1.6399
   40MOL   H193 9631   1.956   3.025   5.699 -1.3897 -0.4464  0.4010
   40MOL   O194 9632   2.164   3.184   5.736  0.6106 -0.8010  0.6651
   40MOL   C195 9633   2.279   3.246   5.775 -0.6078  0.1665 -0.1234
   40MOL   C196 9634   2.386   3.136   5.771 -0.1421  0.2494  0.2795
   40MOL   C197 9635   2.283   3.355   5.669 -0.3829 -1.4759  0.1383
   40MOL   C198 9636   2.407   3.445   5.657  0.5118  0.2641  0.1814
   40MOL   O199 9637   2.406   3.534   5.572 -0.9643 -0.3118 -0.3589
   40MOL   H200 9638   2.282   3.281   5.878  0.3036 -0.2844  0.0017
   40MOL   H201 9639   2.480   3.191   5.777  0.6747 -0.9309 -1.5241
   40MOL   H202 9640   2.378   3.084   5.676 -1.0754 -1.1092  1.0733
   40MOL   H203 9641   2.375   3.057   5.846  2.9969 -0.3948  0.1279
   40MOL   H204 9642   2.210   3.431   5.696  2.0167  0.9865 -0.0419
   40MOL   H205 9643   2.271   3.312   5.569  0.5507 -2.4016  0.4125
   40MOL   O206 9644   2.499   3.415   5.746 -0.3454 -0.2435  0.3113
   40MOL   C207 9645   2.619   3.480   5.753 -0.0872  0.2189 -0.0050
   40MOL   C208 9646   2.600   3.585   5.861  0.2242  0.2567 -0.1383
   40MOL   C209 9647   2.741   3.385   5.770  0.4342  0.2133 -0.0869
   40MOL   C210 9648   2.801   3.354   5.635 -0.8623  0.1278 -1.0933
   40MOL   O211 9649   2.751   3.272   5.552 -0.2380 -0.5598 -0.1955
   40MOL   H212 9650   2.640   3.538   5.663 -0.4584  0.7919  0.2816
   40MOL   H213 9651   2.681   3.658   5.863 -1.1668  1.7778  1.3639
   40MOL   H214 9652   2.606   3.541   5.960  0.0976 -2.3852 -1.2370
   40MOL   H215 9653   2.506   3.637   5.845 -1.0025 -1.5654  1.0031
   40MOL   H216 9654   2.729   3.298   5.835  1.1066 -1.8706 -2.6527
   40MOL   H217 9655   2.815   3.434   5.834 -0.0766 -0.0438  0.7129
   40MOL   O218 9656   2.920   3.422   5.621  0.2789 -0.0085 -0.2679
   40MOL   C219 9657   2.987   3.427   5.497 -0.2194 -0.6557  0.8010
   40MOL   C220 9658   3.079   3.549   5.494  0.0489  0.0393 -0.4172
   40MOL   C221 9659   3.067   3.295   5.484  0.7615 -0.7169  0.4521
   40MOL   C222 9660   3.121   3.270   5.341 -0.2328 -0.2224 -0.6208
   40MOL   O223 9661   3.040   3.296   5.246 -0.7936 -0.1328  0.6156
   40MOL   H224 9662   2.920   3.433   5.411 -0.6453 -0.9877  1.1093
   40MOL   H225 9663   3.144   3.541   5.580 -1.3919 -1.3398  0.5813
   40MOL   H226 9664   3.008   3.630   5.510  2.3519  2.2372 -1.0749
   40MOL   H227 9665   3.135   3.560   5.401 -0.0237 -1.5525 -0.6746
   40MOL   H228 9666   2.995   3.216   5.505 -0.4100  0.6091  1.4364
   40MOL   H229 9667   3.142   3.264   5.557 -0.6208 -0.1417  2.1515
   40MOL   O230 9668   3.248   3.220   5.325  0.0914 -0.4385  0.0503
   40MOL   C231 9669   3.321   3.211   5.203 -0.2377  0.2634  0.1073
   40MOL   C232 9670   3.458   3.276   5.215 -0.6683 -0.2908 -0.3217
   40MOL   C233 9671   3.325   3.063   5.183 -0.3637 -1.1404 -0.0655
   40MOL   C234 9672   3.191   3.001   5.149  0.3398  0.2799  0.9425
   40MOL   O235 9673   3.174   2.877   5.141  0.4590 -0.2759 -0.4765
   40MOL   H236 9674   3.265   3.259   5.123 -0.3784 -0.5774 -0.3015
   40MOL   H237 9675   3.502   3.257   5.313 -2.9755  0.3294  0.8659
   40MOL   H238 9676   3.449   3.384   5.207 -1.0914 -0.2158  1.0749
   40MOL   H239 9677   3.531   3.247   5.139 -3.0771 -0.2909 -2.6848
   40MOL   H240 9678   3.355   3.022   5.279 -1.1032  0.6143  0.9332
   40MOL   H241 9679   3.403   3.036   5.111  0.1689 -0.3058  0.1827
   40MOL   H242 9680   3.107   3.069   5.136 -0.2417 -0.1740  2.2754
   41MOL     O1 9681   0.886   0.495   6.895  0.3380  0.5135  0.2118
   41MOL     C2 9682   0.891   0.373   6.966  0.0547 -0.8502 -0.2277
   41MOL     C3 9683   0.833   0.419   7.106  0.3390 -0.7127 -0.2626
   41MOL     C4 9684   0.817   0.264   6.896 -1.0244  0.1757  0.5524
   41MOL     C5 9685   0.834   0.121   6.954 -0.3360  0.2132 -0.1645
   41MOL     O6 9686   0.922   0.105   7.037  0.1942 -0.2610  0.4444
   41MOL     H7 9687   0.997   0.352   6.982  0.5317  1.1780 -0.5101
   41MOL     H8 9688   0.901   0.491   7.151  0.6565 -0.5770 -0.9531
   41MOL     H9 9689   0.835   0.334   7.175  0.2398  0.7677  1.6029
   41MOL    H10 9690   0.733   0.460   7.093  0.8666  0.4205 -0.7798
   41MOL    H11 9691   0.858   0.254   6.796  0.9465  0.2121  1.3379
   41MOL    H12 9692   0.713   0.293   6.879 -0.3017  1.7015 -1.3058
   41MOL    H13 9693   0.926   0.556   6.955  0.5398 -1.6293  2.3445
   41MOL    O14 9694   0.743   0.032   6.914  0.3283  0.2658 -0.3364
   41MOL    C15 9695   0.748   7.882   6.975  0.4293 -0.3049 -0.2158
   41MOL    C16 9696   0.627   7.865   7.068 -0.1205  0.3319 -0.9133
   41MOL    C17 9697   0.746   7.764   6.874  0.1672 -0.1247 -0.3561
   41MOL    C18 9698   0.864   7.748   6.781 -0.5187  0.0735 -0.5718
   41MOL    O19 9699   0.848   7.690   6.672  0.8808  0.0028 -0.2657
   41MOL    H20 9700   0.833   7.873   7.041 -1.0413 -0.9439  1.6349
   41MOL    H21 9701   0.533   7.865   7.014  0.1496 -0.1010 -1.3810
   41MOL    H22 9702   0.618   7.939   7.149  1.9265  0.1653 -0.4990
   41MOL    H23 9703   0.632   7.772   7.125 -0.6330  0.8798  0.0467
   41MOL    H24 9704   0.657   7.759   6.811  0.5990  1.6053 -1.1311
   41MOL    H25 9705   0.746   7.674   6.936  1.7755 -2.0554 -3.0059
   41MOL    O26 9706   0.981   7.795   6.827  0.1539 -0.2464 -0.2941
   41MOL    C27 9707   1.096   7.796   6.746  0.4269  0.6986  0.2071
   41MOL    C28 9708   1.167   7.932   6.747  0.0537 -0.2062 -0.0488
   41MOL    C29 9709   1.188   7.689   6.796  0.0283 -0.0612 -0.4112
   41MOL    C30 9710   1.276   7.632   6.680  0.3769 -1.0660 -0.9516
   41MOL    O31 9711   1.290   7.695   6.574 -0.1123 -0.2963  0.3199
   41MOL    H32 9712   1.069   7.778   6.642  0.2134 -0.8942  0.5332
   41MOL    H33 9713   1.263   7.934   6.697  0.1360  0.2779  0.1237
   41MOL    H34 9714   1.182   7.966   6.850 -0.0245 -2.7519  0.8320
   41MOL    H35 9715   1.111   0.033   6.699  1.0690 -0.7798 -2.2314
   41MOL    H36 9716   1.131   7.599   6.817 -0.5626  0.2699 -0.5798
   41MOL    H37 9717   1.252   7.730   6.875  0.9572 -0.6948 -0.8246
   41MOL    O38 9718   1.332   7.514   6.708 -0.1735 -0.0516  0.5318
   41MOL    C39 9719   1.397   7.433   6.612 -0.3898  0.2884 -0.4637
   41MOL    C40 9720   1.543   7.479   6.590  0.1836 -0.3713 -0.3353
   41MOL    C41 9721   1.387   7.280   6.659  0.0099  0.2343  0.1177
   41MOL    C42 9722   1.258   7.214   6.616 -0.2645 -0.4089 -0.2090
   41MOL    O43 9723   1.146   7.262   6.637 -0.1104  0.2946  0.2120
   41MOL    H44 9724   1.346   7.435   6.516 -0.2629  1.2745 -0.5091
   41MOL    H45 9725   1.602   7.414   6.526  2.0329 -0.4492  1.4018
   41MOL    H46 9726   1.596   7.474   6.685  1.6141  1.6251 -0.9926
   41MOL    H47 9727   1.535   7.578   6.544 -1.0270 -1.0376 -1.6116
   41MOL    H48 9728   1.412   7.266   6.764  2.0644 -2.2257 -0.6704
   41MOL    H49 9729   1.462   7.225   6.603  0.5287  1.2286 -0.1809
   41MOL    O50 9730   1.285   7.111   6.533  0.4121  0.2159 -0.0474
   41MOL    C51 9731   1.178   7.058   6.458  0.4798 -0.2002  0.4646
   41MOL    C52 9732   1.230   7.020   6.320 -0.3519 -0.3969  0.3250
   41MOL    C53 9733   1.106   6.939   6.533  0.0945 -0.1618 -0.2270
   41MOL    C54 9734   0.971   6.895   6.478 -0.1418 -0.3866 -0.1721
   41MOL    O55 9735   0.934   6.782   6.508  0.5332 -0.1962 -0.0880
   41MOL    H56 9736   1.099   7.133   6.453 -1.2236 -1.9501  0.7707
   41MOL    H57 9737   1.273   7.106   6.268 -0.3961 -0.5228  0.0791
   41MOL    H58 9738   1.158   6.977   6.250 -0.0761 -0.3142 -0.0104
   41MOL    H59 9739   1.312   6.949   6.323  1.6252  1.8803  1.7258
   41MOL    H60 9740   1.074   6.980   6.628 -1.1757 -0.0612 -0.6852
   41MOL    H61 9741   1.179   6.858   6.541  2.7719  1.8559 -3.0380
   41MOL    O62 9742   0.895   6.997   6.420 -0.4647 -0.1464  0.1226
   41MOL    C63 9743   0.766   6.967   6.361 -0.1536  0.3434 -0.2599
   41MOL    C64 9744   0.643   7.006   6.439 -0.2995 -0.0431  0.5381
   41MOL    C65 9745   0.766   7.029   6.220 -0.2341  0.0171  0.0495
   41MOL    C66 9746   0.821   6.936   6.117  0.2054  0.1060 -0.3033
   41MOL    O67 9747   0.908   6.970   6.035 -0.6090 -0.1321 -0.4587
   41MOL    H68 9748   0.758   6.860   6.342  1.0824  0.0179  1.0286
   41MOL    H69 9749   0.647   6.955   6.535 -0.4785  0.0214  0.5795
   41MOL    H70 9750   0.540   6.988   6.407  0.5560  0.1338 -2.4936
   41MOL    H71 9751   0.640   7.111   6.468  0.5769 -0.1319  0.9661
   41MOL    H72 9752   0.821   7.123   6.218 -1.0344  0.4946  0.4981
   41MOL    H73 9753   0.669   7.063   6.186 -1.6905 -1.0570  2.9591
   41MOL    O74 9754   0.752   6.816   6.112  0.1514 -0.4978  0.2259
   41MOL    C75 9755   0.803   6.707   6.029 -0.4095 -0.3315  0.3086
   41MOL    C76 9756   0.909   6.637   6.123  0.7103  0.7619  0.1288
   41MOL    C77 9757   0.690   6.605   5.991 -0.1849 -0.5664 -0.4912
   41MOL    C78 9758   0.754   6.499   5.900  0.1638 -0.4876  0.2152
   41MOL    O79 9759   0.736   6.381   5.920  0.6177 -0.0201  0.0425
   41MOL    H80 9760   0.858   6.745   5.943 -1.5030  1.3971  0.3478
   41MOL    H81 9761   0.890   6.641   6.230  0.1088 -1.6140  0.1423
   41MOL    H82 9762   0.996   6.699   6.103  0.5396  0.5773 -1.2320
   41MOL    H83 9763   0.940   6.536   6.095  1.1125  0.4555  1.6482
   41MOL    H84 9764   0.614   6.653   5.930 -0.4834  0.4426  0.6577
   41MOL    H85 9765   0.645   6.561   6.081  0.4909 -0.2105  0.0275
   41MOL    O86 9766   0.808   6.549   5.789 -0.1325 -0.2764  0.6820
   41MOL    C87 9767   0.868   6.463   5.697  0.3498  0.3116 -0.3160
   41MOL    C88 9768   0.807   6.501   5.566  0.3221  0.5478 -0.2124
   41MOL    C89 9769   1.027   6.489   5.703 -0.5913  0.6487  0.1175
   41MOL    C90 9770   1.098   6.425   5.827 -0.1387 -0.1279 -0.6358
   41MOL    O91 9771   1.127   6.494   5.922  0.4886  0.0826  0.1016
   41MOL    H92 9772   0.859   6.355   5.705 -0.8055  0.4439  0.3396
   41MOL    H93 9773   0.816   6.608   5.544 -0.4700  0.5268 -0.6833
   41MOL    H94 9774   0.698   6.502   5.563  0.3406  3.0135 -1.3413
   41MOL    H95 9775   0.842   6.440   5.484 -2.6135 -1.4028 -0.0772
   41MOL    H96 9776   1.048   6.596   5.703 -0.1900  0.5815  1.5028
   41MOL    H97 9777   1.071   6.446   5.614  1.4332 -0.5845  1.6565
   41MOL    O98 9778   1.134   6.290   5.821  0.2228 -0.5155 -0.2844
   41MOL    C99 9779   1.209   6.240   5.934  0.3406 -0.0636 -0.3970
   41MOL   C100 9780   1.108   6.207   6.046  0.6202  0.5695 -0.1003
   41MOL   C101 9781   1.272   6.123   5.861 -0.4542  0.6685 -0.7039
   41MOL   C102 9782   1.375   6.037   5.931  0.6583  0.3842  0.1399
   41MOL   O103 9783   1.427   6.064   6.037 -0.3050 -0.0659  0.5479
   41MOL   H104 9784   1.289   6.301   5.975  1.0389 -0.9616 -0.4147
   41MOL   H105 9785   1.134   6.132   6.121 -0.1414 -0.6888 -1.0685
   41MOL   H106 9786   1.012   6.171   6.009  0.1887  0.5793  0.9653
   41MOL   H107 9787   1.097   6.289   6.118 -1.8330 -0.2263  0.4776
   41MOL   H108 9788   1.333   6.169   5.783  1.6241 -0.6042  0.1191
   41MOL   H109 9789   1.195   6.054   5.824  1.8633 -1.2664 -2.0926
   41MOL   O110 9790   1.411   5.933   5.857 -0.2704  0.3359 -0.0176
   41MOL   C111 9791   1.511   5.837   5.903 -0.8252  0.4329  0.1741
   41MOL   C112 9792   1.509   5.712   5.813  0.2517  0.1837  0.0127
   41MOL   C113 9793   1.661   5.901   5.917 -0.0601  0.5769  0.4409
   41MOL   C114 9794   1.716   5.976   5.796  0.0212  0.3519 -0.2025
   41MOL   O115 9795   1.827   6.025   5.807  0.0585 -0.3489  0.1087
   41MOL   H116 9796   1.489   5.808   6.006  1.2878  0.0786  0.5361
   41MOL   H117 9797   1.559   5.734   5.719 -0.0958 -0.5782 -0.3527
   41MOL   H118 9798   1.408   5.674   5.803  0.4719 -0.7209  1.1327
   41MOL   H119 9799   1.573   5.639   5.862  0.0603 -1.6120 -2.3480
   41MOL   H120 9800   1.731   5.826   5.955  1.5847  1.7394 -0.2130
   41MOL   H121 9801   1.670   5.981   5.990  0.1436  0.5802  0.4140
   41MOL   O122 9802   1.643   5.970   5.686 -0.0686 -0.3023  0.6953
   41MOL   C123 9803   1.658   6.054   5.570  0.0727 -0.1729 -0.2107
   41MOL   C124 9804   1.677   5.958   5.452  0.6650  0.4094 -0.2170
   41MOL   C125 9805   1.548   6.163   5.552 -0.1092  0.7697 -1.0380
   41MOL   C126 9806   1.584   6.272   5.456  0.0137  0.2098  0.5831
   41MOL   O127 9807   1.699   6.278   5.411  0.9765 -0.0805 -0.3686
   41MOL   H128 9808   1.754   6.103   5.586  0.0266 -1.0108  2.9100
   41MOL   H129 9809   1.593   5.895   5.421  1.4324 -0.5692 -0.3432
   41MOL   H130 9810   1.740   5.881   5.499 -0.0781 -0.1723 -0.1545
   41MOL   H131 9811   1.736   5.998   5.370  1.2219  0.4475  0.1998
   41MOL   H132 9812   1.532   6.207   5.651  1.6992 -1.0777  0.1136
   41MOL   H133 9813   1.450   6.122   5.528  0.9279 -1.2848 -1.8536
   41MOL   O134 9814   1.481   6.352   5.425  0.0314  0.2580  0.9799
   41MOL   C135 9815   1.505   6.463   5.334 -0.5727 -0.7273  0.1646
   41MOL   C136 9816   1.434   6.432   5.196  0.1053 -0.2744  0.5082
   41MOL   C137 9817   1.453   6.599   5.399 -0.7383 -0.3802  0.1034
   41MOL   C138 9818   1.296   6.604   5.414 -0.1545 -0.0458  0.3209
   41MOL   O139 9819   1.238   6.543   5.495  0.1299 -0.3554  0.0586
   41MOL   H140 9820   1.608   6.485   5.306 -1.3518  0.9616 -1.5025
   41MOL   H141 9821   1.483   6.345   5.152  1.9278  0.5582  0.8662
   41MOL   H142 9822   1.459   6.508   5.123  0.6307 -0.8891  0.0412
   41MOL   H143 9823   1.327   6.412   5.207 -0.0939  0.9492  0.8432
   41MOL   H144 9824   1.487   6.687   5.344  0.4236 -0.3387  0.8661
   41MOL   H145 9825   1.493   6.617   5.499 -1.5077  0.2128  0.3172
   41MOL   O146 9826   1.236   6.676   5.322  0.0761  0.5321 -0.2542
   41MOL   C147 9827   1.092   6.687   5.321  0.2575 -0.5033 -1.1470
   41MOL   C148 9828   1.060   6.836   5.298 -0.5851 -0.1729 -0.0697
   41MOL   C149 9829   1.041   6.586   5.211 -0.4370 -0.2549  0.5240
   41MOL   C150 9830   0.900   6.605   5.167  0.5858  0.5422  0.3032
   41MOL   O151 9831   0.881   6.670   5.066  0.0489  0.1948  0.0763
   41MOL   H152 9832   1.049   6.659   5.417 -0.3627 -1.1196 -1.5918
   41MOL   H153 9833   0.959   6.865   5.328  0.5345  3.0274  0.7974
   41MOL   H154 9834   1.071   6.857   5.191 -3.3842 -0.7647 -0.5185
   41MOL   H155 9835   1.134   6.903   5.341  0.7485 -0.8602 -1.2389
   41MOL   H156 9836   1.060   6.486   5.249 -1.0673 -0.1668  1.0853
   41MOL   H157 9837   1.108   6.600   5.126 -0.5724  0.0599  0.4705
   41MOL   O158 9838   0.804   6.553   5.255 -0.3843 -0.4177 -0.0469
   41MOL   C159 9839   0.665   6.550   5.233  0.1257  0.1733  0.4881
   41MOL   C160 9840   0.613   6.416   5.269 -1.0584 -0.3751  0.3041
   41MOL   C161 9841   0.597   6.666   5.313 -0.2390 -0.0019  0.3050
   41MOL   C162 9842   0.612   6.800   5.245 -0.3920 -0.2042  0.5931
   41MOL   O163 9843   0.713   6.867   5.253  0.1102  0.5689 -0.0650
   41MOL   H164 9844   0.647   6.569   5.127 -1.0972  1.5124  0.9064
   41MOL   H165 9845   0.617   6.395   5.376  3.7883 -1.4384  0.0286
   41MOL   H166 9846   0.667   6.326   5.240  1.3376  0.5030  1.9106
   41MOL   H167 9847   0.507   6.405   5.243 -0.9395  1.0613 -0.8128
   41MOL   H168 9848   0.646   6.688   5.407  0.1830 -0.6568  0.2489
   41MOL   H169 9849   0.492   6.638   5.322  0.3161 -2.9311 -1.3187
   41MOL   O170 9850   0.499   6.834   5.179 -0.2906 -0.4505  0.2960
   41MOL   C171 9851   0.489   6.944   5.095  0.1558 -0.7198 -1.4924
   41MOL   C172 9852   0.408   6.897   4.971  0.3029 -0.1004  0.1005
   41MOL   C173 9853   0.438   7.071   5.168  0.4964  0.8570 -0.2535
   41MOL   C174 9854   0.294   7.081   5.203 -0.3842  0.6138  0.2335
   41MOL   O175 9855   0.263   7.077   5.329  0.0846  0.6512 -0.0154
   41MOL   H176 9856   0.590   6.963   5.059  0.8472  0.0186  0.7537
   41MOL   H177 9857   0.454   6.804   4.936  1.9168  1.3394 -1.6757
   41MOL   H178 9858   0.427   6.958   4.883 -1.4524 -0.6860 -0.7102
   41MOL   H179 9859   0.301   6.883   4.984  0.2200  1.0226  0.6368
   41MOL   H180 9860   0.460   7.152   5.098 -2.3261  1.0257 -1.0375
   41MOL   H181 9861   0.497   7.100   5.255  0.9714 -0.6618 -0.0485
   41MOL   O182 9862   0.218   7.109   5.090 -0.1829 -0.0596 -0.7195
   41MOL   C183 9863   0.082   7.144   5.104  0.4166 -0.8567  0.5882
   41MOL   C184 9864   0.059   7.291   5.088 -0.4753 -0.3834 -0.6186
   41MOL   C185 9865   7.972   7.063   4.999  0.2833 -0.1690 -0.2100
   41MOL   C186 9866   0.052   7.085   4.862  0.6737  0.2630 -0.0808
   41MOL   O187 9867   0.152   7.019   4.823  0.5698 -0.1931  0.5169
   41MOL   H188 9868   0.045   7.113   5.201 -0.9584 -0.6629  0.1359
   41MOL   H189 9869   0.089   7.325   4.989 -0.8232 -1.1054 -0.9730
   41MOL   H190 9870   0.122   7.343   5.161 -2.2327  0.2175  0.5135
   41MOL   H191 9871   7.935   7.322   5.103 -0.2355  0.7427 -1.2443
   41MOL   H192 9872   7.881   7.122   4.998  1.0439  1.0622  1.0007
   41MOL   H193 9873   7.947   6.958   5.015 -0.0719  0.0203  0.4761
   41MOL   O194 9874   7.969   7.184   4.791 -0.0688 -0.1480  0.5159
   41MOL   C195 9875   0.022   7.207   4.653 -0.3903  1.3434 -0.9121
   41MOL   C196 9876   7.876   7.173   4.564 -0.3743 -0.0846 -1.4241
   41MOL   C197 9877   0.079   7.349   4.623 -0.0817  0.1906  0.0000
   41MOL   C198 9878   7.961   7.464   4.647 -0.3349 -0.0830 -0.2184
   41MOL   O199 9879   7.928   7.539   4.552  0.2628 -0.8190 -0.2868
   41MOL   H200 9880   0.100   7.142   4.614 -2.0842  0.2193 -2.5162
   41MOL   H201 9881   7.792   7.243   4.573 -1.3449 -1.6553  3.3879
   41MOL   H202 9882   7.836   7.076   4.595 -0.4905  0.5197  0.3842
   41MOL   H203 9883   7.918   7.166   4.464  2.0893 -2.3720 -0.3061
   41MOL   H204 9884   0.111   7.360   4.519  1.2030 -1.8424  0.1529
   41MOL   H205 9885   0.173   7.364   4.675 -1.5318  1.5818  2.3131
   41MOL   O206 9886   7.937   7.488   4.767 -0.1664  0.3019  0.1403
   41MOL   C207 9887   7.846   7.590   4.801  0.0999 -0.4314  0.5267
   41MOL   C208 9888   7.773   7.535   4.924 -0.2155  0.6942  0.4397
   41MOL   C209 9889   7.902   7.730   4.831 -0.0654 -0.4872  0.0842
   41MOL   C210 9890   7.959   7.804   4.711 -0.8321 -0.6396  0.2520
   41MOL   O211 9891   0.100   7.818   4.705  0.5229  0.3840  0.0504
   41MOL   H212 9892   7.779   7.598   4.715 -1.0236  0.9391  1.4949
   41MOL   H213 9893   7.749   7.623   4.983 -3.5566  0.6522 -0.7661
   41MOL   H214 9894   7.824   7.468   4.993 -0.8032 -0.6102 -0.3740
   41MOL   H215 9895   7.689   7.469   4.903  0.2985  0.6062 -1.4704
   41MOL   H216 9896   0.006   7.725   4.900  1.0009 -1.5924 -1.2712
   41MOL   H217 9897   7.822   7.793   4.871  1.0657 -0.1518  1.8686
   41MOL   O218 9898   7.864   7.843   4.621  0.4741 -0.1103  0.5141
   41MOL   C219 9899   7.888   7.952   4.528 -0.0739 -0.1720  0.3738
   41MOL   C220 9900   7.928   0.107   4.592 -0.2807  0.4729 -0.6375
   41MOL   C221 9901   7.972   7.905   4.402 -0.6266  0.1283 -0.0166
   41MOL   C222 9902   7.946   0.006   4.276 -0.1653  0.9001 -0.5765
   41MOL   O223 9903   7.860   0.085   4.265 -0.0120  0.6290  0.2334
   41MOL   H224 9904   7.792   7.971   4.480  0.8873  1.4621 -0.9537
   41MOL   H225 9905   0.050   0.116   4.630  0.2247  0.3386 -1.9304
   41MOL   H226 9906   7.859   0.133   4.672 -0.9749  0.4259 -1.2208
   41MOL   H227 9907   7.916   0.184   4.516  0.1847  2.1942  0.9887
   41MOL   H228 9908   7.959   7.797   4.387 -0.0481 -0.1385  1.2919
   41MOL   H229 9909   0.097   7.924   4.423 -0.9062  1.8395 -0.1189
   41MOL   O230 9910   0.055   7.952   4.172  0.2410 -0.5696 -0.0059
   41MOL   C231 9911   0.053   0.038   4.043  0.4924 -0.3150  0.4566
   41MOL   C232 9912   0.185   0.113   4.022 -0.0344 -0.2491 -0.1595
   41MOL   C233 9913   0.029   7.906   3.940 -0.0270  0.4159 -0.6755
   41MOL   C234 9914   7.922   7.955   3.824  0.1709  0.5179  0.9165
   41MOL   O235 9915   7.939   7.911   3.707 -0.8870 -0.1003  0.4430
   41MOL   H236 9916   7.948   0.106   4.049 -0.3280 -1.2621 -0.3244
   41MOL   H237 9917   0.180   0.214   4.062 -2.5338 -0.3449 -0.1048
   41MOL   H238 9918   0.205   0.124   3.915  0.0157 -0.2963 -0.1540
   41MOL   H239 9919   0.270   0.066   4.071 -0.7189 -0.1398  1.1358
   41MOL   H240 9920   7.956   7.825   3.990  1.4146  0.5166  1.0799
   41MOL   H241 9921   0.124   7.865   3.906 -0.8184 -0.4753 -1.8584
   41MOL   H242 9922   7.839   0.041   3.851 -0.6687  0.7773 -2.1080
   42MOL     O1 9923   2.525   4.323   5.890 -0.7972 -0.2238 -0.2892
   42MOL     C2 9924   2.443   4.441   5.859 -0.8920 -0.1892  0.3809
   42MOL     C3 9925   2.531   4.538   5.785 -0.5774  0.0592 -0.2428
   42MOL     C4 9926   2.327   4.402   5.768  0.6206 -0.5036  0.0346
   42MOL     C5 9927   2.230   4.517   5.749  0.0968 -0.2304  0.4135
   42MOL     O6 9928   2.234   4.634   5.798  0.3796 -0.1743  0.6382
   42MOL     H7 9929   2.399   4.479   5.951 -1.4017  0.2379 -0.0386
   42MOL     H8 9930   2.479   4.628   5.751 -0.4768 -0.2917 -1.3241
   42MOL     H9 9931   2.573   4.482   5.702 -0.2494 -1.7963  1.1518
   42MOL    H10 9932   2.617   4.571   5.844  0.7054 -1.0124 -1.4781
   42MOL    H11 9933   2.273   4.321   5.818 -1.5864  2.1170  2.0725
   42MOL    H12 9934   2.363   4.371   5.670 -0.8743  1.1661 -1.0681
   42MOL    H13 9935   2.603   4.323   5.836 -0.9701 -1.6736 -0.5713
   42MOL    O14 9936   2.127   4.476   5.680 -0.8145  0.8084 -0.1874
   42MOL    C15 9937   2.015   4.564   5.657  0.1399 -0.0809  0.1944
   42MOL    C16 9938   2.044   4.659   5.536  0.0773 -0.2521  0.0927
   42MOL    C17 9939   1.891   4.479   5.615  0.0941 -0.0867  0.2591
   42MOL    C18 9940   1.827   4.410   5.735 -0.2535  0.9635  0.1513
   42MOL    O19 9941   1.873   4.303   5.780 -0.4484  0.3163 -0.4244
   42MOL    H20 9942   2.004   4.626   5.746 -1.6563  2.7695 -1.9124
   42MOL    H21 9943   1.970   4.738   5.521  0.0211 -0.0913  1.1536
   42MOL    H22 9944   2.040   4.601   5.445 -1.7506  1.1245 -0.7498
   42MOL    H23 9945   2.144   4.702   5.537 -0.2751  0.5887  1.2839
   42MOL    H24 9946   1.903   4.406   5.535 -0.5433 -1.4863  1.4098
   42MOL    H25 9947   1.821   4.551   5.573 -1.0619  0.0184  2.3009
   42MOL    O26 9948   1.737   4.491   5.794 -0.2881  0.4324  0.1453
   42MOL    C27 9949   1.681   4.456   5.925  0.0851  0.1219 -0.4075
   42MOL    C28 9950   1.599   4.581   5.967  0.2745 -0.0298 -0.0094
   42MOL    C29 9951   1.601   4.322   5.926  0.3459  0.4204 -0.1742
   42MOL    C30 9952   1.577   4.268   6.071  0.5670 -0.4478  0.0328
   42MOL    O31 9953   1.630   4.321   6.165 -0.2502 -0.2923 -0.2032
   42MOL    H32 9954   1.772   4.451   5.985 -0.2371  0.4963  0.1215
   42MOL    H33 9955   1.535   4.597   5.880  0.2898 -4.4132 -0.9305
   42MOL    H34 9956   1.657   4.671   5.989  0.7661 -0.9503  2.5968
   42MOL    H35 9957   1.543   4.550   6.055 -0.7799  1.6303 -0.0679
   42MOL    H36 9958   1.645   4.244   5.864 -0.2264 -0.6773  0.7974
   42MOL    H37 9959   1.506   4.342   5.877 -0.1181 -0.6075  0.2935
   42MOL    O38 9960   1.502   4.153   6.079 -0.0708  0.1610 -0.3942
   42MOL    C39 9961   1.480   4.087   6.208  0.3163  0.0693  0.2244
   42MOL    C40 9962   1.326   4.060   6.212 -0.5811  0.9664  0.5557
   42MOL    C41 9963   1.553   3.954   6.238  0.1157 -0.3649 -0.3368
   42MOL    C42 9964   1.690   3.974   6.307  0.3982 -0.3326  0.7221
   42MOL    O43 9965   1.733   4.087   6.336 -0.0520  0.5060 -0.7525
   42MOL    H44 9966   1.494   4.158   6.288 -1.5150  0.2652  0.3908
   42MOL    H45 9967   1.264   4.143   6.180  0.0798  0.7448 -1.3822
   42MOL    H46 9968   1.293   4.043   6.314 -0.8122 -0.0827  0.3138
   42MOL    H47 9969   1.283   3.975   6.159 -0.4600  1.7395 -0.8244
   42MOL    H48 9970   1.582   3.895   6.151 -0.9826  0.6599 -1.4281
   42MOL    H49 9971   1.503   3.891   6.311  0.5929 -0.3308  0.0183
   42MOL    O50 9972   1.741   3.856   6.341  0.2734 -0.4779  0.1943
   42MOL    C51 9973   1.845   3.852   6.442  0.4633 -0.1533 -0.5864
   42MOL    C52 9974   1.795   3.852   6.585  0.4475  0.2158 -0.0606
   42MOL    C53 9975   1.925   3.720   6.413  0.0773 -0.6984 -0.2385
   42MOL    C54 9976   2.047   3.697   6.505 -0.2870 -0.1179 -0.1760
   42MOL    O55 9977   2.064   3.588   6.564 -0.4554 -0.7345  0.5290
   42MOL    H56 9978   1.920   3.929   6.421  0.0921  0.0920 -1.0198
   42MOL    H57 9979   1.726   3.935   6.595 -1.7402 -1.7269  1.6781
   42MOL    H58 9980   1.876   3.869   6.656 -0.0240  0.4405  0.4256
   42MOL    H59 9981   1.744   3.760   6.616  0.1541  0.3464 -0.1596
   42MOL    H60 9982   1.965   3.724   6.311  0.3471 -4.1257 -0.3360
   42MOL    H61 9983   1.859   3.634   6.428 -0.6458  0.0946  1.1696
   42MOL    O62 9984   2.127   3.805   6.519  0.1843 -0.1342 -0.0502
   42MOL    C63 9985   2.243   3.804   6.600 -0.0590  0.4358 -0.6018
   42MOL    C64 9986   2.357   3.855   6.514  0.0493 -0.2181  0.0600
   42MOL    C65 9987   2.213   3.880   6.731  0.5013 -0.1865 -0.4475
   42MOL    C66 9988   2.326   3.881   6.835  0.8906  0.1680  1.0121
   42MOL    O67 9989   2.401   3.980   6.846 -0.3289 -0.0968 -0.0943
   42MOL    H68 9990   2.267   3.701   6.628 -1.8080  0.3795  0.7962
   42MOL    H69 9991   2.445   3.856   6.579 -0.5968  2.0171  0.9410
   42MOL    H70 9992   2.336   3.950   6.466  0.3690 -0.5380 -0.7330
   42MOL    H71 9993   2.375   3.783   6.434 -1.6437 -1.0389  0.3947
   42MOL    H72 9994   2.134   3.826   6.783  0.7562 -0.4004 -0.2845
   42MOL    H73 9995   2.192   3.984   6.707 -1.8703 -0.3007  0.9751
   42MOL    O74 9996   2.331   3.767   6.912  0.1354 -0.5682  0.0192
   42MOL    C75 9997   2.429   3.750   7.020  0.4358  0.9074 -0.0011
   42MOL    C76 9998   2.385   3.824   7.143  1.1198  0.2122  0.4128
   42MOL    C77 9999   2.452   3.602   7.050 -0.3221 -0.0185  0.0786
   42MOL    C7810000   2.540   3.537   6.937  0.7400 -0.0479  0.6784
   42MOL    O7910001   2.558   3.595   6.831 -0.2892  0.3539 -0.0095
   42MOL    H8010002   2.530   3.776   6.989  0.8225 -0.6421 -0.0734
   42MOL    H8110003   2.293   3.802   7.196  0.5780  0.1837 -0.5166
   42MOL    H8210004   2.377   3.932   7.128 -1.4762  0.0714  0.4624
   42MOL    H8310005   2.461   3.826   7.221  0.0403 -1.0783  1.5052
   42MOL    H8410006   2.357   3.553   7.070  0.0360 -0.4481  0.7225
   42MOL    H8510007   2.502   3.578   7.143 -2.4675  0.7820  1.4710
   42MOL    O8610008   2.589   3.415   6.972 -0.2249  0.8945  0.0269
   42MOL    C8710009   2.704   3.363   6.902  0.2761  0.9599 -0.2075
   42MOL    C8810010   2.813   3.362   7.013 -0.8016  0.2711  0.0287
   42MOL    C8910011   2.670   3.220   6.858  0.6967  0.1979 -0.1750
   42MOL    C9010012   2.609   3.226   6.718  0.6181  0.1973  0.1256
   42MOL    O9110013   2.632   3.141   6.632  0.4062 -0.4342  0.3803
   42MOL    H9210014   2.744   3.426   6.823  1.0703  0.5252 -0.1625
   42MOL    H9310015   2.782   3.287   7.085  0.6473  1.2169  1.6492
   42MOL    H9410016   2.820   3.462   7.055 -1.6589  0.6677 -0.7387
   42MOL    H9510017   2.911   3.346   6.967 -1.5424  1.8300 -2.2009
   42MOL    H9610018   2.611   3.166   6.932  1.0136  0.3327  0.1798
   42MOL    H9710019   2.759   3.157   6.865  1.2142  0.8397 -0.8114
   42MOL    O9810020   2.528   3.337   6.698 -0.6416  0.0589  0.6573
   42MOL    C9910021   2.456   3.356   6.572  0.6162  0.2219 -0.1243
   42MOL   C10010022   2.306   3.320   6.605 -0.5710  0.2637 -0.4206
   42MOL   C10110023   2.479   3.505   6.528  0.3318  0.0113  0.2939
   42MOL   C10210024   2.483   3.519   6.376  0.2759 -0.9397  0.3650
   42MOL   O10310025   2.586   3.544   6.321  0.3175 -0.3203 -0.3278
   42MOL   H10410026   2.483   3.290   6.490  0.5018 -0.0074  0.0193
   42MOL   H10510027   2.228   3.372   6.551 -2.1775 -0.2452  1.3545
   42MOL   H10610028   2.289   3.345   6.710 -2.4696 -2.0664 -0.1138
   42MOL   H10710029   2.291   3.213   6.589  0.4504  0.0079  0.3208
   42MOL   H10810030   2.574   3.540   6.568  1.5995 -0.8762 -1.8750
   42MOL   H10910031   2.405   3.562   6.585  0.7869  0.1545  0.7422
   42MOL   O11010032   2.364   3.518   6.323  0.5056  0.5620  0.1592
   42MOL   C11110033   2.348   3.536   6.178  1.0582 -0.2742  0.3863
   42MOL   C11210034   2.360   3.409   6.089  0.4596 -0.5282  0.0689
   42MOL   C11310035   2.217   3.609   6.159  1.0483  0.3456 -0.1773
   42MOL   C11410036   2.189   3.673   6.025 -0.3441 -0.2966  0.4912
   42MOL   O11510037   2.288   3.702   5.950 -0.2292 -0.0904  0.3773
   42MOL   H11610038   2.429   3.603   6.147  0.5282  1.1987  2.0892
   42MOL   H11710039   2.366   3.435   5.983 -2.2598 -2.3615 -0.6022
   42MOL   H11810040   2.271   3.348   6.108 -0.7795  1.2168 -0.0245
   42MOL   H11910041   2.445   3.351   6.126  0.9388  0.3694  0.3743
   42MOL   H12010042   2.221   3.683   6.239  2.8657 -0.3716  0.4206
   42MOL   H12110043   2.137   3.538   6.180  1.8308 -1.0368 -1.7162
   42MOL   O12210044   2.057   3.705   6.003  0.0897  0.0663 -0.5026
   42MOL   C12310045   2.015   3.780   5.884  0.0725  0.0019  0.4439
   42MOL   C12410046   1.967   3.680   5.775 -0.1500  0.7063 -0.1454
   42MOL   C12510047   1.903   3.885   5.907 -0.5504 -0.8510  0.0520
   42MOL   C12610048   1.924   4.003   6.004 -0.5055  0.3205  0.0713
   42MOL   O12710049   1.826   4.067   6.046 -0.4299 -0.7016  0.0412
   42MOL   H12810050   2.097   3.833   5.836  1.5881 -1.4439  1.3726
   42MOL   H12910051   1.946   3.727   5.679  0.3864  0.1070 -0.5593
   42MOL   H13010052   1.869   3.637   5.793 -1.3736  3.9036  1.2659
   42MOL   H13110053   2.044   3.606   5.754  0.4971  1.4889 -0.5343
   42MOL   H13210054   1.819   3.825   5.941 -0.2823 -0.2125  1.9117
   42MOL   H13310055   1.876   3.936   5.815 -3.2325  0.4866  1.5348
   42MOL   O13410056   2.052   4.013   6.047 -0.4014  0.4510 -0.0159
   42MOL   C13510057   2.096   4.120   6.140 -0.4473 -0.1984  0.2361
   42MOL   C13610058   2.224   4.070   6.211  0.3131  0.5218 -0.6727
   42MOL   C13710059   2.136   4.240   6.053  0.2265 -1.1420 -0.4976
   42MOL   C13810060   2.132   4.373   6.126  0.0042 -0.6085 -0.5917
   42MOL   O13910061   2.235   4.421   6.183 -0.0695 -0.2899 -0.3379
   42MOL   H14010062   2.017   4.142   6.212  0.2124  0.3201  0.8124
   42MOL   H14110063   2.197   3.983   6.271  3.0040  0.5750  0.6981
   42MOL   H14210064   2.297   4.126   6.269  0.8755 -0.8061 -0.0732
   42MOL   H14310065   2.291   4.031   6.134  2.4962 -0.5480  1.6837
   42MOL   H14410066   2.062   4.254   5.973  0.9652  3.2976 -0.5181
   42MOL   H14510067   2.226   4.219   5.995 -0.1859  1.1349 -2.0331
   42MOL   O14610068   2.015   4.430   6.115  0.1593 -0.5737  0.2455
   42MOL   C14710069   1.992   4.554   6.187  0.0503  0.3781 -0.2676
   42MOL   C14810070   1.987   4.660   6.077 -0.3546 -0.0238 -0.2764
   42MOL   C14910071   1.855   4.539   6.251  0.2118  0.4594 -0.1127
   42MOL   C15010072   1.819   4.654   6.342 -0.4993  0.1568 -0.2426
   42MOL   O15110073   1.832   4.659   6.461  0.3184 -0.2713 -0.2543
   42MOL   H15210074   2.065   4.570   6.266  0.4527  1.7056 -0.8987
   42MOL   H15310075   1.918   4.637   5.997  0.3740  0.8771 -1.1807
   42MOL   H15410076   2.087   4.680   6.039  0.4109 -1.6535  0.7924
   42MOL   H15510077   1.959   4.757   6.119  0.7882  0.1268  0.1841
   42MOL   H15610078   1.856   4.447   6.310 -1.9215 -0.3424 -1.2582
   42MOL   H15710079   1.772   4.531   6.180  0.4161 -0.2035 -0.2829
   42MOL   O15810080   1.758   4.759   6.276  0.4502  0.0988  0.1817
   42MOL   C15910081   1.718   4.868   6.347 -0.9419 -0.4902 -0.4971
   42MOL   C16010082   1.762   4.990   6.266  0.2862  0.2534  0.0627
   42MOL   C16110083   1.567   4.869   6.380  0.4444  0.3950  0.2293
   42MOL   C16210084   1.525   4.985   6.473 -0.0389  0.3689 -0.1769
   42MOL   O16310085   1.444   5.069   6.435  0.1158 -0.2179 -0.8543
   42MOL   H16410086   1.776   4.877   6.438  0.4893 -0.5085 -1.3997
   42MOL   H16510087   1.740   5.083   6.319  0.5891  0.2450  0.2085
   42MOL   H16610088   1.717   5.001   6.168  1.3600  0.5429 -0.4001
   42MOL   H16710089   1.869   4.983   6.247  0.4614  0.3068  0.9900
   42MOL   H16810090   1.527   4.779   6.427  0.3412 -0.3550 -1.2656
   42MOL   H16910091   1.507   4.868   6.289  1.3618 -0.9065 -0.3745
   42MOL   O17010092   1.580   4.981   6.594 -0.8490 -0.2214  0.0312
   42MOL   C17110093   1.562   5.090   6.687  0.2560 -0.1650 -0.7348
   42MOL   C17210094   1.487   5.039   6.811 -0.6457 -0.2878 -0.2575
   42MOL   C17310095   1.696   5.163   6.722  0.4717 -0.2019 -0.4107
   42MOL   C17410096   1.768   5.232   6.608 -0.6252  1.1965  0.7131
   42MOL   O17510097   1.888   5.220   6.589 -0.2511  0.5182  0.0426
   42MOL   H17610098   1.503   5.159   6.626  1.9079 -1.0505 -3.4244
   42MOL   H17710099   1.527   4.962   6.877 -0.7606 -1.3227 -1.3797
   42MOL   H17810100   1.380   5.024   6.792 -0.6442 -1.4052  0.5813
   42MOL   H17910101   1.464   5.127   6.872 -0.5181  1.6845 -2.9288
   42MOL   H18010102   1.766   5.101   6.777  1.9593  1.0608 -0.8212
   42MOL   H18110103   1.660   5.240   6.790  1.4349  0.1596 -0.3064
   42MOL   O18210104   1.691   5.304   6.529 -0.2930  0.4919 -0.1027
   42MOL   C18310105   1.745   5.371   6.415  0.0551 -0.4076  0.2238
   42MOL   C18410106   1.648   5.365   6.299  0.9009  0.1971  0.2144
   42MOL   C18510107   1.818   5.508   6.449  0.2211  0.8373 -0.4802
   42MOL   C18610108   1.724   5.623   6.461 -0.2472 -0.0950  0.5902
   42MOL   O18710109   1.721   5.687   6.567 -0.5930 -0.4238  0.3652
   42MOL   H18810110   1.813   5.300   6.367 -0.4378 -0.6977 -0.0423
   42MOL   H18910111   1.555   5.416   6.322  0.9776  0.1013  0.7430
   42MOL   H19010112   1.634   5.260   6.271  1.9491 -0.3132  1.5490
   42MOL   H19110113   1.690   5.417   6.212 -0.2189 -1.7955 -1.5663
   42MOL   H19210114   1.884   5.525   6.364 -0.5812 -1.2191 -1.5324
   42MOL   H19310115   1.867   5.496   6.546 -2.4275 -2.3717  0.5515
   42MOL   O19410116   1.657   5.655   6.350 -0.1172 -0.2916  0.3023
   42MOL   C19510117   1.567   5.765   6.341  0.7715 -0.2530  0.2477
   42MOL   C19610118   1.646   5.883   6.288 -0.2184 -0.3727  0.3094
   42MOL   C19710119   1.440   5.729   6.266  0.7399  0.7603  0.7457
   42MOL   C19810120   1.333   5.664   6.357 -0.2544  0.2899  0.3949
   42MOL   O19910121   1.226   5.720   6.374 -0.0060  0.0915  0.3732
   42MOL   H20010122   1.531   5.784   6.442 -0.2009  2.8938 -0.6353
   42MOL   H20110123   1.688   5.870   6.188 -1.2186 -1.1920 -0.0212
   42MOL   H20210124   1.727   5.914   6.353  1.1666 -1.2042 -0.9863
   42MOL   H20310125   1.571   5.959   6.265 -0.5424 -0.6624  0.3961
   42MOL   H20410126   1.468   5.668   6.180  0.4185  0.1452  1.0685
   42MOL   H20510127   1.382   5.813   6.228  1.7396  0.8279 -0.6806
   42MOL   O20610128   1.351   5.532   6.381  0.2084 -0.1527 -0.3895
   42MOL   C20710129   1.263   5.452   6.456 -0.2385 -0.0769  0.0007
   42MOL   C20810130   1.215   5.340   6.373 -0.1225  0.1184  0.1933
   42MOL   C20910131   1.332   5.393   6.575 -0.2556  0.1697 -0.1149
   42MOL   C21010132   1.383   5.489   6.678  0.0910 -0.7098 -0.2416
   42MOL   O21110133   1.361   5.614   6.674 -0.5336  0.6904  0.0903
   42MOL   H21210134   1.184   5.507   6.506 -0.0163 -1.5418  2.0202
   42MOL   H21310135   1.138   5.370   6.302 -1.3452  1.7938  2.1925
   42MOL   H21410136   1.173   5.262   6.435  0.8553 -0.3227  0.3140
   42MOL   H21510137   1.302   5.299   6.322 -0.9207 -1.7919  0.3364
   42MOL   H21610138   1.416   5.328   6.547 -0.4722 -0.5793  0.9481
   42MOL   H21710139   1.260   5.331   6.628  1.5042 -0.5505  1.5090
   42MOL   O21810140   1.452   5.433   6.779 -0.4292  0.3305 -0.5488
   42MOL   C21910141   1.475   5.510   6.895  0.2935  0.2634 -0.6408
   42MOL   C22010142   1.451   5.406   7.006  0.2740  0.6350 -0.7064
   42MOL   C22110143   1.618   5.577   6.906 -0.1731 -0.2929  0.6294
   42MOL   C22210144   1.646   5.655   7.027 -0.7250 -0.3423 -0.1836
   42MOL   O22310145   1.744   5.634   7.097 -0.3888 -0.5030  0.1882
   42MOL   H22410146   1.413   5.598   6.910  0.5974  0.8869 -2.8657
   42MOL   H22510147   1.350   5.367   7.000 -0.6668  2.5075  2.0937
   42MOL   H22610148   1.460   5.455   7.103 -0.5634 -1.1424  0.2892
   42MOL   H22710149   1.530   5.331   7.009 -1.0668 -0.7882 -0.1134
   42MOL   H22810150   1.638   5.630   6.813 -0.6538  0.9549  1.2234
   42MOL   H22910151   1.687   5.493   6.903  1.6036  1.1898 -0.7259
   42MOL   O23010152   1.558   5.754   7.053 -0.8082  0.8274 -0.2306
   42MOL   C23110153   1.588   5.857   7.145  0.5374 -0.3969 -0.0447
   42MOL   C23210154   1.550   5.987   7.089 -0.0251  0.0669  0.1226
   42MOL   C23310155   1.526   5.815   7.280  0.5128 -0.9803  0.3021
   42MOL   C23410156   1.368   5.817   7.284 -0.0440  0.3096 -0.8619
   42MOL   O23510157   1.313   5.773   7.383  0.9317 -0.3589 -0.8163
   42MOL   H23610158   1.696   5.853   7.159  0.5840  0.1388 -0.2584
   42MOL   H23710159   1.576   6.063   7.163  0.1754  1.3997 -1.2935
   42MOL   H23810160   1.442   6.000   7.083 -0.2353 -1.1390  1.3049
   42MOL   H23910161   1.598   6.011   6.994  0.0709 -2.3357 -0.4499
   42MOL   H24010162   1.562   5.891   7.350 -1.6383  1.0866 -0.7805
   42MOL   H24110163   1.567   5.717   7.305 -1.0253 -1.8875 -0.6301
   42MOL   H24210164   1.313   5.849   7.195 -1.5179 -2.0716 -0.8671
   43MOL     O110165   0.763   2.507   0.760 -0.2402 -0.2976 -0.3384
   43MOL     C210166   0.634   2.452   0.759  0.1983  0.2275 -0.2013
   43MOL     C310167   0.586   2.467   0.625  0.1633 -0.2471  0.1435
   43MOL     C410168   0.647   2.307   0.810  0.5895  0.0992 -0.0299
   43MOL     C510169   0.504   2.245   0.817  0.2195 -0.2812 -0.0324
   43MOL     O610170   0.452   2.179   0.726 -0.1285  0.9651 -0.2919
   43MOL     H710171   0.582   2.513   0.833 -0.3313  1.7906 -1.8516
   43MOL     H810172   0.479   2.447   0.614  0.6886 -1.9570 -2.3449
   43MOL     H910173   0.639   2.409   0.549 -1.9070 -3.4517  1.0322
   43MOL    H1010174   0.611   2.566   0.586  0.9343 -0.3178  0.4546
   43MOL    H1110175   0.692   2.304   0.909  0.6113 -0.0920 -0.0451
   43MOL    H1210176   0.712   2.251   0.743 -0.2704 -1.1752  0.1871
   43MOL    H1310177   0.785   2.528   0.850  3.1300 -0.1792 -1.1096
   43MOL    O1410178   0.445   2.276   0.932  0.6915  0.0674 -0.6275
   43MOL    C1510179   0.318   2.227   0.977 -1.0029 -0.2046  0.1264
   43MOL    C1610180   0.316   2.202   1.137 -0.1060  0.4652 -0.0842
   43MOL    C1710181   0.198   2.313   0.929 -0.0055  0.3567  0.5145
   43MOL    C1810182   0.202   2.453   0.980 -0.1070 -0.1087 -0.1211
   43MOL    O1910183   0.277   2.542   0.939 -0.3509 -0.2180 -0.0507
   43MOL    H2010184   0.291   2.135   0.926  0.7048 -0.2377 -0.7580
   43MOL    H2110185   0.322   2.294   1.194 -2.2413 -0.5566  1.8860
   43MOL    H2210186   0.410   2.152   1.157 -1.4449 -1.9297  0.5284
   43MOL    H2310187   0.232   2.138   1.167 -0.3435  0.2091 -1.2484
   43MOL    H2410188   0.103   2.268   0.957  0.8179 -0.7022  1.6403
   43MOL    H2510189   0.202   2.332   0.822  1.5086  0.3468  0.5611
   43MOL    O2610190   0.113   2.465   1.074 -0.4500 -0.0199 -0.2822
   43MOL    C2710191   0.079   2.589   1.129  0.6076  0.4620 -0.2837
   43MOL    C2810192   7.896   2.591   1.120 -0.0762  0.5411 -0.8973
   43MOL    C2910193   0.121   2.599   1.279  0.1813 -0.2216  0.1512
   43MOL    C3010194   0.262   2.656   1.289 -0.2919 -0.6607  0.1428
   43MOL    O3110195   0.278   2.759   1.350  0.3819  0.2864 -0.0117
   43MOL    H3210196   0.119   2.672   1.071 -0.4552  0.6623 -0.7367
   43MOL    H3310197   7.850   2.580   1.022  0.9833  0.6950 -1.4176
   43MOL    H3410198   7.853   2.674   1.176  0.1890  0.8891 -1.2052
   43MOL    H3510199   7.862   2.507   1.180 -0.0976  1.5471  0.5399
   43MOL    H3610200   0.115   2.495   1.310  0.3432 -0.5821 -1.0025
   43MOL    H3710201   0.049   2.654   1.339  0.5683 -1.5866  1.8870
   43MOL    O3810202   0.360   2.579   1.228 -0.3188 -0.5053  1.0289
   43MOL    C3910203   0.497   2.616   1.248 -0.7112 -0.2057  0.8530
   43MOL    C4010204   0.554   2.513   1.339 -0.3044  0.0973  0.2665
   43MOL    C4110205   0.566   2.623   1.112  0.1082  0.2353  0.1481
   43MOL    C4210206   0.711   2.670   1.111 -0.0112  0.1693 -0.7862
   43MOL    O4310207   0.790   2.641   1.022 -0.2156  0.3027  1.1120
   43MOL    H4410208   0.500   2.713   1.299 -1.3036  1.2108 -1.7038
   43MOL    H4510209   0.559   2.418   1.287 -1.2560  0.1914 -0.0001
   43MOL    H4610210   0.485   2.492   1.421 -0.4190 -2.4916 -0.4320
   43MOL    H4710211   0.652   2.545   1.374 -0.5625  0.1004  0.9951
   43MOL    H4810212   0.512   2.686   1.041 -0.0542 -0.0348  0.0303
   43MOL    H4910213   0.567   2.520   1.077 -0.3164 -1.1441  3.9633
   43MOL    O5010214   0.738   2.774   1.193  0.1216  0.0354  0.0495
   43MOL    C5110215   0.863   2.841   1.200  0.0226  0.2694  0.0797
   43MOL    C5210216   0.857   2.973   1.130  0.0083  0.4594 -0.8107
   43MOL    C5310217   0.893   2.858   1.350 -0.5469  0.1471 -0.1442
   43MOL    C5410218   0.992   2.757   1.398 -0.0955 -0.4179 -0.7185
   43MOL    O5510219   1.089   2.731   1.330  0.2873 -0.4343  0.3642
   43MOL    H5610220   0.939   2.780   1.153  0.7965  0.6186  0.8672
   43MOL    H5710221   0.849   2.965   1.022  0.6871  1.3511 -0.9259
   43MOL    H5810222   0.948   3.030   1.145  0.4277 -0.2365 -0.6672
   43MOL    H5910223   0.767   3.033   1.147  0.0539 -0.1068  1.7484
   43MOL    H6010224   0.806   2.866   1.415 -0.6487 -0.3377 -0.2177
   43MOL    H6110225   0.950   2.950   1.365 -1.1636  0.5173 -0.0682
   43MOL    O6210226   0.972   2.710   1.519  0.4211 -0.1310 -0.5533
   43MOL    C6310227   1.068   2.616   1.575  0.4035 -0.2054  0.4417
   43MOL    C6410228   1.098   2.645   1.725  0.1575 -0.8774 -0.7406
   43MOL    C6510229   1.012   2.470   1.556  0.0985 -0.5104 -0.2854
   43MOL    C6610230   1.040   2.405   1.421 -0.3566 -0.0339  0.6253
   43MOL    O6710231   0.950   2.395   1.340 -0.5194  0.1319 -0.0470
   43MOL    H6810232   1.167   2.626   1.533  1.3080  1.4581  2.8408
   43MOL    H6910233   1.110   2.753   1.732  1.4740 -1.0806  0.4948
   43MOL    H7010234   1.199   2.613   1.751  0.5423  0.3504 -0.7045
   43MOL    H7110235   1.023   2.610   1.796  0.5288  1.1274  0.6789
   43MOL    H7210236   0.904   2.477   1.563  0.1933 -0.1294  0.9217
   43MOL    H7310237   1.062   2.408   1.630 -0.8167 -0.9630 -0.0412
   43MOL    O7410238   1.162   2.340   1.412  0.4154  0.1181  0.1234
   43MOL    C7510239   1.204   2.309   1.277 -0.2050  0.5019 -0.1784
   43MOL    C7610240   1.267   2.438   1.201  0.0882 -0.3227 -0.4401
   43MOL    C7710241   1.294   2.180   1.279  0.4211 -0.1452  0.1105
   43MOL    C7810242   1.428   2.199   1.347 -0.1089 -0.4971  0.5359
   43MOL    O7910243   1.533   2.228   1.288  0.3830  0.1500  0.4621
   43MOL    H8010244   1.114   2.281   1.222 -0.6568 -0.7138  1.1400
   43MOL    H8110245   1.191   2.514   1.181 -0.7012 -1.4851 -1.9003
   43MOL    H8210246   1.293   2.402   1.102  1.5990 -1.7576  0.4631
   43MOL    H8310247   1.354   2.475   1.255 -0.4411 -0.4031  0.4887
   43MOL    H8410248   1.313   2.159   1.173  2.6116 -2.2527  0.8830
   43MOL    H8510249   1.262   2.086   1.323 -1.3562 -0.0902 -1.0129
   43MOL    O8610250   1.426   2.191   1.480  0.1843  0.4835 -0.0400
   43MOL    C8710251   1.545   2.208   1.560 -0.2005  0.0164  0.5041
   43MOL    C8810252   1.508   2.308   1.663 -0.1140  0.3240 -0.3189
   43MOL    C8910253   1.597   2.074   1.610 -0.2042  0.1368  0.2665
   43MOL    C9010254   1.500   2.006   1.701  0.0819 -0.1365 -0.0833
   43MOL    O9110255   1.400   1.951   1.653 -0.4001  0.3333  0.2578
   43MOL    H9210256   1.619   2.247   1.490  1.2244 -0.0155  1.9629
   43MOL    H9310257   1.441   2.270   1.741  0.4027 -1.4414 -0.7150
   43MOL    H9410258   1.456   2.398   1.633  1.4512  2.2225  2.4476
   43MOL    H9510259   1.599   2.344   1.711  0.3293 -1.3748  0.1587
   43MOL    H9610260   1.694   2.084   1.659 -0.7698  0.3677  1.3528
   43MOL    H9710261   1.620   2.015   1.521 -3.6792  0.6706 -1.0640
   43MOL    O9810262   1.545   2.011   1.826  0.6724  0.1454  0.3591
   43MOL    C9910263   1.469   1.976   1.939 -0.0335 -0.0707  0.4624
   43MOL   C10010264   1.457   1.826   1.943  0.2274 -0.8738  0.4046
   43MOL   C10110265   1.528   2.035   2.071 -0.6354  0.1444  0.2024
   43MOL   C10210266   1.500   2.177   2.108 -0.3794 -0.3117  0.0419
   43MOL   O10310267   1.482   2.268   2.028 -1.0441 -0.6542 -0.3212
   43MOL   H10410268   1.373   2.027   1.926 -0.5322 -0.5965  2.0137
   43MOL   H10510269   1.545   1.775   1.903  2.4942  3.5467 -0.6249
   43MOL   H10610270   1.372   1.801   1.879 -0.1165 -0.9534  0.8897
   43MOL   H10710271   1.442   1.783   2.042  1.2041 -4.0004 -0.7516
   43MOL   H10810272   1.636   2.021   2.069 -0.8274 -1.4684 -0.2248
   43MOL   H10910273   1.501   1.969   2.154  0.1505  0.0463  0.3869
   43MOL   O11010274   1.512   2.199   2.239 -0.0766  0.1921  0.1933
   43MOL   C11110275   1.489   2.332   2.292 -0.6634 -0.4936 -0.1579
   43MOL   C11210276   1.385   2.328   2.409  0.1718  0.2642  0.7978
   43MOL   C11310277   1.629   2.390   2.330  0.0909  0.3068  0.0484
   43MOL   C11410278   1.642   2.538   2.333 -0.0445 -0.0017  0.0811
   43MOL   O11510279   1.535   2.597   2.348 -0.1367 -0.1999  0.1142
   43MOL   H11610280   1.451   2.405   2.220  1.9556 -0.4596 -1.5655
   43MOL   H11710281   1.290   2.289   2.373  0.6639  0.3026 -0.5680
   43MOL   H11810282   1.370   2.424   2.460 -0.6359  1.1098 -0.9977
   43MOL   H11910283   1.423   2.273   2.495 -1.3262 -1.7610  0.1928
   43MOL   H12010284   1.719   2.353   2.282 -0.4533  1.7729 -2.1672
   43MOL   H12110285   1.647   2.354   2.431  2.4890 -0.3739 -0.6080
   43MOL   O12210286   1.764   2.588   2.308  0.1218 -0.0506  0.1544
   43MOL   C12310287   1.802   2.722   2.299 -0.0729  0.6169 -0.5920
   43MOL   C12410288   1.884   2.770   2.413 -0.0809 -0.7988 -0.5156
   43MOL   C12510289   1.855   2.746   2.158  0.1527 -0.2737  0.2273
   43MOL   C12610290   1.785   2.701   2.027  0.5130  0.0944  0.4021
   43MOL   O12710291   1.846   2.631   1.939  0.7051  0.0013  0.2070
   43MOL   H12810292   1.702   2.766   2.295 -0.8593 -1.0841 -0.1694
   43MOL   H12910293   1.834   2.741   2.506  0.8341 -0.5848  0.0564
   43MOL   H13010294   1.864   2.877   2.419  0.2425 -0.8400  2.5788
   43MOL   H13110295   1.988   2.738   2.402  0.4291  0.9934 -1.1849
   43MOL   H13210296   1.953   2.699   2.155 -0.4221 -1.4392 -0.8489
   43MOL   H13310297   1.863   2.854   2.155  1.3158 -0.2860  2.2114
   43MOL   O13410298   1.666   2.755   2.017  0.5562  0.2447  0.8461
   43MOL   C13510299   1.583   2.728   1.902 -0.1857 -0.7335 -0.0461
   43MOL   C13610300   1.508   2.587   1.917  0.1126 -0.6290 -0.6488
   43MOL   C13710301   1.481   2.839   1.879  0.4282 -0.0224  0.6458
   43MOL   C13810302   1.419   2.851   1.735  0.1106 -0.7439  0.2445
   43MOL   O13910303   1.418   2.763   1.645 -0.2332  0.0373 -1.0925
   43MOL   H14010304   1.638   2.722   1.808 -0.5384 -1.4530 -0.2110
   43MOL   H14110305   1.440   2.582   2.002  0.4577  1.8224 -0.1858
   43MOL   H14210306   1.576   2.511   1.954 -0.1525 -0.6812 -0.2647
   43MOL   H14310307   1.469   2.547   1.824  0.5781 -0.3330 -0.9752
   43MOL   H14410308   1.533   2.934   1.894  1.0040  0.0310 -1.4602
   43MOL   H14510309   1.392   2.836   1.942 -0.5783 -1.1398 -0.7811
   43MOL   O14610310   1.359   2.972   1.710  0.3078  0.7302 -0.1234
   43MOL   C14710311   1.285   2.988   1.595 -0.4385  0.4749  0.2513
   43MOL   C14810312   1.163   3.080   1.623 -0.2259 -0.3306  0.0670
   43MOL   C14910313   1.371   3.046   1.483 -0.4111 -1.0439  0.1902
   43MOL   C15010314   1.324   3.021   1.339 -0.3376 -0.2731 -0.0709
   43MOL   O15110315   1.219   3.074   1.293 -0.5751 -0.4015  0.1335
   43MOL   H15210316   1.248   2.891   1.563  1.2841 -0.5721  1.3946
   43MOL   H15310317   1.100   3.090   1.535  1.0164  1.5341 -0.6413
   43MOL   H15410318   1.192   3.184   1.641 -0.7321 -0.0167 -0.9222
   43MOL   H15510319   1.120   3.048   1.718  2.7601 -0.0422  1.5841
   43MOL   H15610320   1.470   3.001   1.490  1.3300  1.8674 -4.1559
   43MOL   H15710321   1.380   3.154   1.499  1.4965 -0.8551 -1.9686
   43MOL   O15810322   1.409   2.939   1.274 -0.3227 -0.2186  0.7612
   43MOL   C15910323   1.391   2.918   1.128 -0.0861  0.2812  0.6211
   43MOL   C16010324   1.533   2.874   1.082 -0.0736  0.2027  0.6833
   43MOL   C16110325   1.274   2.815   1.089 -0.6583 -0.6077  0.0604
   43MOL   C16210326   1.249   2.783   0.935 -0.0142  0.1913 -0.9233
   43MOL   O16310327   1.315   2.837   0.852  0.0484 -0.1115 -0.8415
   43MOL   H16410328   1.378   3.008   1.068 -3.0992  0.8538  2.0470
   43MOL   H16510329   1.609   2.940   1.124  2.1257  1.0107 -4.1471
   43MOL   H16610330   1.557   2.883   0.976 -0.9227 -1.2370  0.3645
   43MOL   H16710331   1.554   2.773   1.116  0.9969 -0.1112 -0.8407
   43MOL   H16810332   1.185   2.862   1.128 -0.9575  0.4621 -1.8672
   43MOL   H16910333   1.289   2.718   1.136 -1.9540 -0.9116 -0.1463
   43MOL   O17010334   1.169   2.684   0.918  0.4528 -0.4457  0.2478
   43MOL   C17110335   1.132   2.652   0.779 -0.5562  0.3072  0.4391
   43MOL   C17210336   1.118   2.495   0.782 -0.3220 -0.0686 -0.0318
   43MOL   C17310337   0.995   2.714   0.734  0.1084  0.2494  0.5958
   43MOL   C17410338   1.005   2.868   0.712 -0.3863 -0.2164  0.2565
   43MOL   O17510339   0.959   2.949   0.793 -0.1770 -0.1564  0.1787
   43MOL   H17610340   1.210   2.676   0.707 -1.8838  2.3823 -0.3468
   43MOL   H17710341   1.117   2.443   0.686 -0.4036  0.2286 -0.1900
   43MOL   H17810342   1.023   2.469   0.829 -0.7636 -0.2997 -1.0321
   43MOL   H17910343   1.190   2.441   0.844 -0.3023  1.1191  0.9828
   43MOL   H18010344   0.914   2.703   0.806  0.1846 -0.3517  0.5942
   43MOL   H18110345   0.978   2.664   0.638 -0.3567  1.5813 -0.0310
   43MOL   O18210346   1.079   2.900   0.606  0.2641 -0.6439  0.6267
   43MOL   C18310347   1.098   3.044   0.567  0.0234 -0.2692 -0.1527
   43MOL   C18410348   1.239   3.067   0.538 -0.0842 -0.1080  0.5888
   43MOL   C18510349   0.993   3.092   0.461  0.0970 -0.3352 -0.1538
   43MOL   C18610350   0.862   3.148   0.521  0.1748  0.3806 -0.3063
   43MOL   O18710351   0.750   3.110   0.482 -0.5089 -0.2244 -0.1297
   43MOL   H18810352   1.083   3.095   0.663 -1.4073  0.8232 -0.9353
   43MOL   H18910353   1.300   3.042   0.625  1.2375 -1.1213 -0.5941
   43MOL   H19010354   1.264   3.168   0.507  1.4355 -0.2387  1.3111
   43MOL   H19110355   1.276   3.001   0.459 -1.5404 -2.5272  1.8620
   43MOL   H19210356   0.964   3.016   0.389 -2.1710  0.5891 -0.2833
   43MOL   H19310357   1.044   3.175   0.413  3.1139 -1.6212  0.7478
   43MOL   O19410358   0.886   3.245   0.612  0.0877  0.1698 -0.2995
   43MOL   C19510359   0.776   3.301   0.680 -0.2054  0.4370 -0.3884
   43MOL   C19610360   0.784   3.278   0.828 -0.5737  0.2349  0.8358
   43MOL   C19710361   0.771   3.448   0.624 -0.5250 -0.0854 -0.5136
   43MOL   C19810362   0.881   3.543   0.653  0.3035 -0.4552 -0.0933
   43MOL   O19910363   0.928   3.553   0.770 -0.2550 -0.1924  0.3884
   43MOL   H20010364   0.679   3.264   0.645 -0.8750  1.5814  0.2286
   43MOL   H20110365   0.800   3.171   0.844 -1.5309  0.2337  1.8976
   43MOL   H20210366   0.693   3.314   0.877 -0.9036  1.7386 -0.8563
   43MOL   H20310367   0.867   3.332   0.874  0.5396 -0.4263 -0.3768
   43MOL   H20410368   0.678   3.491   0.660 -0.8962 -0.3931 -1.0837
   43MOL   H20510369   0.757   3.442   0.516 -2.3167 -0.9567 -0.2571
   43MOL   O20610370   0.934   3.603   0.549 -0.2382  0.0913  0.4700
   43MOL   C20710371   1.062   3.667   0.551 -0.4657  0.4634 -0.2249
   43MOL   C20810372   1.175   3.561   0.527  0.0275 -0.9801  0.3512
   43MOL   C20910373   1.063   3.794   0.459  0.7674  0.5578  0.4385
   43MOL   C21010374   0.982   3.907   0.516 -0.3944 -0.3923  0.0692
   43MOL   O21110375   1.032   4.013   0.539  0.6666  0.7590 -0.3116
   43MOL   H21210376   1.084   3.702   0.652  0.0342  2.6898 -1.0854
   43MOL   H21310377   1.150   3.488   0.450 -0.8547 -0.5519  0.2334
   43MOL   H21410378   1.198   3.491   0.608  1.3419  1.3824  2.0744
   43MOL   H21510379   1.269   3.608   0.498 -1.7424  1.7234 -1.2689
   43MOL   H21610380   1.012   3.767   0.366 -0.6367 -0.7316  1.5721
   43MOL   H21710381   1.165   3.832   0.447  1.0822 -0.1138  0.9829
   43MOL   O21810382   0.854   3.875   0.520  0.0263 -0.0052 -0.2595
   43MOL   C21910383   0.762   3.963   0.570 -0.4227  0.8975 -0.4515
   43MOL   C22010384   0.698   4.047   0.463  0.1800 -0.5785  0.4595
   43MOL   C22110385   0.655   3.883   0.649 -0.7794 -0.0810  0.5336
   43MOL   C22210386   0.548   3.794   0.578 -0.7040 -0.9587 -0.0517
   43MOL   O22310387   0.448   3.762   0.642  0.6085  0.2139 -0.1333
   43MOL   H22410388   0.800   4.033   0.643  2.4313 -2.9723  1.9519
   43MOL   H22510389   0.648   3.986   0.388 -0.1331 -0.9687  0.9826
   43MOL   H22610390   0.767   4.110   0.407 -0.7068 -1.6725 -1.9342
   43MOL   H22710391   0.624   4.112   0.509  1.2231  2.3567 -1.8541
   43MOL   H22810392   0.607   3.958   0.713  0.0406  0.9985 -0.1039
   43MOL   H22910393   0.707   3.816   0.717 -1.3324 -1.9964 -0.8971
   43MOL   O23010394   0.575   3.769   0.452 -0.2500 -0.6414 -0.1254
   43MOL   C23110395   0.479   3.707   0.362  0.0062 -0.0663 -0.1866
   43MOL   C23210396   0.479   3.809   0.255  0.2535  0.2236  0.2890
   43MOL   C23310397   0.529   3.561   0.320 -0.1011 -0.6444  0.2303
   43MOL   C23410398   0.475   3.451   0.418  0.1558  0.6923 -0.3666
   43MOL   O23510399   0.450   3.341   0.383 -0.0645  0.6062 -0.2641
   43MOL   H23610400   0.379   3.699   0.402  0.4870  0.3389  1.1288
   43MOL   H23710401   0.400   3.783   0.185  0.3786  1.8981 -0.5047
   43MOL   H23810402   0.566   3.818   0.190 -0.7978  0.8318 -1.0538
   43MOL   H23910403   0.449   3.908   0.292 -2.2612  0.4548 -2.2123
   43MOL   H24010404   0.638   3.555   0.318  0.1132  1.8207  1.6838
   43MOL   H24110405   0.503   3.529   0.219  0.1143  2.3238 -0.8202
   43MOL   H24210406   0.445   3.483   0.518  0.4730 -1.0758  0.3110
   44MOL     O110407   4.369   4.296   5.224 -0.0854  0.2851 -0.3678
   44MOL     C210408   4.365   4.203   5.117  0.0022  0.3184 -0.0331
   44MOL     C310409   4.511   4.150   5.128 -0.6423 -0.4322  0.0119
   44MOL     C410410   4.253   4.093   5.140 -0.6283  0.2855 -0.4461
   44MOL     C510411   4.192   4.050   5.006  0.0446  0.1326 -0.4197
   44MOL     O610412   4.079   4.077   4.971 -0.6624 -0.0636 -0.2410
   44MOL     H710413   4.330   4.255   5.028 -0.2310  0.2955  0.0431
   44MOL     H810414   4.592   4.223   5.124 -1.5085  0.6857  1.9733
   44MOL     H910415   4.533   4.079   5.049  0.4471  0.5688 -0.6016
   44MOL    H1010416   4.521   4.096   5.223 -1.6417  1.5114  1.2663
   44MOL    H1110417   4.176   4.138   5.204 -0.3512 -1.8195  1.3980
   44MOL    H1210418   4.284   4.000   5.186 -0.0372  0.1405 -1.1225
   44MOL    H1310419   4.353   4.258   5.308  1.2221 -0.7847 -0.5764
   44MOL    O1410420   4.281   3.974   4.929  0.1177 -0.9239 -0.2726
   44MOL    C1510421   4.235   3.928   4.799 -0.4646 -0.2038  0.0500
   44MOL    C1610422   4.335   3.984   4.701  0.8244  0.0231  0.6555
   44MOL    C1710423   4.228   3.770   4.801  0.1500  0.0096  0.4123
   44MOL    C1810424   4.101   3.717   4.872 -0.0074  0.5967  0.2480
   44MOL    O1910425   4.097   3.716   4.994  0.0566 -0.5387 -0.0467
   44MOL    H2010426   4.135   3.968   4.780 -0.0687  1.2594  0.9791
   44MOL    H2110427   4.342   4.091   4.720 -0.6242  0.0888  0.8568
   44MOL    H2210428   4.305   3.967   4.598 -0.0552 -1.7779  1.1827
   44MOL    H2310429   4.436   3.942   4.708  0.1277 -1.6256  1.3368
   44MOL    H2410430   4.319   3.730   4.846 -0.5046 -0.8628  0.9652
   44MOL    H2510431   4.224   3.729   4.701  1.0925  1.9329 -0.4517
   44MOL    O2610432   4.007   3.659   4.793 -0.1841 -0.2685 -0.5872
   44MOL    C2710433   3.883   3.618   4.842  0.1735 -0.3605  0.5385
   44MOL    C2810434   3.787   3.608   4.720  0.0219 -0.4110  0.4188
   44MOL    C2910435   3.892   3.490   4.932  0.0245  0.8497  0.0111
   44MOL    C3010436   3.784   3.487   5.035  0.3011  0.0327 -0.4303
   44MOL    O3110437   3.705   3.389   5.051 -0.4461  0.0982 -0.5956
   44MOL    H3210438   3.855   3.700   4.909  1.3281 -1.0257  1.8641
   44MOL    H3310439   3.786   3.699   4.659 -0.9107  1.1579  2.6895
   44MOL    H3410440   3.689   3.594   4.765 -0.7278 -2.2625 -1.6652
   44MOL    H3510441   3.815   3.535   4.644 -0.2077  1.0623 -1.1314
   44MOL    H3610442   3.989   3.500   4.981 -0.2190  0.9071  0.4856
   44MOL    H3710443   3.902   3.397   4.875 -0.5216  0.8647 -0.1029
   44MOL    O3810444   3.781   3.591   5.111  0.6259 -0.2999 -0.2615
   44MOL    C3910445   3.694   3.595   5.222 -0.2874  0.3727 -0.3528
   44MOL    C4010446   3.737   3.513   5.345  0.2375 -0.0365  0.7246
   44MOL    C4110447   3.652   3.742   5.244 -0.5450 -0.3149 -0.1776
   44MOL    C4210448   3.530   3.772   5.328  0.0036  0.2567  0.3839
   44MOL    O4310449   3.454   3.686   5.361  0.2046  0.3527 -0.4042
   44MOL    H4410450   3.600   3.548   5.193  0.7167 -3.2461  2.0218
   44MOL    H4510451   3.831   3.553   5.383 -0.4527  1.8402  0.4925
   44MOL    H4610452   3.752   3.407   5.322  0.5465  0.5296 -1.7821
   44MOL    H4710453   3.659   3.529   5.419 -0.9829  2.3270 -1.0375
   44MOL    H4810454   3.641   3.799   5.151 -0.8870  0.8123  0.5518
   44MOL    H4910455   3.729   3.782   5.309 -0.7749  0.2857 -0.2691
   44MOL    O5010456   3.508   3.896   5.343 -0.1869 -0.3319  0.2169
   44MOL    C5110457   3.408   3.948   5.426 -0.6800 -0.3959  0.8195
   44MOL    C5210458   3.463   3.946   5.567  0.2176  0.0550 -0.7193
   44MOL    C5310459   3.355   4.080   5.372  0.1533 -0.2881  0.1678
   44MOL    C5410460   3.274   4.060   5.244  0.6002 -0.4246 -0.2511
   44MOL    O5510461   3.225   4.158   5.182 -0.4207 -0.3573 -0.1181
   44MOL    H5610462   3.324   3.880   5.442 -0.2659 -0.5082  2.6260
   44MOL    H5710463   3.568   3.974   5.575  0.2054 -0.3017  0.7908
   44MOL    H5810464   3.467   3.849   5.616  0.8346  0.1003 -0.6780
   44MOL    H5910465   3.403   4.012   5.629  1.4965 -1.4098  2.1482
   44MOL    H6010466   3.426   4.162   5.358  0.4083 -0.7696 -1.4753
   44MOL    H6110467   3.290   4.114   5.453  0.8495 -1.4271  1.2330
   44MOL    O6210468   3.257   3.925   5.206 -0.1561  0.3686  0.2762
   44MOL    C6310469   3.139   3.893   5.127  0.2260 -0.0154  0.2164
   44MOL    C6410470   3.194   3.819   5.014 -0.9481 -0.6620 -0.1565
   44MOL    C6510471   3.039   3.821   5.218  0.1241  0.0535  0.1499
   44MOL    C6610472   2.902   3.795   5.165 -0.1589  0.1732  0.4659
   44MOL    O6710473   2.860   3.849   5.066 -0.4988  0.8049  0.6572
   44MOL    H6810474   3.093   3.977   5.075 -0.2250  1.0334  2.2765
   44MOL    H6910475   3.112   3.773   4.959 -1.1867 -0.2377 -0.1516
   44MOL    H7010476   3.252   3.733   5.049 -0.5583 -0.1040  0.5964
   44MOL    H7110477   3.257   3.879   4.948 -2.8235 -0.3649 -1.7230
   44MOL    H7210478   3.036   3.886   5.305  2.7021 -1.8312  1.7082
   44MOL    H7310479   3.078   3.730   5.263  1.3610  0.1463 -0.7014
   44MOL    O7410480   2.840   3.719   5.251 -0.6942  0.0685  0.1623
   44MOL    C7510481   2.703   3.684   5.231  0.7025  0.6565  0.6901
   44MOL    C7610482   2.668   3.542   5.280 -0.4004  0.4534  0.7997
   44MOL    C7710483   2.612   3.795   5.292  0.2164  0.7808  0.2130
   44MOL    C7810484   2.613   3.801   5.444  0.2389 -0.4527 -0.7161
   44MOL    O7910485   2.693   3.739   5.512 -0.7539  0.0905 -0.2809
   44MOL    H8010486   2.686   3.681   5.123  2.0597  0.8470  0.4589
   44MOL    H8110487   2.689   3.515   5.384 -0.7254 -1.1871  0.4441
   44MOL    H8210488   2.717   3.465   5.221 -0.1763  0.9484  0.3314
   44MOL    H8310489   2.560   3.533   5.266 -0.9794  3.0513  2.9840
   44MOL    H8410490   2.514   3.770   5.252 -0.1694  0.2031  1.4986
   44MOL    H8510491   2.643   3.890   5.248 -1.5594  1.3544  0.1801
   44MOL    O8610492   2.505   3.881   5.493  0.4973  0.3399 -0.2343
   44MOL    C8710493   2.502   3.921   5.632 -0.1754 -0.0345  0.1624
   44MOL    C8810494   2.550   4.064   5.654  1.0217  0.3209 -0.2208
   44MOL    C8910495   2.358   3.898   5.696 -0.3534  0.4715  0.2532
   44MOL    C9010496   2.242   3.990   5.654  0.2939  0.4955  0.7266
   44MOL    O9110497   2.182   4.055   5.737  0.0165 -0.3672 -0.0735
   44MOL    H9210498   2.575   3.862   5.688  0.7906  0.7314 -0.2834
   44MOL    H9310499   2.534   4.100   5.755 -1.5905 -1.4387  0.0200
   44MOL    H9410500   2.481   4.127   5.598  0.9143  0.1898 -0.2347
   44MOL    H9510501   2.649   4.091   5.617  0.7676 -0.4350 -1.4880
   44MOL    H9610502   2.381   3.912   5.802  0.7759 -0.5946  0.1610
   44MOL    H9710503   2.332   3.793   5.690  3.0014 -0.3330 -1.8555
   44MOL    O9810504   2.221   3.988   5.522  0.6448 -0.4136  0.1254
   44MOL    C9910505   2.120   4.063   5.450 -0.4955 -0.1420 -0.6578
   44MOL   C10010506   1.983   4.009   5.500 -0.2048 -0.6005 -0.2959
   44MOL   C10110507   2.125   4.216   5.471 -0.2868  0.4151  0.0172
   44MOL   C10210508   2.235   4.290   5.390  0.1185  0.3717 -0.1474
   44MOL   O10310509   2.196   4.351   5.291  0.1110 -0.1676 -0.4907
   44MOL   H10410510   2.143   4.049   5.344 -1.1558 -0.2669 -0.7891
   44MOL   H10510511   1.946   4.050   5.594 -0.9027 -1.5504 -0.1595
   44MOL   H10610512   1.990   3.901   5.513 -0.8495 -0.7148 -0.8423
   44MOL   H10710513   1.910   4.030   5.422 -0.3159 -3.1086 -0.9137
   44MOL   H10810514   2.136   4.245   5.576 -2.3779 -0.9610  0.6464
   44MOL   H10910515   2.023   4.250   5.452  0.6102  2.3185 -1.5775
   44MOL   O11010516   2.364   4.269   5.434  0.4822 -0.3838 -0.1685
   44MOL   C11110517   2.470   4.305   5.347  0.1031  0.9356  0.2946
   44MOL   C11210518   2.567   4.400   5.430 -0.7156  0.7738  0.4076
   44MOL   C11310519   2.541   4.177   5.286  0.3678  0.4637 -0.0427
   44MOL   C11410520   2.604   4.211   5.148  0.3706 -0.0192 -1.0066
   44MOL   O11510521   2.557   4.190   5.040 -0.3492 -0.2738  0.3166
   44MOL   H11610522   2.436   4.374   5.270  2.0987 -0.2561 -1.7080
   44MOL   H11710523   2.609   4.348   5.516  0.6535 -0.6777 -1.0884
   44MOL   H11810524   2.504   4.479   5.469 -1.1195 -0.1157  1.5715
   44MOL   H11910525   2.650   4.437   5.369  0.1727  0.0642  1.1789
   44MOL   H12010526   2.467   4.104   5.253 -1.0364  1.1645  1.4361
   44MOL   H12110527   2.605   4.135   5.364  0.6909  1.2129  0.1047
   44MOL   O12210528   2.720   4.266   5.173  0.2092  0.2791  0.4300
   44MOL   C12310529   2.807   4.320   5.069 -0.1718 -0.4621 -0.5424
   44MOL   C12410530   2.860   4.445   5.133 -0.2141 -0.6182  0.0965
   44MOL   C12510531   2.913   4.214   5.038  0.5652 -0.1709  0.4499
   44MOL   C12610532   2.983   4.229   4.903 -0.0418  0.0584  0.7845
   44MOL   O12710533   2.942   4.316   4.830  0.1083  1.1550 -0.3636
   44MOL   H12810534   2.748   4.336   4.979 -1.4707 -0.9240  0.2208
   44MOL   H12910535   2.788   4.520   5.165  0.1230 -0.3387  0.2005
   44MOL   H13010536   2.929   4.492   5.064 -1.4092  1.4579  0.2796
   44MOL   H13110537   2.917   4.423   5.224  0.7196  3.7583  0.6757
   44MOL   H13210538   2.857   4.120   5.041 -2.4583  1.5049 -0.8329
   44MOL   H13310539   2.989   4.208   5.116 -0.2413 -0.4098  1.2272
   44MOL   O13410540   3.085   4.146   4.873 -0.1284  0.1619 -0.0654
   44MOL   C13510541   3.136   4.139   4.732 -0.2940 -0.5938  0.0052
   44MOL   C13610542   3.284   4.170   4.732 -0.2380 -0.0138 -0.0422
   44MOL   C13710543   3.123   3.996   4.680  0.4238 -0.7426 -0.2228
   44MOL   C13810544   2.983   3.942   4.676 -0.1181 -0.2382  0.1024
   44MOL   O13910545   2.978   3.816   4.672  0.3437 -0.0408  0.2975
   44MOL   H14010546   3.083   4.207   4.665 -0.1163  0.5544  1.0147
   44MOL   H14110547   3.342   4.151   4.641  1.9347 -1.3794  1.5620
   44MOL   H14210548   3.318   4.097   4.806 -0.0091  0.0798 -0.0548
   44MOL   H14310549   3.304   4.271   4.768 -0.3491  0.3426 -0.9657
   44MOL   H14410550   3.192   3.929   4.732  0.3048 -0.0095  0.9081
   44MOL   H14510551   3.151   3.996   4.575 -0.1788  1.6973 -0.4279
   44MOL   O14610552   2.890   4.036   4.653 -0.0476  0.0067 -0.0572
   44MOL   C14710553   2.776   3.990   4.596  0.4534 -0.4211 -0.2827
   44MOL   C14810554   2.670   4.089   4.638  0.7800  0.6170 -0.4255
   44MOL   C14910555   2.805   3.980   4.447 -0.3083  0.3804  0.0668
   44MOL   C15010556   2.692   3.934   4.358 -0.2645  0.6473  0.9515
   44MOL   O15110557   2.660   3.993   4.252  0.0426  0.2571  0.0850
   44MOL   H15210558   2.745   3.897   4.643 -0.4492  0.5396  1.0707
   44MOL   H15310559   2.666   4.124   4.741  1.4454  2.4638 -1.0079
   44MOL   H15410560   2.576   4.046   4.602  0.6242  0.9573 -0.4203
   44MOL   H15510561   2.672   4.180   4.579  2.0582 -0.8498 -2.7128
   44MOL   H15610562   2.888   3.913   4.429 -0.5157  0.7156 -2.3188
   44MOL   H15710563   2.847   4.069   4.401 -1.7426 -0.2811 -2.6259
   44MOL   O15810564   2.632   3.819   4.408  0.0226 -0.0680  0.4568
   44MOL   C15910565   2.531   3.745   4.340 -0.5401 -0.2555  0.3260
   44MOL   C16010566   2.550   3.604   4.399 -0.0058  0.0817 -0.5172
   44MOL   C16110567   2.396   3.812   4.371  0.1177  0.5285 -0.3579
   44MOL   C16210568   2.337   3.802   4.510  0.0559  0.0940  0.2325
   44MOL   O16310569   2.224   3.755   4.525  0.0934 -0.6975  0.1358
   44MOL   H16410570   2.552   3.745   4.233  1.6817  1.5526  0.7253
   44MOL   H16510571   2.658   3.587   4.408  0.0191  1.6107  3.0437
   44MOL   H16610572   2.509   3.534   4.326 -0.4573 -0.2877  0.0849
   44MOL   H16710573   2.501   3.582   4.494 -0.8306  0.6362 -0.8143
   44MOL   H16810574   2.321   3.753   4.317 -1.5079  0.4542  1.8968
   44MOL   H16910575   2.373   3.909   4.327 -1.4213  0.1318 -0.4617
   44MOL   O17010576   2.423   3.845   4.607  0.3790 -0.1375  0.1328
   44MOL   C17110577   2.395   3.819   4.750  0.1987 -0.1090 -0.1650
   44MOL   C17210578   2.463   3.687   4.783 -0.2331  0.1560  0.1289
   44MOL   C17310579   2.438   3.936   4.845  0.4613 -0.7383 -0.5796
   44MOL   C17410580   2.353   3.944   4.968 -0.2976  0.1432  0.2748
   44MOL   O17510581   2.390   3.886   5.069 -0.3946 -0.5323 -0.0631
   44MOL   H17610582   2.288   3.804   4.765  0.1473 -0.0272 -0.4480
   44MOL   H17710583   2.455   3.670   4.890  1.7910 -0.5620  0.1911
   44MOL   H17810584   2.569   3.689   4.756 -0.8585 -0.5414 -2.4866
   44MOL   H17910585   2.413   3.605   4.732  1.4536  0.3541 -1.9289
   44MOL   H18010586   2.434   4.034   4.799  0.5311  0.0554  1.0520
   44MOL   H18110587   2.542   3.911   4.865  1.1527  1.6963 -0.9680
   44MOL   O18210588   2.228   4.001   4.963 -0.0084  0.4888  0.0433
   44MOL   C18310589   2.137   3.997   5.071 -0.3736 -0.3452  0.1931
   44MOL   C18410590   2.083   4.141   5.101  0.4663  0.6453 -0.2497
   44MOL   C18510591   2.031   3.897   5.035 -0.1993  0.1018 -0.2382
   44MOL   C18610592   1.930   3.947   4.927 -0.2549 -0.2679  0.0734
   44MOL   O18710593   1.814   3.973   4.953 -0.1415  0.0002 -0.5636
   44MOL   H18810594   2.182   3.965   5.165  0.4031 -0.7947 -0.3243
   44MOL   H18910595   2.030   4.199   5.027 -0.5359  1.0158  0.7502
   44MOL   H19010596   2.169   4.199   5.137  0.3008  0.9414 -0.3365
   44MOL   H19110597   2.015   4.129   5.185  0.5097  0.3034 -0.2637
   44MOL   H19210598   1.970   3.875   5.122  0.1654 -1.1193 -0.2802
   44MOL   H19310599   2.072   3.803   4.998  0.8705  0.6309 -0.4265
   44MOL   O19410600   1.989   3.959   4.809  0.3932 -0.7188  0.0245
   44MOL   C19510601   1.910   4.008   4.697 -0.0773 -0.0791 -1.0695
   44MOL   C19610602   1.810   3.895   4.656 -0.5059 -0.1247  0.0025
   44MOL   C19710603   1.859   4.153   4.713 -0.3291  0.6315  0.0248
   44MOL   C19810604   1.791   4.203   4.585  0.0796  0.2732 -0.2057
   44MOL   O19910605   1.846   4.272   4.504  0.1049  0.3821  0.2026
   44MOL   H20010606   1.986   4.018   4.620  1.5977 -0.6329  0.4689
   44MOL   H20110607   1.861   3.809   4.613 -1.9045  0.0191 -1.9986
   44MOL   H20210608   1.737   3.923   4.580  0.0427 -0.1978 -0.5525
   44MOL   H20310609   1.754   3.854   4.740 -0.0510 -1.4563 -0.3355
   44MOL   H20410610   1.937   4.226   4.732  0.4025  0.6530 -2.8363
   44MOL   H20510611   1.783   4.151   4.792 -2.3294  0.1847 -1.8411
   44MOL   O20610612   1.655   4.187   4.576 -0.1675  0.1467 -0.3770
   44MOL   C20710613   1.572   4.239   4.469  0.1547  0.5223 -0.0932
   44MOL   C20810614   1.532   4.112   4.392  0.1329 -1.4755  0.1872
   44MOL   C20910615   1.450   4.311   4.536  0.5580 -0.3709 -0.5603
   44MOL   C21010616   1.383   4.409   4.438  0.0200  0.2479 -0.0172
   44MOL   O21110617   1.406   4.532   4.438  0.3167  0.1781  0.2337
   44MOL   H21210618   1.631   4.307   4.408  0.3632  2.1756  1.9013
   44MOL   H21310619   1.610   4.051   4.347  0.7809 -1.4491  1.2435
   44MOL   H21410620   1.465   4.139   4.310  0.7200  1.3813  0.5757
   44MOL   H21510621   1.485   4.043   4.463  1.7851 -1.1713  1.6214
   44MOL   H21610622   1.480   4.372   4.621  0.8565 -0.9896 -0.2222
   44MOL   H21710623   1.380   4.234   4.568  0.9478 -0.6033 -0.2653
   44MOL   O21810624   1.306   4.338   4.347 -0.4212  0.6987 -0.1494
   44MOL   C21910625   1.233   4.411   4.246  0.2040  0.3246 -0.3251
   44MOL   C22010626   1.211   4.315   4.128  0.0641 -0.1261 -0.3096
   44MOL   C22110627   1.106   4.462   4.316 -0.3135  0.0990 -0.4960
   44MOL   C22210628   1.004   4.360   4.372 -1.1988  0.3632  0.4501
   44MOL   O22310629   0.986   4.348   4.491  0.4021  0.7714 -0.7552
   44MOL   H22410630   1.284   4.501   4.211  0.6198  0.0302 -0.4665
   44MOL   H22510631   1.141   4.369   4.063 -0.9118  2.4642  2.7696
   44MOL   H22610632   1.164   4.222   4.162  1.4887 -0.8776 -0.3754
   44MOL   H22710633   1.296   4.283   4.068  0.1359  0.9905 -0.8228
   44MOL   H22810634   1.047   4.518   4.244  0.7095  0.1129 -1.3416
   44MOL   H22910635   1.136   4.528   4.397  1.9097  1.5745 -2.4424
   44MOL   O23010636   0.945   4.293   4.269  0.4602  0.2589  0.0346
   44MOL   C23110637   0.849   4.197   4.304 -0.3628 -0.7646  0.0090
   44MOL   C23210638   0.719   4.241   4.230 -0.2239  0.7040 -0.3275
   44MOL   C23310639   0.897   4.057   4.260 -0.1263 -0.9906  0.3042
   44MOL   C23410640   0.821   3.934   4.316  0.0372  0.0974  0.5077
   44MOL   O23510641   0.725   3.954   4.391 -0.0062 -0.0443 -0.0549
   44MOL   H23610642   0.828   4.198   4.411  0.6658  0.9279  0.2124
   44MOL   H23710643   0.690   4.342   4.259 -2.1830 -0.0591  0.4443
   44MOL   H23810644   0.646   4.175   4.276  0.5132  0.2744  0.2316
   44MOL   H23910645   0.713   4.222   4.123  1.0810  1.2178 -0.4984
   44MOL   H24010646   0.996   4.033   4.298 -0.3224  0.8778  2.0892
   44MOL   H24110647   0.894   4.058   4.151 -1.5913  2.7232  0.3172
   44MOL   H24210648   0.857   3.837   4.282  0.6730 -0.0052  1.4500
   45MOL     O110649   6.609   0.503   2.918 -0.4632 -0.1385  0.0169
   45MOL     C210650   6.640   0.387   2.841  0.0864 -0.2649  0.3729
   45MOL     C310651   6.560   0.402   2.706 -0.2165  0.2761 -0.3561
   45MOL     C410652   6.792   0.375   2.818 -0.7062  0.2448  0.3177
   45MOL     C510653   6.855   0.235   2.786 -0.2078 -0.0395  0.3975
   45MOL     O610654   6.891   0.205   2.678 -0.1014 -0.8072  0.3774
   45MOL     H710655   6.602   0.294   2.884 -0.9798 -0.9136 -1.8923
   45MOL     H810656   6.578   0.309   2.652 -2.4536  0.5199 -1.5779
   45MOL     H910657   6.592   0.482   2.640 -1.0791  0.5158 -0.4993
   45MOL    H1010658   6.452   0.417   2.709 -0.0937  1.4391 -1.6009
   45MOL    H1110659   6.843   0.412   2.907 -3.5887  1.9880  1.2910
   45MOL    H1210660   6.825   0.442   2.738  2.7064 -1.3952  0.2411
   45MOL    H1310661   6.658   0.491   2.998 -0.0546  3.0627  0.3236
   45MOL    O1410662   6.846   0.145   2.888  0.5108  0.1353 -0.0626
   45MOL    C1510663   6.873   0.006   2.873 -0.5410 -0.8863  0.9568
   45MOL    C1610664   7.019   7.945   2.831  0.0558  0.2146 -0.6013
   45MOL    C1710665   6.812   7.904   2.991  0.3434  0.2739  0.3959
   45MOL    C1810666   6.888   7.935   3.118 -0.3149  0.9852 -0.0161
   45MOL    O1910667   6.825   0.002   3.212 -0.5099  0.2564  0.1255
   45MOL    H2010668   6.806   7.955   2.793  0.8194  0.2128 -0.6337
   45MOL    H2110669   7.030   7.837   2.824  0.7312  0.2299  0.0936
   45MOL    H2210670   7.087   7.977   2.911  0.5521  3.8784 -2.3813
   45MOL    H2310671   7.055   0.022   2.745 -1.7224  0.6730 -1.0611
   45MOL    H2410672   6.817   7.796   2.978  0.6546 -0.0407  2.9389
   45MOL    H2510673   6.707   7.935   2.996  0.5317  0.9351  0.2092
   45MOL    O2610674   7.017   7.890   3.123  0.0089  0.2415 -0.0489
   45MOL    C2710675   7.100   7.910   3.236  0.0482  0.4242  0.2401
   45MOL    C2810676   7.107   7.774   3.306 -0.6647  0.0140 -0.4462
   45MOL    C2910677   7.244   7.951   3.194 -0.0314 -0.3495 -0.4683
   45MOL    C3010678   7.301   7.888   3.065 -0.8814 -0.5092 -0.7644
   45MOL    O3110679   7.345   7.963   2.978 -0.1589  0.1822  0.2259
   45MOL    H3210680   7.058   7.978   3.310 -1.5990 -0.2005 -0.0931
   45MOL    H3310681   7.012   7.749   3.354 -0.7314  0.3048 -0.4287
   45MOL    H3410682   7.166   7.794   3.395  0.8887 -2.2072 -0.9269
   45MOL    H3510683   7.131   7.684   3.249 -0.1968  0.6564 -1.2797
   45MOL    H3610684   7.312   7.945   3.278 -1.5142 -0.4234  0.7384
   45MOL    H3710685   7.243   0.077   3.166  1.3525  0.4831  2.4401
   45MOL    O3810686   7.309   7.753   3.065  0.0773 -0.5430  0.1793
   45MOL    C3910687   7.363   7.687   2.959 -0.0327  0.0946  0.3192
   45MOL    C4010688   7.505   7.649   2.997  0.5117 -0.3360 -0.7057
   45MOL    C4110689   7.280   7.561   2.922  0.6131  0.0821 -0.0156
   45MOL    C4210690   7.142   7.581   2.859 -0.5527 -0.4014 -0.2623
   45MOL    O4310691   7.046   7.593   2.939  0.6895 -0.4492  0.0925
   45MOL    H4410692   7.345   7.747   2.870  1.5661  2.4241  1.5000
   45MOL    H4510693   7.548   7.576   2.928 -1.2447  0.6231 -2.8702
   45MOL    H4610694   7.499   7.590   3.089  1.0156 -0.8600 -1.0052
   45MOL    H4710695   7.565   7.737   3.021 -0.5366 -0.0117  0.8268
   45MOL    H4810696   7.260   7.500   3.010 -1.4666  0.4311 -0.2032
   45MOL    H4910697   7.338   7.503   2.851 -0.2450  0.1548 -0.7902
   45MOL    O5010698   7.140   7.572   2.726 -0.6670  0.2442 -0.2361
   45MOL    C5110699   7.007   7.570   2.660 -0.0182  0.4023  0.2810
   45MOL    C5210700   7.005   7.665   2.539 -0.2365  0.2746  0.0711
   45MOL    C5310701   6.952   7.429   2.629  0.1346  0.6185 -0.2535
   45MOL    C5410702   6.876   7.351   2.741  0.2703  0.1154  0.0497
   45MOL    O5510703   6.914   7.248   2.796  0.0875  0.3380  0.2685
   45MOL    H5610704   6.945   7.622   2.732  1.2059  0.6386  1.1766
   45MOL    H5710705   7.027   7.765   2.577  0.0121  0.5832 -0.8782
   45MOL    H5810706   6.906   7.677   2.496 -0.9253 -0.6450  1.3668
   45MOL    H5910707   7.071   7.635   2.458  1.8377  4.4517  0.0268
   45MOL    H6010708   7.018   7.349   2.598  0.3421  0.3177  0.9673
   45MOL    H6110709   6.873   7.446   2.555 -0.5552  1.6016  0.6812
   45MOL    O6210710   6.763   7.415   2.768 -0.2998 -0.1721 -0.5011
   45MOL    C6310711   6.671   7.373   2.875 -0.6979  0.1294  0.3812
   45MOL    C6410712   6.670   7.484   2.981  0.0372 -0.1449 -0.6465
   45MOL    C6510713   6.530   7.343   2.830 -0.6678  0.1879  0.1199
   45MOL    C6610714   6.519   7.220   2.738  0.4123 -0.5904 -0.4463
   45MOL    O6710715   6.469   7.119   2.778  0.1687 -0.1851 -0.3255
   45MOL    H6810716   6.708   7.285   2.927  0.9358  1.0829  0.8884
   45MOL    H6910717   6.585   7.487   3.050 -0.4330  2.8496 -1.3082
   45MOL    H7010718   6.665   7.583   2.936 -1.4767  0.3380  0.5402
   45MOL    H7110719   6.764   7.470   3.035 -0.4223 -1.8643 -0.2639
   45MOL    H7210720   6.502   7.435   2.780 -1.5800 -1.1249 -1.8144
   45MOL    H7310721   6.460   7.325   2.912 -0.4381  0.6882  0.4238
   45MOL    O7410722   6.592   7.227   2.617  0.3097 -0.0456  0.4298
   45MOL    C7510723   6.602   7.115   2.525 -0.0160  0.7528 -0.4957
   45MOL    C7610724   6.481   7.109   2.426 -0.2290 -0.3036 -0.0074
   45MOL    C7710725   6.731   7.117   2.446 -0.1948  0.3907 -0.5274
   45MOL    C7810726   6.768   6.987   2.371  0.4535 -0.2802 -0.7813
   45MOL    O7910727   6.736   6.874   2.411 -0.6990  0.0738  0.1412
   45MOL    H8010728   6.591   7.023   2.583 -0.3383  1.2247  0.2057
   45MOL    H8110729   6.395   7.107   2.493 -0.1826  2.3134  0.1798
   45MOL    H8210730   6.478   7.024   2.358  1.2278 -0.0668 -0.3924
   45MOL    H8310731   6.454   7.200   2.372  1.2952 -1.0082 -2.0252
   45MOL    H8410732   6.807   7.120   2.525  0.4529 -1.5921 -1.0513
   45MOL    H8510733   6.742   7.206   2.384  2.0955  0.0676 -0.6176
   45MOL    O8610734   6.834   7.021   2.265  0.6437  0.1039 -0.3934
   45MOL    C8710735   6.891   6.923   2.180  0.3670  0.7381  0.4786
   45MOL    C8810736   6.867   6.957   2.034 -0.3900  0.1435  0.2388
   45MOL    C8910737   7.038   6.911   2.224 -0.0462  0.3287  0.1399
   45MOL    C9010738   7.127   7.028   2.220  0.2228 -0.6282 -0.1923
   45MOL    O9110739   7.105   7.124   2.294  0.1803  0.0290 -0.7098
   45MOL    H9210740   6.836   6.830   2.192  1.7711 -0.0293  0.9738
   45MOL    H9310741   6.940   6.911   1.967 -1.6391  0.5863 -1.4475
   45MOL    H9410742   6.893   7.063   2.025  0.3295  0.1554  2.0974
   45MOL    H9510743   6.765   6.939   2.001  0.2306 -1.7584 -0.6766
   45MOL    H9610744   7.080   6.824   2.173  3.1853  1.0193  1.4983
   45MOL    H9710745   7.033   6.876   2.327 -1.3028  1.2274  0.3875
   45MOL    O9810746   7.222   7.016   2.132  0.1382 -0.0616  0.2927
   45MOL    C9910747   7.329   7.114   2.122  1.1531 -0.4853 -0.3094
   45MOL   C10010748   7.463   7.037   2.139  0.8845  0.4214 -0.6074
   45MOL   C10110749   7.319   7.192   1.994 -0.9589  0.3654  0.8592
   45MOL   C10210750   7.204   7.285   1.998 -0.2806 -0.2422 -0.7446
   45MOL   O10310751   7.216   7.410   2.021  0.3993 -0.2026 -0.8218
   45MOL   H10410752   7.321   7.190   2.199  2.2632  0.1173 -0.7789
   45MOL   H10510753   7.482   6.961   2.063  0.5492  0.3595 -0.6289
   45MOL   H10610754   7.454   6.988   2.236  0.7943 -0.3480 -0.9946
   45MOL   H10710755   7.547   7.106   2.136  0.5432  0.9468  1.2360
   45MOL   H10810756   7.325   7.130   1.905  0.3042 -0.7437  1.7014
   45MOL   H10910757   7.412   7.249   1.986 -0.1688 -0.6736  2.3917
   45MOL   O11010758   7.085   7.231   1.966  0.6054 -0.4119  0.3468
   45MOL   C11110759   6.976   7.317   1.940 -0.4773  0.2524  0.1525
   45MOL   C11210760   6.900   7.266   1.822 -0.4178  0.0309  0.2278
   45MOL   C11310761   6.894   7.321   2.069 -0.0153  0.0549 -0.2259
   45MOL   C11410762   6.930   7.437   2.157 -0.4288  0.5968 -0.0452
   45MOL   O11510763   6.932   7.424   2.277  0.1863 -0.0749  0.1138
   45MOL   H11610764   7.013   7.410   1.898  0.5303 -0.2462 -0.0841
   45MOL   H11710765   6.807   7.322   1.825 -0.6108 -0.2925  0.3928
   45MOL   H11810766   6.868   7.162   1.830 -2.4626  0.8329  3.5613
   45MOL   H11910767   6.957   7.284   1.731  1.6892 -3.1483  0.8320
   45MOL   H12010768   6.917   7.230   2.124  2.6544  1.4262  1.0453
   45MOL   H12110769   6.786   7.326   2.056 -0.3280 -2.0478  1.3486
   45MOL   O12210770   6.929   7.556   2.094  0.1373  0.5189  0.1154
   45MOL   C12310771   6.946   7.681   2.176  0.9152 -0.0201 -0.1780
   45MOL   C12410772   7.092   7.730   2.169 -0.7042 -0.0553  0.4471
   45MOL   C12510773   6.838   7.788   2.139  0.0376  0.6366  0.3575
   45MOL   C12610774   6.699   7.738   2.173  0.7346 -0.3902 -0.4068
   45MOL   O12710775   6.603   7.758   2.103  0.0304  0.3890  0.0568
   45MOL   H12810776   6.925   7.656   2.280 -0.0274 -1.1891 -0.6387
   45MOL   H12910777   7.098   7.816   2.235 -0.8265  0.4575 -0.2029
   45MOL   H13010778   7.118   7.776   2.073  0.9470  1.3815  1.5549
   45MOL   H13110779   7.160   7.646   2.186 -0.7502  0.1289  1.5443
   45MOL   H13210780   6.845   7.807   2.032 -0.0399  1.0066  0.4164
   45MOL   H13310781   6.852   7.879   2.197 -0.9365 -0.4380  2.3163
   45MOL   O13410782   6.695   7.675   2.294 -0.1707  0.0385  0.1111
   45MOL   C13510783   6.573   7.627   2.350 -0.0517 -0.0780 -0.0739
   45MOL   C13610784   6.530   7.501   2.276  0.0009  0.0253 -0.0680
   45MOL   C13710785   6.600   7.607   2.500 -1.0433 -0.5638  0.1208
   45MOL   C13810786   6.620   7.733   2.572  0.5271 -0.3421  0.2660
   45MOL   O13910787   6.699   7.737   2.664 -0.1692 -0.0441  0.6846
   45MOL   H14010788   6.501   7.706   2.330 -1.2656 -1.0143  0.5808
   45MOL   H14110789   6.469   7.516   2.187  0.0993 -0.4411 -0.2194
   45MOL   H14210790   6.452   7.458   2.338 -0.2094  2.1858  1.2183
   45MOL   H14310791   6.606   7.422   2.273 -1.9313 -1.8363 -1.9682
   45MOL   H14410792   6.676   7.533   2.527 -0.3852 -1.0367 -2.8770
   45MOL   H14510793   6.503   7.576   2.541 -0.7351 -0.6718  0.7854
   45MOL   O14610794   6.534   7.830   2.546 -0.1365  0.8287 -0.2961
   45MOL   C14710795   6.546   7.964   2.593  0.8390 -0.2980  0.5548
   45MOL   C14810796   6.615   0.057   2.476  0.2145  0.4302  0.0752
   45MOL   C14910797   6.411   0.053   2.615 -0.1678  0.5002  0.9232
   45MOL   C15010798   6.357   0.025   2.750 -0.0915 -0.5791 -0.5008
   45MOL   O15110799   6.277   7.914   2.774 -0.3424  0.0618 -0.4503
   45MOL   H15210800   6.611   7.968   2.680 -0.0075 -0.2414  1.1888
   45MOL   H15310801   6.719   0.025   2.474  0.0733 -0.0030 -0.3654
   45MOL   H15410802   6.625   0.163   2.495  0.0331  0.7430 -1.5604
   45MOL   H15510803   6.564   0.041   2.381  0.5590 -0.4522  0.0324
   45MOL   H15610804   6.336   0.031   2.540  1.2684 -0.3516 -0.2736
   45MOL   H15710805   6.419   0.161   2.602  0.3108  0.3989  0.3813
   45MOL   O15810806   6.407   0.118   2.839 -0.4232 -0.2625  0.1336
   45MOL   C15910807   6.347   0.130   2.966 -0.2941 -0.2702  0.1561
   45MOL   C16010808   6.455   0.088   3.073 -0.0536  0.0261 -0.6006
   45MOL   C16110809   6.288   0.276   2.989  0.5856 -0.4037  0.0143
   45MOL   C16210810   6.158   0.309   2.913  0.0801 -0.0008  0.1854
   45MOL   O16310811   6.054   0.335   2.968  0.2079 -0.1542  0.1294
   45MOL   H16410812   6.263   0.061   2.975  0.6794 -1.8281 -2.2360
   45MOL   H16510813   6.500   7.971   3.051 -0.4659 -1.0891  3.1718
   45MOL   H16610814   6.404   0.076   3.168  0.9232 -0.9808 -0.1929
   45MOL   H16710815   6.540   0.155   3.087 -1.0855  1.2516 -0.0639
   45MOL   H16810816   6.367   0.350   2.977  1.8769 -1.8431 -0.6496
   45MOL   H16910817   6.270   0.288   3.096  1.1051  0.3354  0.0255
   45MOL   O17010818   6.179   0.305   2.777 -0.6586 -0.5616 -0.2870
   45MOL   C17110819   6.066   0.325   2.691  0.3151  0.6691 -0.2555
   45MOL   C17210820   6.080   0.445   2.593  0.5672  0.2557 -0.8300
   45MOL   C17310821   6.065   0.195   2.610 -0.4658 -0.5026  0.6206
   45MOL   C17410822   5.963   0.093   2.671 -0.3202  0.4649 -0.1132
   45MOL   O17510823   5.874   0.047   2.603  0.0864 -0.5528 -0.2135
   45MOL   H17610824   5.976   0.341   2.750  0.3682 -0.7454  0.2289
   45MOL   H17710825   6.015   0.435   2.506  0.1972  1.9419 -0.7690
   45MOL   H17810826   6.180   0.466   2.557 -0.0024  0.5485 -2.2532
   45MOL   H17910827   6.045   0.531   2.651  0.9773 -0.1767  0.0790
   45MOL   H18010828   6.167   0.155   2.610  0.3065  1.3860  1.5031
   45MOL   H18110829   6.040   0.221   2.507 -0.9207 -2.4340  0.2338
   45MOL   O18210830   5.973   0.071   2.807 -0.7152  0.6847  0.4244
   45MOL   C18310831   5.880   7.967   2.877  0.5320 -0.2949 -0.0383
   45MOL   C18410832   5.955   7.906   2.996  0.0137 -0.2353 -0.3101
   45MOL   C18510833   5.766   0.084   2.919 -0.9761  0.3132 -0.4186
   45MOL   C18610834   5.627   0.025   2.949 -0.5915 -0.1118 -0.4647
   45MOL   O18710835   5.607   7.945   3.054 -0.0733 -0.3003 -0.4195
   45MOL   H18810836   5.848   7.886   2.812 -1.9218  0.8690 -0.3488
   45MOL   H18910837   5.970   7.977   3.076 -2.9907  1.1151 -0.8594
   45MOL   H19010838   6.046   7.857   2.961  0.4558 -0.9576  1.7728
   45MOL   H19110839   5.894   7.833   3.050 -3.8605  2.4280 -0.8150
   45MOL   H19210840   5.735   0.143   2.833 -0.7566 -1.0889 -1.4542
   45MOL   H19310841   5.795   0.155   2.997 -0.3572 -2.1438  1.6679
   45MOL   O19410842   5.531   0.047   2.859  0.2967  0.1728  0.3672
   45MOL   C19510843   5.394   0.011   2.884 -0.6082 -0.9339 -0.1971
   45MOL   C19610844   5.323   0.082   2.764 -0.9362 -0.7657 -0.9048
   45MOL   C19710845   5.365   7.843   2.888  0.1297 -0.0297  0.0347
   45MOL   C19810846   5.240   7.806   2.963  0.1386  0.3705 -0.2314
   45MOL   O19910847   5.166   7.895   3.003  0.7317 -0.3116 -0.0269
   45MOL   H20010848   5.364   0.058   2.977  1.3055 -1.0941  0.5414
   45MOL   H20110849   5.214   0.089   2.761 -0.9605  0.4470  1.6078
   45MOL   H20210850   5.362   0.047   2.668 -1.1801 -0.4342 -1.1283
   45MOL   H20310851   5.356   0.186   2.772 -0.9765 -0.7003 -1.5882
   45MOL   H20410852   5.452   7.789   2.925 -0.2432  0.2273  1.3071
   45MOL   H20510853   5.356   7.814   2.783 -1.4648 -0.2713  0.2258
   45MOL   O20610854   5.225   7.680   2.992  0.0955 -0.6216 -0.1413
   45MOL   C20710855   5.104   7.630   3.045  0.1442 -0.1656 -0.0523
   45MOL   C20810856   5.054   7.517   2.948 -0.0653  0.2071  0.0731
   45MOL   C20910857   5.120   7.573   3.188  0.4669  0.5268 -0.0480
   45MOL   C21010858   5.146   7.681   3.298 -0.3009  0.0700 -0.0925
   45MOL   O21110859   5.049   7.732   3.360  0.0917 -0.4148  0.2111
   45MOL   H21210860   5.026   7.705   3.044  0.9083  0.6346  0.2204
   45MOL   H21310861   5.101   7.421   2.969 -0.3729  0.4071  1.7434
   45MOL   H21410862   5.052   7.552   2.845  2.6191  0.7080  0.1582
   45MOL   H21510863   4.947   7.499   2.958  0.0054 -0.0280  0.4230
   45MOL   H21610864   5.205   7.506   3.202  1.2632  1.7093  0.9114
   45MOL   H21710865   5.028   7.526   3.222  1.2018 -0.1319  1.0764
   45MOL   O21810866   5.273   7.730   3.306 -0.6783  0.2198 -0.1786
   45MOL   C21910867   5.305   7.848   3.380 -0.3381 -0.1814  0.0881
   45MOL   C22010868   5.317   7.807   3.525 -0.1146 -0.1669  0.6463
   45MOL   C22110869   5.434   7.922   3.318  0.1448 -0.0708 -0.9262
   45MOL   C22210870   5.439   0.095   3.340  0.7015 -0.0433  0.1620
   45MOL   O22310871   5.540   0.143   3.384  0.2846  0.3253  0.6987
   45MOL   H22410872   5.228   7.925   3.377 -0.6655 -0.5413 -1.2081
   45MOL   H22510873   5.390   7.726   3.534  0.4278  0.2560  0.1043
   45MOL   H22610874   5.225   7.759   3.557 -0.9334  2.0024  1.6188
   45MOL   H22710875   5.319   7.888   3.598 -3.9696 -0.6884  1.4418
   45MOL   H22810876   5.430   7.907   3.210  1.7230 -0.9222 -0.8845
   45MOL   H22910877   5.522   7.873   3.361 -0.2239  1.4401  1.6445
   45MOL   O23010878   5.322   0.151   3.311  0.3501  0.0227  0.6512
   45MOL   C23110879   5.308   0.296   3.297  0.0463  0.1699  0.1825
   45MOL   C23210880   5.358   0.344   3.159  0.4493 -0.2332  0.4213
   45MOL   C23310881   5.166   0.349   3.318  0.0905 -0.5190 -0.3845
   45MOL   C23410882   5.109   0.316   3.457  0.0533 -0.1430  0.5432
   45MOL   O23510883   5.080   0.204   3.494  0.4444  0.0467  0.1445
   45MOL   H23610884   5.371   0.342   3.372  0.9203  0.1897 -0.5512
   45MOL   H23710885   5.467   0.341   3.163  0.4642 -0.2061  0.0656
   45MOL   H23810886   5.329   0.446   3.130  0.9863 -0.3053 -0.3835
   45MOL   H23910887   5.313   0.281   3.083 -0.9623  2.0320 -0.6954
   45MOL   H24010888   5.092   0.312   3.247 -1.7348  1.0829  0.6200
   45MOL   H24110889   5.173   0.457   3.318 -0.3280 -0.4899 -1.2849
   45MOL   H24210890   5.107   0.402   3.523  1.0519 -1.0178  1.7136
   46MOL     O110891   0.261   1.369   5.464 -0.2825 -0.2199 -0.1787
   46MOL     C210892   0.225   1.334   5.335  0.0652  0.6551  0.4649
   46MOL     C310893   0.075   1.344   5.324 -0.2177  0.5980  0.2900
   46MOL     C410894   0.309   1.416   5.230 -0.7337  0.1809  0.5572
   46MOL     C510895   0.288   1.383   5.085  0.3918 -0.2349  0.6436
   46MOL     O610896   0.264   1.274   5.039  0.0902  0.2643 -0.1737
   46MOL     H710897   0.245   1.228   5.321 -0.0464  0.5640  0.9509
   46MOL     H810898   0.048   1.304   5.226 -0.1517  2.0858 -0.3549
   46MOL     H910899   0.027   1.440   5.344 -1.7156 -0.2747  0.9862
   46MOL    H1010900   0.023   1.276   5.392  2.8976 -1.5242  0.6270
   46MOL    H1110901   0.409   1.385   5.258 -0.6299  2.0585  2.3704
   46MOL    H1210902   0.303   1.524   5.243  1.4118  0.0969  2.5033
   46MOL    H1310903   0.350   1.346   5.484 -0.1588  0.4842  0.0801
   46MOL    O1410904   0.309   1.490   5.005 -0.4504 -0.2368  0.3885
   46MOL    C1510905   0.309   1.477   4.861 -1.1387  0.5581  0.0268
   46MOL    C1610906   0.209   1.567   4.796 -0.4716 -0.2816 -0.2910
   46MOL    C1710907   0.447   1.508   4.810  0.5114 -1.1049  0.1750
   46MOL    C1810908   0.450   1.493   4.661 -0.3222  0.9037  0.1855
   46MOL    O1910909   0.453   1.378   4.603 -0.7260 -0.0594  0.1732
   46MOL    H2010910   0.285   1.378   4.823  0.0805 -0.2050  1.2228
   46MOL    H2110911   0.188   1.542   4.691  0.4544 -0.1268 -0.5165
   46MOL    H2210912   0.238   1.672   4.802 -1.9119  0.1381 -0.5166
   46MOL    H2310913   0.115   1.554   4.849  0.9385 -0.7850  2.1671
   46MOL    H2410914   0.522   1.440   4.851  0.3673  0.1022  2.5241
   46MOL    H2510915   0.471   1.611   4.837 -0.5923 -0.8112  0.0460
   46MOL    O2610916   0.437   1.613   4.598  0.2967  0.3850 -0.3293
   46MOL    C2710917   0.449   1.621   4.454  0.0553 -0.9183 -0.7084
   46MOL    C2810918   0.347   1.721   4.400  0.1264 -0.5651 -0.1797
   46MOL    C2910919   0.593   1.657   4.422 -0.4738  0.1666  0.1706
   46MOL    C3010920   0.642   1.803   4.439 -0.2787  0.9882 -0.0506
   46MOL    O3110921   0.712   1.834   4.532  0.3140 -0.0821 -0.2579
   46MOL    H3210922   0.430   1.522   4.412  2.3283 -1.7352  0.0774
   46MOL    H3310923   0.354   1.815   4.454 -2.9943 -0.5616  0.2884
   46MOL    H3410924   0.250   1.678   4.422 -0.5165  1.3328  0.8265
   46MOL    H3510925   0.341   1.728   4.291  0.1065 -2.3104 -0.3043
   46MOL    H3610926   0.595   1.626   4.318 -0.5564  0.1121  0.1856
   46MOL    H3710927   0.670   1.591   4.461 -0.1755  0.0703 -0.5828
   46MOL    O3810928   0.605   1.891   4.338  0.1763 -0.0529  0.6581
   46MOL    C3910929   0.635   2.028   4.348 -0.0410 -0.2329 -0.2896
   46MOL    C4010930   0.718   2.070   4.221 -0.1542  0.1276  0.3285
   46MOL    C4110931   0.500   2.102   4.363  0.4337  0.2085  0.2580
   46MOL    C4210932   0.508   2.252   4.355  0.3543  0.2642  0.1987
   46MOL    O4310933   0.432   2.309   4.275 -0.8453 -0.4815 -0.3030
   46MOL    H4410934   0.701   2.038   4.435 -0.0708 -1.3095 -0.1303
   46MOL    H4510935   0.659   2.076   4.130 -1.2008  0.1914  1.0069
   46MOL    H4610936   0.791   1.993   4.194 -1.4112 -0.0794 -2.6316
   46MOL    H4710937   0.763   2.169   4.228  0.4094 -0.0303 -0.9730
   46MOL    H4810938   0.462   2.073   4.461 -2.1692  2.1059 -0.1301
   46MOL    H4910939   0.430   2.071   4.285  0.4692  1.1571 -0.1569
   46MOL    O5010940   0.607   2.310   4.433 -0.1020  0.2982 -0.1485
   46MOL    C5110941   0.619   2.456   4.438 -0.4659  0.3629  0.1379
   46MOL    C5210942   0.600   2.517   4.574  0.1933  0.2416 -0.2509
   46MOL    C5310943   0.741   2.503   4.365  0.2981 -0.0766 -0.1123
   46MOL    C5410944   0.881   2.459   4.409  1.0826 -0.0332  0.5984
   46MOL    O5510945   0.952   2.531   4.479 -0.0531 -0.1064 -0.4500
   46MOL    H5610946   0.531   2.494   4.386  0.2741  0.0596 -1.3588
   46MOL    H5710947   0.560   2.616   4.555  0.7620  0.2313 -1.5144
   46MOL    H5810948   0.699   2.531   4.619  1.2497 -0.1027 -2.3994
   46MOL    H5910949   0.531   2.456   4.632 -0.1966 -0.6882 -1.6759
   46MOL    H6010950   0.747   2.612   4.362  2.2823 -0.1225  1.0166
   46MOL    H6110951   0.741   2.467   4.263 -0.3294  0.9108 -0.4636
   46MOL    O6210952   0.913   2.340   4.363 -0.2178 -0.3313 -0.1535
   46MOL    C6310953   1.045   2.286   4.365 -0.5683  0.5571 -0.0937
   46MOL    C6410954   1.049   2.135   4.400 -0.3719 -0.5471  0.2375
   46MOL    C6510955   1.099   2.321   4.225  0.1236  0.2346  0.3234
   46MOL    C6610956   1.258   2.326   4.217  0.2194 -0.1830 -0.0494
   46MOL    O6710957   1.334   2.305   4.309  0.1788 -1.2434 -0.1114
   46MOL    H6810958   1.114   2.337   4.433  0.3851 -1.1141  0.2405
   46MOL    H6910959   1.096   2.120   4.498 -2.6325 -0.2599  1.4107
   46MOL    H7010960   1.101   2.073   4.327 -1.4193 -0.1660 -0.8406
   46MOL    H7110961   0.949   2.091   4.401 -1.0243  0.9296  1.2709
   46MOL    H7210962   1.078   2.424   4.197  0.2319  1.0113  2.9355
   46MOL    H7310963   1.061   2.253   4.148  2.4942 -0.6393 -0.1311
   46MOL    O7410964   1.297   2.377   4.105  0.4679 -0.0322 -0.3034
   46MOL    C7510965   1.419   2.375   4.057 -0.4575 -0.7029  0.2564
   46MOL    C7610966   1.423   2.424   3.917 -0.1863 -0.4658 -0.2281
   46MOL    C7710967   1.527   2.459   4.138 -0.0308  0.8310  0.0596
   46MOL    C7810968   1.484   2.601   4.149 -0.0557  0.6034 -1.4533
   46MOL    O7910969   1.544   2.687   4.093  0.0398 -0.3104 -0.4544
   46MOL    H8010970   1.463   2.275   4.061 -1.4004 -1.1512 -0.4578
   46MOL    H8110971   1.369   2.519   3.910  1.3181  0.4454  0.3400
   46MOL    H8210972   1.367   2.352   3.857 -0.5265  0.0496 -0.5397
   46MOL    H8310973   1.523   2.429   3.872 -1.6261  1.2109 -3.4662
   46MOL    H8410974   1.618   2.453   4.078 -0.1725  0.6776 -0.1442
   46MOL    H8510975   1.552   2.419   4.236 -0.4003 -0.8029 -0.5011
   46MOL    O8610976   1.386   2.609   4.238 -0.2620  0.0849 -0.1037
   46MOL    C8710977   1.347   2.732   4.289  0.0103  0.0901 -0.3734
   46MOL    C8810978   1.289   2.835   4.190 -0.6126  0.2152 -0.0613
   46MOL    C8910979   1.242   2.714   4.393 -0.3561 -0.0034 -0.1985
   46MOL    C9010980   1.290   2.680   4.537 -0.1049  0.3829 -0.1790
   46MOL    O9110981   1.358   2.756   4.608 -0.1676 -0.5109  0.4423
   46MOL    H9210982   1.432   2.789   4.327  0.1125 -1.0483  1.1424
   46MOL    H9310983   1.357   2.861   4.108  0.5547 -1.3323  0.3942
   46MOL    H9410984   1.271   2.927   4.244  1.6372 -0.1634  1.4281
   46MOL    H9510985   1.194   2.809   4.143 -0.4318 -0.2163 -0.1945
   46MOL    H9610986   1.166   2.650   4.349  0.0654 -0.1861 -0.6641
   46MOL    H9710987   1.186   2.805   4.413 -0.5612 -0.2538  0.3679
   46MOL    O9810988   1.243   2.559   4.574  0.0410  0.2562 -0.4946
   46MOL    C9910989   1.274   2.499   4.699 -0.2123  0.4943  0.3134
   46MOL   C10010990   1.149   2.426   4.743  0.1234 -0.0446  0.0895
   46MOL   C10110991   1.392   2.405   4.668  0.2733  0.0698 -0.8883
   46MOL   C10210992   1.472   2.357   4.788 -0.2932 -0.4993 -0.3537
   46MOL   O10310993   1.423   2.363   4.903 -0.0994 -0.0170 -0.1600
   46MOL   H10410994   1.299   2.575   4.773 -0.0194  2.6284 -1.8603
   46MOL   H10510995   1.121   2.339   4.683 -1.4467  1.4459 -1.3888
   46MOL   H10610996   1.070   2.500   4.737  0.8941  0.8913  1.2649
   46MOL   H10710997   1.173   2.410   4.848 -0.9473  0.2313  0.3761
   46MOL   H10810998   1.462   2.446   4.596  3.5244 -4.6947 -0.6824
   46MOL   H10910999   1.354   2.318   4.615 -3.5688  0.3918  1.1017
   46MOL   O11011000   1.579   2.283   4.751 -0.0430  0.4967 -0.0035
   46MOL   C11111001   1.665   2.237   4.862 -0.2225  0.0126 -0.0352
   46MOL   C11211002   1.663   2.084   4.869 -0.3470  0.0873 -0.4576
   46MOL   C11311003   1.809   2.273   4.807 -0.2776  0.0839 -0.2667
   46MOL   C11411004   1.860   2.415   4.799 -0.3132 -0.3244  0.1484
   46MOL   O11511005   1.788   2.512   4.785 -0.3209  0.0281 -0.1227
   46MOL   H11611006   1.654   2.288   4.958  0.4246  3.0565 -1.5113
   46MOL   H11711007   1.751   2.056   4.927 -0.8754 -1.6035 -0.4372
   46MOL   H11811008   1.683   2.036   4.773 -0.3887 -1.3552  0.2437
   46MOL   H11911009   1.572   2.052   4.920  0.1058  0.6041  0.6685
   46MOL   H12011010   1.823   2.224   4.710  1.4391  0.0671 -0.0323
   46MOL   H12111011   1.873   2.219   4.877 -0.1911  0.4184 -0.0886
   46MOL   O12211012   1.991   2.429   4.804  0.5153  0.1188 -0.4242
   46MOL   C12311013   2.057   2.555   4.793 -0.0978  0.5778 -0.1325
   46MOL   C12411014   2.074   2.617   4.928 -0.6041  0.3507  0.5343
   46MOL   C12511015   2.196   2.518   4.726 -0.4081 -0.3485 -0.3478
   46MOL   C12611016   2.274   2.618   4.638 -0.3565 -0.7051 -0.2562
   46MOL   O12711017   2.249   2.737   4.644 -0.0061 -0.1450  0.3580
   46MOL   H12811018   2.007   2.622   4.723  0.8936  1.5156  0.0566
   46MOL   H12911019   2.141   2.701   4.913 -0.6663  0.2549 -0.3267
   46MOL   H13011020   2.121   2.545   4.995 -1.3424 -0.9157 -0.2634
   46MOL   H13111021   1.980   2.653   4.971 -0.3875 -0.0622  1.3653
   46MOL   H13211022   2.165   2.429   4.672  1.2599 -1.2117  0.0672
   46MOL   H13311023   2.257   2.476   4.807  2.3838  1.6621 -1.3092
   46MOL   O13411024   2.375   2.575   4.571 -0.3639  0.3400 -0.4398
   46MOL   C13511025   2.457   2.665   4.489 -0.3937 -0.4208 -0.2787
   46MOL   C13611026   2.586   2.696   4.562  0.1964 -0.1443  0.0911
   46MOL   C13711027   2.473   2.602   4.350 -0.1922  0.5436  0.7128
   46MOL   C13811028   2.521   2.707   4.241  0.2693 -0.3960  0.2300
   46MOL   O13911029   2.444   2.758   4.165  0.0360 -0.8959 -0.5297
   46MOL   H14011030   2.409   2.761   4.473 -0.4108 -0.2852  0.6047
   46MOL   H14111031   2.649   2.768   4.509 -0.8267  0.7942  0.1149
   46MOL   H14211032   2.637   2.600   4.565  0.6323 -0.0157 -2.3674
   46MOL   H14311033   2.570   2.732   4.663 -1.2976  0.6859 -0.4166
   46MOL   H14411034   2.378   2.563   4.315  0.4731 -1.4466  1.0782
   46MOL   H14511035   2.542   2.518   4.354 -2.2133 -1.1212  1.5148
   46MOL   O14611036   2.650   2.739   4.261  0.1511 -0.1958 -0.4237
   46MOL   C14711037   2.728   2.833   4.196  0.2323 -0.4153  0.6700
   46MOL   C14811038   2.826   2.907   4.302 -0.2305 -0.6650  0.1909
   46MOL   C14911039   2.824   2.793   4.080  0.8310  0.7748 -0.9604
   46MOL   C15011040   2.754   2.750   3.951  0.0953 -0.2271 -0.5344
   46MOL   O15111041   2.681   2.838   3.911  0.2047 -0.0411 -0.4367
   46MOL   H15211042   2.651   2.902   4.163 -0.7422 -1.7226  0.1746
   46MOL   H15311043   2.870   2.998   4.261  0.4521 -0.7296  0.7683
   46MOL   H15411044   2.908   2.847   4.342  0.5249  1.8463  2.5377
   46MOL   H15511045   2.773   2.944   4.390  0.4355 -0.3692  0.4697
   46MOL   H15611046   2.877   2.703   4.111 -0.5418  0.2167 -0.1580
   46MOL   H15711047   2.896   2.870   4.053  2.1815 -0.9717 -2.4339
   46MOL   O15811048   2.774   2.625   3.917 -0.1452 -0.2447 -0.0445
   46MOL   C15911049   2.699   2.584   3.804  0.2022 -0.3887 -0.0503
   46MOL   C16011050   2.804   2.520   3.714 -0.2347  0.2459  0.0168
   46MOL   C16111051   2.570   2.496   3.829 -0.0695 -0.0046 -0.2224
   46MOL   C16211052   2.595   2.360   3.893  0.2962 -0.1773 -0.0986
   46MOL   O16311053   2.582   2.249   3.838 -0.5543  0.3027 -0.1817
   46MOL   H16411054   2.662   2.669   3.747 -0.6985 -1.6113 -1.3383
   46MOL   H16511055   2.888   2.586   3.694 -0.7462  0.8984  0.0215
   46MOL   H16611056   2.765   2.487   3.618 -2.0675 -1.5465  1.3146
   46MOL   H16711057   2.851   2.431   3.757 -1.4644 -0.2043  0.4624
   46MOL   H16811058   2.531   2.467   3.731  1.1218  0.0276 -0.7149
   46MOL   H16911059   2.498   2.554   3.886  0.6001  1.0840 -0.4637
   46MOL   O17011060   2.646   2.370   4.021  0.7810 -0.4677  0.1501
   46MOL   C17111061   2.690   2.254   4.094 -0.2670  0.2608 -0.5060
   46MOL   C17211062   2.841   2.236   4.087 -0.3942  0.0214  0.0332
   46MOL   C17311063   2.639   2.252   4.234 -0.3840  0.4487  0.1635
   46MOL   C17411064   2.497   2.198   4.264  0.4601  0.2667 -0.3115
   46MOL   O17511065   2.423   2.264   4.338 -0.4895 -0.6557  0.5833
   46MOL   H17611066   2.662   2.156   4.056  0.5932  0.6968 -2.3142
   46MOL   H17711067   2.882   2.145   4.130  2.4431  1.1555 -0.2185
   46MOL   H17811068   2.897   2.319   4.130  1.2740 -2.1516  2.1441
   46MOL   H17911069   2.890   2.240   3.989  2.1273 -2.9282  1.1195
   46MOL   H18011070   2.664   2.345   4.284 -0.2064 -0.9302  2.7154
   46MOL   H18111071   2.705   2.179   4.282 -1.9525  0.0629  1.7701
   46MOL   O18211072   2.476   2.077   4.208 -0.4863  0.1783 -0.2955
   46MOL   C18311073   2.358   2.006   4.238 -0.6989  0.3857  1.2492
   46MOL   C18411074   2.331   1.921   4.117  0.2423 -0.7334  0.2919
   46MOL   C18511075   2.383   1.939   4.385 -0.8607  0.2710  0.5610
   46MOL   C18611076   2.258   1.872   4.449 -0.4311  0.8582 -0.7088
   46MOL   O18711077   2.250   1.746   4.448  0.5436  0.0731  0.7193
   46MOL   H18811078   2.275   2.074   4.257  0.0410  1.3793  0.9523
   46MOL   H18911079   2.298   1.990   4.039 -2.0910  0.9977  2.7201
   46MOL   H19011080   2.251   1.850   4.136  1.1089 -1.1294  2.4967
   46MOL   H19111081   2.419   1.869   4.079 -0.2118 -1.8593  0.7590
   46MOL   H19211082   2.411   2.021   4.452  0.7105  0.1117  0.1192
   46MOL   H19311083   2.452   1.855   4.382 -0.2207  0.7944  0.3206
   46MOL   O19411084   2.163   1.963   4.500 -0.0331 -0.6324  0.7606
   46MOL   C19511085   2.056   1.921   4.590 -0.2627  0.3501  0.3759
   46MOL   C19611086   2.053   2.021   4.702 -0.3044  0.1647 -0.5033
   46MOL   C19711087   1.924   1.904   4.522  0.6288 -0.5468  0.2430
   46MOL   C19811088   1.834   1.803   4.590  0.5610  1.1064 -1.1827
   46MOL   O19911089   1.804   1.813   4.710 -0.0663  0.1589 -0.4139
   46MOL   H20011090   2.084   1.819   4.615  0.2781  0.0666 -1.3061
   46MOL   H20111091   2.149   2.034   4.751 -0.8628  0.7270  0.4752
   46MOL   H20211092   1.984   1.989   4.781  1.2120 -1.4982  0.1678
   46MOL   H20311093   2.022   2.118   4.664 -0.7887  0.3362  0.3020
   46MOL   H20411094   1.939   1.869   4.420  0.6146 -0.5682  0.2485
   46MOL   H20511095   1.874   1.999   4.502  0.5605 -0.2565  1.6974
   46MOL   O20611096   1.803   1.708   4.504 -0.5355 -0.0277 -0.2445
   46MOL   C20711097   1.705   1.613   4.530  0.5339  0.3053 -0.3376
   46MOL   C20811098   1.622   1.564   4.417 -0.6588 -0.2837  0.2561
   46MOL   C20911099   1.754   1.491   4.614 -0.1517 -0.2276  0.5382
   46MOL   C21011100   1.666   1.444   4.727 -0.2190  0.1621  0.5152
   46MOL   O21111101   1.717   1.392   4.827  0.0652 -0.1505  0.4899
   46MOL   H21211102   1.637   1.661   4.602  0.4997 -0.9709  0.5059
   46MOL   H21311103   1.594   1.640   4.345 -2.4116 -0.9281  0.2365
   46MOL   H21411104   1.534   1.513   4.455 -1.5108 -0.0420 -1.3702
   46MOL   H21511105   1.675   1.493   4.353  1.1780 -0.8632  2.3278
   46MOL   H21611106   1.851   1.520   4.655  0.1992  1.6866 -1.5226
   46MOL   H21711107   1.774   1.402   4.553 -0.0407 -0.5840  1.0879
   46MOL   O21811108   1.532   1.464   4.713 -0.6004 -0.5590 -0.1233
   46MOL   C21911109   1.437   1.407   4.806  0.3066 -0.3675  0.6950
   46MOL   C22011110   1.414   1.506   4.920  0.6547 -0.0501  0.6054
   46MOL   C22111111   1.308   1.365   4.731 -0.1009 -0.4682 -0.8617
   46MOL   C22211112   1.225   1.252   4.785 -0.3350  0.3225  0.2891
   46MOL   O22311113   1.106   1.266   4.785  0.1201  0.2603  0.5055
   46MOL   H22411114   1.478   1.317   4.852 -0.7494 -1.5073 -0.5370
   46MOL   H22511115   1.374   1.452   5.005 -0.7152  0.4870  0.3168
   46MOL   H22611116   1.345   1.586   4.893  0.0211 -0.5377  0.7982
   46MOL   H22711117   1.498   1.566   4.957  1.3697 -0.1358 -0.8144
   46MOL   H22811118   1.348   1.341   4.632  3.6516  0.5656  0.3051
   46MOL   H22911119   1.243   1.449   4.705  1.2666  0.6692 -0.7038
   46MOL   O23011120   1.295   1.151   4.845 -0.2792 -0.9258 -0.3179
   46MOL   C23111121   1.233   1.030   4.886 -0.1843  0.0301  0.2514
   46MOL   C23211122   1.234   0.923   4.778 -0.2217 -0.6806 -0.2924
   46MOL   C23311123   1.272   0.999   5.032 -0.5705  0.2888 -0.6770
   46MOL   C23411124   1.394   0.908   5.054 -0.0816 -0.5933  0.5010
   46MOL   O23511125   1.457   0.926   5.156  0.3392 -0.2447  0.5432
   46MOL   H23611126   1.128   1.057   4.891 -0.1980  0.3830 -1.6033
   46MOL   H23711127   1.178   0.844   4.827 -1.4962 -1.2080 -2.5507
   46MOL   H23811128   1.332   0.888   4.747  0.2411  1.9605 -2.0174
   46MOL   H23911129   1.173   0.946   4.691 -0.8803 -3.0575 -0.4776
   46MOL   H24011130   1.195   0.936   5.076  1.0206  0.0447  1.8499
   46MOL   H24111131   1.278   1.087   5.095 -0.5789 -0.8516  0.9391
   46MOL   H24211132   1.405   0.834   4.974  1.2197  1.2318 -1.0369
   47MOL     O111133   5.853   7.084   3.283  0.8795  0.7644  0.1579
   47MOL     C211134   5.971   7.147   3.239 -0.1295  0.2674  0.1345
   47MOL     C311135   5.977   7.171   3.086 -0.0270 -0.0394  0.7897
   47MOL     C411136   5.989   7.269   3.331  0.2619  0.0153  0.1516
   47MOL     C511137   6.130   7.321   3.330 -0.4548  1.0702  0.4834
   47MOL     O611138   6.223   7.262   3.386  0.5831 -0.3069  0.1532
   47MOL     H711139   6.043   7.070   3.268  0.1596  0.0040 -1.2313
   47MOL     H811140   5.986   7.080   3.027  0.0008  0.1191  0.5522
   47MOL     H911141   6.061   7.232   3.053 -0.3207 -0.5553 -0.9716
   47MOL    H1011142   5.884   7.218   3.054  1.3492  1.2310 -1.4841
   47MOL    H1111143   5.965   7.239   3.433 -1.3252 -1.0322 -0.5055
   47MOL    H1211144   5.917   7.348   3.307  1.0042  0.3167 -1.1529
   47MOL    H1311145   5.880   6.994   3.295  1.9888  1.1114  0.2718
   47MOL    O1411146   6.141   7.435   3.260 -0.2438 -0.3868 -0.2318
   47MOL    C1511147   6.264   7.510   3.258 -0.1665  0.1037  0.3770
   47MOL    C1611148   6.315   7.482   3.113 -0.2272 -0.1724 -0.5178
   47MOL    C1711149   6.233   7.660   3.298  0.3070  0.3644  0.1496
   47MOL    C1811150   6.359   7.735   3.301  0.4658 -0.2896  0.0171
   47MOL    O1911151   6.381   7.819   3.221 -0.0614  0.6001  0.5692
   47MOL    H2011152   6.335   7.448   3.314  0.7466 -0.2693 -1.1739
   47MOL    H2111153   6.389   7.555   3.081 -0.7439  0.4481 -0.3080
   47MOL    H2211154   6.235   7.514   3.046 -0.4709 -0.4307 -0.3507
   47MOL    H2311155   6.338   7.378   3.091 -1.4496 -0.7241  0.7225
   47MOL    H2411156   6.198   7.665   3.401 -1.1570  0.9082 -0.3590
   47MOL    H2511157   6.158   7.692   3.225  0.1125  0.4719  0.3977
   47MOL    O2611158   6.441   7.689   3.395 -0.6094 -0.2246  0.4222
   47MOL    C2711159   6.577   7.733   3.411  1.4050 -0.2230  0.0193
   47MOL    C2811160   6.669   7.689   3.299 -0.2315 -0.6156 -0.1490
   47MOL    C2911161   6.587   7.878   3.460 -0.0442 -0.2062  0.2745
   47MOL    C3011162   6.699   7.895   3.562 -0.0234 -0.2196  0.4667
   47MOL    O3111163   6.817   7.861   3.542 -0.0694 -0.3815  0.2208
   47MOL    H3211164   6.610   7.674   3.497  1.3626 -0.9688 -0.4659
   47MOL    H3311165   6.669   7.752   3.210  1.8461 -0.5337 -0.1321
   47MOL    H3411166   6.636   7.594   3.258  0.5894 -0.7416 -0.5413
   47MOL    H3511167   6.769   7.667   3.337 -0.7151 -1.0381  0.8995
   47MOL    H3611168   6.489   7.893   3.507 -0.7303 -3.3852 -0.0539
   47MOL    H3711169   6.599   7.951   3.380  1.1164 -1.2005 -0.4711
   47MOL    O3811170   6.661   7.940   3.682  0.3616  0.2511 -0.2312
   47MOL    C3911171   6.751   7.951   3.793  0.2149  0.7009 -0.7022
   47MOL    C4011172   6.697   0.096   3.873  0.5602  0.1889  0.4945
   47MOL    C4111173   6.743   7.811   3.863 -1.0986 -0.5183  0.0837
   47MOL    C4211174   6.811   7.817   3.997  0.3777 -0.9664 -0.4617
   47MOL    O4311175   6.923   7.861   4.006  0.3165  0.2742 -0.3726
   47MOL    H4411176   6.853   7.954   3.756 -0.1137 -1.3183 -1.8798
   47MOL    H4511177   6.592   0.081   3.898  1.3159 -3.0359  1.9034
   47MOL    H4611178   6.702   0.172   3.795 -0.5211  0.1546  0.3882
   47MOL    H4711179   6.742   0.127   3.967 -0.9519 -0.4398  1.4455
   47MOL    H4811180   6.792   7.743   3.793  2.1159  1.0691  0.7237
   47MOL    H4911181   6.639   7.781   3.878 -1.4049 -0.2590 -1.4418
   47MOL    O5011182   6.739   7.764   4.099 -0.3740 -0.4073 -0.9458
   47MOL    C5111183   6.795   7.773   4.235 -0.4161 -0.4399  0.0585
   47MOL    C5211184   6.678   7.821   4.316 -0.2896 -0.0412 -0.6626
   47MOL    C5311185   6.851   7.639   4.269 -0.1680  0.0740 -0.0704
   47MOL    C5411186   6.934   7.635   4.397  0.0839 -0.5856  0.4897
   47MOL    O5511187   6.941   7.732   4.478  0.1974  0.2088  0.5368
   47MOL    H5611188   6.865   7.855   4.254 -2.4359  1.3849 -0.1246
   47MOL    H5711189   6.696   7.816   4.423 -2.1919  0.2761 -0.3155
   47MOL    H5811190   6.590   7.757   4.322 -0.2482 -0.2202 -1.8082
   47MOL    H5911191   6.646   7.921   4.284 -0.0292 -0.0986 -1.1181
   47MOL    H6011192   6.914   7.610   4.185 -1.2413  1.8938 -1.5354
   47MOL    H6111193   6.771   7.567   4.284 -0.5660  0.4991 -0.1632
   47MOL    O6211194   6.986   7.517   4.414  0.1056 -0.0646 -0.7708
   47MOL    C6311195   7.079   7.494   4.517 -0.4167 -0.1190  0.2181
   47MOL    C6411196   7.004   7.455   4.651  0.2711  0.5477 -0.0267
   47MOL    C6511197   7.190   7.390   4.479  0.1499 -1.0226 -0.4858
   47MOL    C6611198   7.320   7.408   4.556  0.3017  0.0272 -0.0177
   47MOL    O6711199   7.336   7.342   4.655  0.0277 -0.1510 -0.7389
   47MOL    H6811200   7.136   7.585   4.540 -0.5892  1.1321 -3.9767
   47MOL    H6911201   6.935   7.532   4.686 -0.2080 -0.0667  0.3987
   47MOL    H7011202   7.068   7.436   4.737 -1.2435  1.6516  1.3630
   47MOL    H7111203   6.938   7.369   4.636  2.9036 -1.5369 -0.1054
   47MOL    H7211204   7.216   7.372   4.374 -0.2066 -1.8623 -0.4319
   47MOL    H7311205   7.156   7.296   4.522 -0.9792 -0.1626  0.5347
   47MOL    O7411206   7.389   7.512   4.508 -0.5535 -0.3726 -0.2699
   47MOL    C7511207   7.523   7.538   4.545 -0.3899 -0.1829  0.6602
   47MOL    C7611208   7.600   7.482   4.428 -0.0695 -0.1872  0.1015
   47MOL    C7711209   7.548   7.689   4.563 -0.4041  0.2630  0.1655
   47MOL    C7811210   7.505   7.747   4.696  1.1808 -0.2694  0.7116
   47MOL    O7911211   7.586   7.774   4.784 -0.2216  0.0408  0.0684
   47MOL    H8011212   7.554   7.483   4.634  3.7998  0.2827 -0.4287
   47MOL    H8111213   7.574   7.376   4.415 -1.8256  0.4044 -1.4180
   47MOL    H8211214   7.707   7.493   4.448 -0.1566  1.0152 -0.1107
   47MOL    H8311215   7.583   7.540   4.337  0.3323 -1.0175 -0.5177
   47MOL    H8411216   7.511   7.757   4.487 -1.2807 -1.0096 -0.5585
   47MOL    H8511217   7.653   7.713   4.581 -0.5176 -0.9415  2.6645
   47MOL    O8611218   7.371   7.769   4.704 -0.0928 -0.0831  0.1495
   47MOL    C8711219   7.314   7.813   4.827 -0.4719  0.1813 -0.3636
   47MOL    C8811220   7.296   7.966   4.844  1.2679  0.1838  0.0487
   47MOL    C8911221   7.181   7.748   4.834 -0.1307 -0.5341  0.5343
   47MOL    C9011222   7.134   7.731   4.972 -0.1775 -0.1829 -0.6475
   47MOL    O9111223   7.184   7.803   5.062  0.0667  0.1024 -0.3046
   47MOL    H9211224   7.380   7.796   4.912 -0.5257 -0.2953 -0.4154
   47MOL    H9311225   7.378   0.044   4.802  3.0698  0.0322  3.2056
   47MOL    H9411226   7.298   0.017   4.948  0.8786 -1.9786  0.7190
   47MOL    H9511227   7.207   0.019   4.791  1.3497  0.9193  0.3655
   47MOL    H9611228   7.178   7.650   4.785  0.2059  0.5462 -1.7030
   47MOL    H9711229   7.100   7.809   4.793  0.3538  0.0767  0.4895
   47MOL    O9811230   7.035   7.640   4.982  0.1921 -0.0572  0.1870
   47MOL    C9911231   6.988   7.601   5.117 -0.7013 -0.1419 -0.2604
   47MOL   C10011232   6.845   7.669   5.110  0.7148  0.4820 -0.1781
   47MOL   C10111233   6.993   7.454   5.134 -0.7499  0.1726 -0.1136
   47MOL   C10211234   7.125   7.391   5.103 -0.1509 -0.1995 -0.1804
   47MOL   O10311235   7.127   7.278   5.050 -0.1564 -0.0088  0.5295
   47MOL   H10411236   7.040   7.647   5.202  1.3524 -1.7133 -0.6374
   47MOL   H10511237   6.861   7.773   5.081  1.1542  0.3528 -0.3962
   47MOL   H10611238   6.787   7.663   5.203  0.6507  1.2048 -0.1712
   47MOL   H10711239   6.784   7.640   5.025 -2.4481  2.2345  1.3874
   47MOL   H10811240   6.915   7.405   5.076  1.7773 -1.3550 -2.3079
   47MOL   H10911241   6.976   7.435   5.240  2.0265 -0.9106  0.1709
   47MOL   O11011242   7.230   7.457   5.154 -0.3667  0.3059 -0.2257
   47MOL   C11111243   7.363   7.422   5.117 -0.5889 -0.0522 -0.3830
   47MOL   C11211244   7.444   7.541   5.165  0.7795  0.6175 -0.2227
   47MOL   C11311245   7.396   7.296   5.199 -0.7190 -0.5817 -0.1443
   47MOL   C11411246   7.539   7.251   5.207 -0.1023 -0.1859 -0.4501
   47MOL   O11511247   7.635   7.285   5.133  0.1901 -0.0323  0.1647
   47MOL   H11611248   7.380   7.420   5.009 -2.8123 -2.1135 -0.7385
   47MOL   H11711249   7.433   7.629   5.101  1.7173  0.8803 -0.0349
   47MOL   H11811250   7.551   7.522   5.169  0.5800 -0.3314  0.7070
   47MOL   H11911251   7.415   7.562   5.268  1.8549 -0.4161  0.3061
   47MOL   H12011252   7.331   7.214   5.168 -0.1726 -0.0192 -2.9735
   47MOL   H12111253   7.358   7.302   5.301 -0.3656  0.5488 -0.0670
   47MOL   O12211254   7.551   7.162   5.315  0.0344  0.2759  0.2235
   47MOL   C12311255   7.672   7.094   5.349 -0.0699  0.1075  0.5982
   47MOL   C12411256   7.711   7.158   5.481 -0.3091 -0.1704  0.2658
   47MOL   C12511257   7.655   6.940   5.358 -0.5555 -0.0957  0.3416
   47MOL   C12611258   7.654   6.868   5.226 -0.2010  0.7976  0.0654
   47MOL   O12711259   7.747   6.789   5.189 -0.1863  0.7070  0.6285
   47MOL   H12811260   7.749   7.127   5.280  0.0447 -0.1616  0.5997
   47MOL   H12911261   7.723   7.266   5.471  0.9937 -0.3788 -0.5153
   47MOL   H13011262   7.807   7.124   5.521  0.7544  1.0719 -1.1676
   47MOL   H13111263   7.632   7.137   5.553 -0.7821  1.2485  0.1776
   47MOL   H13211264   7.566   6.915   5.417 -1.6111 -2.0841 -1.9868
   47MOL   H13311265   7.738   6.901   5.418 -0.8208  0.6910  1.2393
   47MOL   O13411266   7.543   6.897   5.151  0.0779  0.1750 -0.3354
   47MOL   C13511267   7.532   6.863   5.015 -0.4322 -0.1136 -0.0436
   47MOL   C13611268   7.458   6.728   5.000 -0.0779 -0.7694  0.7367
   47MOL   C13711269   7.457   6.976   4.937 -0.6880 -0.4841 -0.3774
   47MOL   C13811270   7.518   6.981   4.798 -0.1649  0.0710 -0.1085
   47MOL   O13911271   7.599   7.063   4.758  0.0721  0.9008 -0.0506
   47MOL   H14011272   7.633   6.851   4.976  0.0971 -3.3479  2.1065
   47MOL   H14111273   7.520   6.652   5.046  0.0045 -0.7318  0.6867
   47MOL   H14211274   7.444   6.702   4.895 -1.3855 -1.2372  1.0240
   47MOL   H14311275   7.356   6.718   5.038  0.3832  1.0849  2.5504
   47MOL   H14411276   7.467   7.072   4.988 -2.1512 -1.1221  1.1611
   47MOL   H14511277   7.349   6.963   4.923 -0.9788 -0.7342  1.9751
   47MOL   O14611278   7.473   6.881   4.725 -0.1381 -0.7337  0.0167
   47MOL   C14711279   7.502   6.865   4.589  0.2532 -0.8580 -0.3559
   47MOL   C14811280   7.471   6.709   4.560 -0.1331  0.2674 -0.2115
   47MOL   C14911281   7.408   6.967   4.508 -0.4624  0.6971 -0.7877
   47MOL   C15011282   7.416   6.942   4.357 -0.2197 -0.0959  0.6145
   47MOL   O15111283   7.468   7.018   4.275  0.2279 -0.0901 -0.5021
   47MOL   H15211284   7.607   6.876   4.561  0.3416 -2.1174 -0.5817
   47MOL   H15311285   7.519   6.640   4.629  0.2774  1.8939  1.1712
   47MOL   H15411286   7.508   6.679   4.462 -0.5564 -1.9426  0.2887
   47MOL   H15511287   7.363   6.691   4.560  0.1669 -1.6183 -1.3599
   47MOL   H15611288   7.445   7.064   4.539  0.8175 -0.0079 -0.0316
   47MOL   H15711289   7.301   6.954   4.526 -0.6113  0.7058 -1.6385
   47MOL   O15811290   7.346   6.838   4.312  0.0063 -0.0215 -0.0439
   47MOL   C15911291   7.342   6.811   4.170 -0.7821  0.2529 -0.7191
   47MOL   C16011292   7.413   6.682   4.129  0.3736  0.5540  0.2229
   47MOL   C16111293   7.193   6.822   4.135  0.4200  0.1173  0.0151
   47MOL   C16211294   7.173   6.816   3.981 -0.1746 -0.0005 -0.2600
   47MOL   O16311295   7.073   6.757   3.930 -0.2814  0.1788  0.4324
   47MOL   H16411296   7.390   6.895   4.120  0.0967 -0.2682 -0.7669
   47MOL   H16511297   7.363   6.599   4.178  0.7462 -1.0446 -2.0233
   47MOL   H16611298   7.516   6.686   4.164  0.5333 -1.3511  0.0070
   47MOL   H16711299   7.401   6.669   4.021 -0.3402 -0.9432  0.4788
   47MOL   H16811300   7.153   6.918   4.166 -0.4073 -0.4687  0.8098
   47MOL   H16911301   7.134   6.752   4.194 -1.1760  1.5206  0.1000
   47MOL   O17011302   7.263   6.894   3.912  0.2004 -0.4074  0.1549
   47MOL   C17111303   7.279   6.877   3.771  0.7476  0.0319 -0.0186
   47MOL   C17211304   7.189   6.956   3.688 -0.3771  0.6991 -0.1073
   47MOL   C17311305   7.425   6.907   3.733 -0.4022 -1.0513 -0.1525
   47MOL   C17411306   7.516   6.797   3.785 -0.3350  0.6407  0.4478
   47MOL   O17511307   7.506   6.681   3.749  0.7636 -0.2570 -0.0500
   47MOL   H17611308   7.246   6.776   3.748  0.3467 -0.2029  1.5094
   47MOL   H17711309   7.202   6.949   3.580 -0.4609  0.9671 -0.1372
   47MOL   H17811310   7.203   7.062   3.709 -2.0133  0.8247  0.4130
   47MOL   H17911311   7.081   6.940   3.695 -0.7333  1.7410 -2.5671
   47MOL   H18011312   7.471   7.002   3.758 -0.6557 -0.7437 -0.8320
   47MOL   H18111313   7.437   6.904   3.625 -1.0408 -0.2253 -0.2542
   47MOL   O18211314   7.617   6.851   3.853 -0.0344 -0.2979 -0.4205
   47MOL   C18311315   7.707   6.768   3.917  0.5946  0.2361  0.4240
   47MOL   C18411316   7.813   6.716   3.821 -0.6975 -0.1158 -0.6683
   47MOL   C18511317   7.766   6.851   4.038  0.1191 -0.3873 -0.3154
   47MOL   C18611318   7.836   6.768   4.146 -0.5678 -0.2706  0.5291
   47MOL   O18711319   7.850   6.650   4.141  0.3226  0.0487 -0.0282
   47MOL   H18811320   7.658   6.678   3.953  0.0712  0.6275  0.6930
   47MOL   H18911321   7.862   6.796   3.766 -0.6652  1.1384  1.1485
   47MOL   H19011322   7.783   6.641   3.748 -0.3922 -2.3425  1.4267
   47MOL   H19111323   7.885   6.655   3.876  0.5642  1.3442 -0.6633
   47MOL   H19211324   7.689   6.899   4.098 -0.2599 -0.0238 -1.0982
   47MOL   H19311325   7.842   6.919   4.001 -0.4505  0.5187  0.1739
   47MOL   O19411326   7.880   6.845   4.243 -0.1278  0.2303  0.3448
   47MOL   C19511327   7.946   6.782   4.353  0.4560  0.4866 -0.3767
   47MOL   C19611328   0.076   6.869   4.401 -0.3830  0.1164  1.1067
   47MOL   C19711329   7.838   6.748   4.461  0.2181 -0.3355  0.3780
   47MOL   C19811330   7.879   6.640   4.567 -0.1940  0.0460  0.4682
   47MOL   O19911331   7.861   6.657   4.688  0.0694  0.8476  0.2278
   47MOL   H20011332   0.013   6.689   4.324  0.6320  0.7344 -0.9052
   47MOL   H20111333   0.133   6.816   4.477  0.0485 -1.0145 -0.0005
   47MOL   H20211334   0.052   6.971   4.432 -1.1661  0.5072 -0.7087
   47MOL   H20311335   0.133   6.888   4.310 -0.2543  0.0643  1.1765
   47MOL   H20411336   7.752   6.713   4.403  0.9469  0.9658 -1.5643
   47MOL   H20511337   7.813   6.841   4.512  1.1081  0.3065 -0.3400
   47MOL   O20611338   7.938   6.530   4.513 -0.5327 -0.1891 -0.3175
   47MOL   C20711339   0.014   6.426   4.598 -0.6576  0.8023  0.1651
   47MOL   C20811340   7.902   6.311   4.590  0.5330 -0.1282 -0.2328
   47MOL   C20911341   0.161   6.393   4.554  0.1704 -0.7098  0.5108
   47MOL   C21011342   0.240   6.315   4.657  0.4394  0.5887 -0.6891
   47MOL   O21111343   0.240   6.193   4.667  0.0138  0.1106  0.4451
   47MOL   H21211344   0.013   6.469   4.699 -0.5047 -0.5133  0.7354
   47MOL   H21311345   7.893   6.274   4.487 -0.5733  0.7989 -0.4884
   47MOL   H21411346   7.805   6.333   4.636  0.3771 -1.3913  0.0623
   47MOL   H21511347   7.948   6.232   4.648  2.0710  0.0855 -1.1318
   47MOL   H21611348   0.220   6.481   4.528 -2.3423  0.8099 -0.2490
   47MOL   H21711349   0.151   6.333   4.463 -3.7897  0.0919  0.3209
   47MOL   O21811350   0.318   6.390   4.736 -0.4619 -0.4681  0.3172
   47MOL   C21911351   0.394   6.329   4.841 -0.5631  0.0103  0.0708
   47MOL   C22011352   0.523   6.400   4.860 -0.6839 -0.1159  0.0067
   47MOL   C22111353   0.317   6.315   4.971 -0.0508  0.0089 -0.2196
   47MOL   C22211354   0.255   6.440   5.030 -0.0169 -0.4343  0.5705
   47MOL   O22311355   0.323   6.520   5.095 -0.0076 -0.1487 -0.2409
   47MOL   H22411356   0.418   6.226   4.814 -1.8948 -0.0888 -0.7385
   47MOL   H22511357   0.505   6.504   4.886 -0.2892 -0.0693  0.0981
   47MOL   H22611358   0.576   6.405   4.765  2.0414  1.3663  1.5615
   47MOL   H22711359   0.588   6.354   4.935 -1.0957  1.2968  1.2635
   47MOL   H22811360   0.374   6.264   5.049  1.2044  1.9848  0.1743
   47MOL   H22911361   0.242   6.237   4.959  1.0606 -0.9839 -0.7429
   47MOL   O23011362   0.120   6.446   5.001  0.5705 -0.5253  0.2695
   47MOL   C23111363   0.047   6.556   5.037  0.0612 -0.3031  0.7629
   47MOL   C23211364   0.096   6.675   4.956 -0.5224 -0.3600  0.2229
   47MOL   C23311365   7.881   6.524   4.991  0.4337  0.0368 -0.9061
   47MOL   C23411366   7.810   6.433   5.089  0.5362  0.1115 -0.0784
   47MOL   O23511367   7.699   6.452   5.146  0.6333  0.7778  0.3700
   47MOL   H23611368   0.064   6.572   5.143  0.8020  0.4963  0.5261
   47MOL   H23711369   0.087   6.666   4.847 -0.7249 -1.1143  0.2973
   47MOL   H23811370   0.201   6.695   4.980 -0.2585 -1.2446 -0.1787
   47MOL   H23911371   0.036   6.761   4.984  0.5071  0.3898  0.1884
   47MOL   H24011372   7.882   6.477   4.892 -2.9450 -0.9754 -0.5443
   47MOL   H24111373   7.825   6.617   4.981  0.1830 -0.0311 -0.1270
   47MOL   H24211374   7.855   6.335   5.101  2.1980  0.6138 -1.9001
   48MOL     O111375   4.841   4.897   7.851  0.2506 -0.3992 -0.2501
   48MOL     C211376   4.776   4.997   7.780  0.2285 -0.0505  0.2871
   48MOL     C311377   4.627   4.985   7.814 -0.1977  0.2626  0.4533
   48MOL     C411378   4.846   5.131   7.818 -0.3132  0.1522 -0.4593
   48MOL     C511379   4.823   5.233   7.709  0.3976  0.1405 -0.2240
   48MOL     O611380   4.924   5.276   7.648 -0.5146  0.2907 -0.5411
   48MOL     H711381   4.778   4.980   7.672 -1.5389  2.0054 -0.0914
   48MOL     H811382   4.586   4.888   7.786  0.5396  0.2915 -0.7572
   48MOL     H911383   4.562   5.049   7.756 -2.2601 -2.1989 -0.0121
   48MOL    H1011384   4.603   5.006   7.918  0.1659  0.2645  0.5383
   48MOL    H1111385   4.952   5.107   7.806 -0.6124 -1.0409 -0.8532
   48MOL    H1211386   4.819   5.183   7.910 -0.0192  1.5031 -1.1232
   48MOL    H1311387   4.932   4.898   7.828  0.0809  2.2589 -1.0767
   48MOL    O1411388   4.698   5.272   7.695 -1.0155  0.3866  0.0605
   48MOL    C1511389   4.662   5.362   7.592  0.6699  0.1161  0.5633
   48MOL    C1611390   4.559   5.284   7.514  0.6391  0.7756 -0.0285
   48MOL    C1711391   4.599   5.488   7.653 -0.0323  0.3308  0.0913
   48MOL    C1811392   4.589   5.602   7.557 -0.6111 -0.1137  0.1644
   48MOL    O1911393   4.626   5.598   7.438  0.1383  0.2209  0.8321
   48MOL    H2011394   4.743   5.379   7.522  0.5895 -4.1641 -0.6825
   48MOL    H2111395   4.479   5.244   7.575  0.0736 -2.2657 -2.6498
   48MOL    H2211396   4.616   5.204   7.466  2.6063  1.7220  0.6542
   48MOL    H2311397   4.502   5.344   7.442 -0.6141  0.5672  0.7768
   48MOL    H2411398   4.677   5.525   7.720  0.2716 -0.5802  0.2539
   48MOL    H2511399   4.512   5.474   7.716 -0.0030  1.9806  0.5016
   48MOL    O2611400   4.541   5.713   7.624 -0.2766 -0.1281 -0.3704
   48MOL    C2711401   4.539   5.843   7.565 -0.3822  0.2668 -0.2825
   48MOL    C2811402   4.414   5.857   7.477 -0.2459  0.3391  0.2612
   48MOL    C2911403   4.556   5.940   7.681 -0.2242 -0.0461 -0.4816
   48MOL    C3011404   4.599   6.084   7.637  0.8908  0.3612  0.0135
   48MOL    O3111405   4.699   6.130   7.685  0.5784  0.2380  0.1181
   48MOL    H3211406   4.632   5.854   7.508 -1.0206 -0.4575 -1.4763
   48MOL    H3311407   4.323   5.868   7.535 -0.4468  0.2638 -0.0392
   48MOL    H3411408   4.397   5.780   7.402  0.2794  0.4693  0.0046
   48MOL    H3511409   4.425   5.953   7.428  1.9666  0.8631  1.6878
   48MOL    H3611410   4.622   5.900   7.759 -1.4200 -1.9757 -0.4070
   48MOL    H3711411   4.464   5.960   7.737 -0.9454 -1.3417 -1.1720
   48MOL    O3811412   4.518   6.137   7.551  0.5046 -0.3346 -0.0213
   48MOL    C3911413   4.520   6.278   7.522  0.2740  0.4900 -0.0304
   48MOL    C4011414   4.639   6.297   7.425  0.1334 -0.0851 -0.1712
   48MOL    C4111415   4.388   6.322   7.457  0.0175  0.5659  0.4992
   48MOL    C4211416   4.262   6.303   7.548  0.0276 -0.1022  0.2751
   48MOL    O4311417   4.196   6.402   7.586  0.9382  0.0746  0.8326
   48MOL    H4411418   4.527   6.330   7.617 -0.8254  0.9849 -0.2111
   48MOL    H4511419   4.728   6.322   7.484  1.3914  0.5814 -2.3014
   48MOL    H4611420   4.637   6.387   7.363 -1.3145 -0.3128 -0.4497
   48MOL    H4711421   4.668   6.208   7.369  0.6383  1.6538 -2.7531
   48MOL    H4811422   4.382   6.278   7.358  0.7606  3.5442 -0.9419
   48MOL    H4911423   4.403   6.429   7.438 -0.3864  0.4634 -0.4509
   48MOL    O5011424   4.224   6.174   7.547  0.0016  0.7976  0.0623
   48MOL    C5111425   4.095   6.129   7.582  0.1989  0.6787  0.3621
   48MOL    C5211426   4.061   5.996   7.515  0.2152  0.5543 -0.6334
   48MOL    C5311427   4.067   6.125   7.734  0.5622 -0.9401  0.1831
   48MOL    C5411428   4.148   6.034   7.816 -0.0644  0.3744 -0.2135
   48MOL    O5511429   4.237   6.069   7.900  0.0753 -0.0316 -0.3908
   48MOL    H5611430   4.026   6.199   7.535 -1.7280 -0.9163  0.7265
   48MOL    H5711431   3.957   5.964   7.519  0.3804 -0.1336 -1.6278
   48MOL    H5811432   4.123   5.914   7.549 -0.5047 -0.2323 -1.1950
   48MOL    H5911433   4.087   6.000   7.409  0.5163  0.3271 -0.5688
   48MOL    H6011434   3.963   6.099   7.754  0.7685 -0.6945  1.6277
   48MOL    H6111435   4.080   6.226   7.773 -1.4788 -0.0777 -1.2445
   48MOL    O6211436   4.105   5.901   7.800  0.1538  0.4516 -0.5122
   48MOL    C6311437   4.156   5.799   7.884 -0.5588  0.1019 -0.2772
   48MOL    C6411438   4.027   5.730   7.937  0.0188 -1.3245 -0.1316
   48MOL    C6511439   4.262   5.703   7.821 -0.0234 -0.0093 -0.3175
   48MOL    C6611440   4.227   5.586   7.730 -0.3670 -0.0024  0.0472
   48MOL    O6711441   4.273   5.476   7.754  0.2700  0.3080 -0.8230
   48MOL    H6811442   4.207   5.833   7.974 -0.3427 -1.7652  0.3365
   48MOL    H6911443   4.055   5.639   0.010  1.0514 -0.1533  1.4015
   48MOL    H7011444   3.956   5.693   7.863 -0.4210  2.1701 -1.5307
   48MOL    H7111445   3.963   5.789   0.023 -3.2026 -2.5012 -2.0843
   48MOL    H7211446   4.307   5.662   7.911 -2.3668 -1.1019  0.3873
   48MOL    H7311447   4.337   5.761   7.767  0.8026 -1.2907 -0.5646
   48MOL    O7411448   4.153   5.621   7.629 -0.0173  0.2129  0.3773
   48MOL    C7511449   4.129   5.534   7.520  0.5089  0.2860 -0.2473
   48MOL    C7611450   4.010   5.589   7.444  0.7939  0.2518 -0.5875
   48MOL    C7711451   4.244   5.534   7.432  0.0629 -0.1543 -0.2864
   48MOL    C7811452   4.240   5.420   7.326  0.4276  0.3716 -0.5930
   48MOL    O7911453   4.261   5.444   7.208  0.0522 -0.0834  0.6947
   48MOL    H8011454   4.116   5.429   7.546 -1.3021  0.8704  1.3730
   48MOL    H8111455   4.006   5.560   7.339 -3.1602 -2.8688  0.3030
   48MOL    H8211456   4.012   5.698   7.444  1.8983  0.2409  1.1118
   48MOL    H8311457   3.914   5.559   7.485  1.1059  1.2397  0.9009
   48MOL    H8411458   4.333   5.521   7.494 -1.9979  0.8882  3.0372
   48MOL    H8511459   4.262   5.629   7.382  0.8839  0.0877  0.4398
   48MOL    O8611460   4.202   5.299   7.385  0.2530 -0.0920 -0.3907
   48MOL    C8711461   4.205   5.180   7.302 -0.3819  0.5009  0.7068
   48MOL    C8811462   4.287   5.083   7.379 -0.2080 -0.3836  0.4801
   48MOL    C8911463   4.058   5.126   7.257 -1.3817 -0.0198  0.1525
   48MOL    C9011464   3.991   5.191   7.143 -0.1808  0.0972 -0.0041
   48MOL    O9111465   3.979   5.128   7.035 -0.8706  0.2627  0.4055
   48MOL    H9211466   4.256   5.191   7.206 -1.5930  1.2830  0.1460
   48MOL    H9311467   4.280   4.982   7.338 -0.3904 -0.8589  1.6649
   48MOL    H9411468   4.254   5.071   7.482  1.6574 -0.0860  1.1178
   48MOL    H9511469   4.392   5.109   7.381  0.2208 -1.7751 -1.5711
   48MOL    H9611470   3.991   5.133   7.343  1.3483  0.0142  2.3718
   48MOL    H9711471   4.078   5.022   7.229 -3.9964 -1.5682  3.5163
   48MOL    O9811472   3.926   5.309   7.168 -0.1064  0.0094  0.4865
   48MOL    C9911473   3.880   5.393   7.061 -0.1993  1.0069 -0.6239
   48MOL   C10011474   3.728   5.428   7.079  0.6317 -0.2676 -0.0343
   48MOL   C10111475   3.979   5.506   7.034  0.2904  0.0480 -0.0238
   48MOL   C10211476   3.941   5.610   6.928  0.6798 -0.1084 -0.2510
   48MOL   O10311477   3.849   5.690   6.944  0.6034  0.5216  0.5094
   48MOL   H10411478   3.884   5.334   6.969 -1.0966  0.3230 -0.2305
   48MOL   H10511479   3.668   5.459   6.994  0.1326 -1.1250 -0.0067
   48MOL   H10611480   3.712   5.501   7.158  2.4871  1.1419 -0.9326
   48MOL   H10711481   3.688   5.334   7.119  1.4589 -1.1807 -1.3114
   48MOL   H10811482   4.073   5.466   6.995  0.0805 -0.1373 -0.3489
   48MOL   H10911483   4.013   5.554   7.125  1.2803  2.9829 -1.8905
   48MOL   O11011484   4.019   5.595   6.820 -0.1171 -0.0423  0.1676
   48MOL   C11111485   4.025   5.684   6.711 -0.5451 -0.0181  0.2624
   48MOL   C11211486   4.113   5.801   6.754 -0.8836 -0.0332 -0.0770
   48MOL   C11311487   4.070   5.583   6.595  0.4242 -0.3241 -0.5817
   48MOL   C11411488   4.099   5.645   6.458  0.2688 -0.4104 -0.7023
   48MOL   O11511489   4.158   5.753   6.445  0.1410 -0.5497  0.2432
   48MOL   H11611490   3.929   5.726   6.682 -1.0366 -0.6416  0.9720
   48MOL   H11711491   4.211   5.767   6.787  0.1145  0.5546 -2.3344
   48MOL   H11811492   4.068   5.854   6.838 -1.3542  1.8389 -1.4771
   48MOL   H11911493   4.129   5.878   6.677  1.9235  0.0434  0.5306
   48MOL   H12011494   4.008   5.496   6.577  2.8784 -2.0661 -0.9427
   48MOL   H12111495   4.165   5.534   6.618  0.8485  0.6420 -0.2126
   48MOL   O12211496   4.059   5.559   6.362 -0.0192  0.1716 -0.2989
   48MOL   C12311497   4.085   5.606   6.230 -0.0982 -0.2123  0.3451
   48MOL   C12411498   4.236   5.600   6.194  0.2791  0.4432 -0.2369
   48MOL   C12511499   3.984   5.542   6.138  0.4344 -0.4049 -0.1843
   48MOL   C12611500   3.993   5.394   6.119  0.2818 -0.6051 -0.3315
   48MOL   O12711501   3.903   5.321   6.154 -0.0749 -0.3991 -0.2121
   48MOL   H12811502   4.051   5.710   6.237  0.8739  0.1823 -0.6305
   48MOL   H12911503   4.265   5.497   6.217 -2.8887 -0.2786  0.7512
   48MOL   H13011504   4.292   5.676   6.249 -2.1184  1.1328  1.3295
   48MOL   H13111505   4.256   5.614   6.088 -1.2491  0.0210 -0.5877
   48MOL   H13211506   4.011   5.563   6.034  0.3994 -0.2465 -0.1612
   48MOL   H13311507   3.879   5.571   6.139  0.9469  1.5456  0.4760
   48MOL   O13411508   4.104   5.352   6.055 -0.2578 -0.2502 -0.5281
   48MOL   C13511509   4.120   5.220   5.998 -0.2604 -0.4133 -0.2411
   48MOL   C13611510   4.207   5.226   5.870 -0.4792 -0.3034 -0.4466
   48MOL   C13711511   4.180   5.114   6.104  0.1956  0.2795 -0.6937
   48MOL   C13811512   4.329   5.145   6.145  0.1278 -0.0993 -0.4320
   48MOL   O13911513   4.420   5.068   6.131  0.2262  0.6371 -0.2129
   48MOL   H14011514   4.022   5.183   5.971 -0.5093 -0.6684  0.9671
   48MOL   H14111515   4.298   5.284   5.884 -0.7275 -0.1481  0.5920
   48MOL   H14211516   4.145   5.277   5.796  0.1291 -0.3622 -0.9941
   48MOL   H14311517   4.237   5.124   5.844  0.0608 -0.1998 -0.2316
   48MOL   H14411518   4.181   5.011   6.070  1.9129 -1.0176  2.9836
   48MOL   H14511519   4.113   5.115   6.189  2.3167  0.6782  1.0324
   48MOL   O14611520   4.347   5.270   6.197  0.0510 -0.1167  0.4450
   48MOL   C14711521   4.482   5.315   6.242  0.0579  0.2578  0.3368
   48MOL   C14811522   4.543   5.407   6.137 -0.5990  0.5487 -0.0788
   48MOL   C14911523   4.490   5.378   6.380 -0.3024  0.5045 -0.2837
   48MOL   C15011524   4.473   5.286   6.495 -0.1701 -0.0048 -0.1096
   48MOL   O15111525   4.568   5.254   6.556  0.0773 -0.3158 -0.5560
   48MOL   H15211526   4.550   5.230   6.251  1.4774  1.5159  1.9553
   48MOL   H15311527   4.582   5.340   6.060 -0.5018  2.4283 -1.6992
   48MOL   H15411528   4.624   5.470   6.174  0.1977 -0.1531 -0.6093
   48MOL   H15511529   4.465   5.472   6.098  0.6700  1.9561 -0.3406
   48MOL   H15611530   4.420   5.461   6.379  0.3679  1.1194  1.7003
   48MOL   H15711531   4.583   5.433   6.396 -2.0065  3.4510 -0.1266
   48MOL   O15811532   4.345   5.254   6.525  0.4901  0.0229 -0.2325
   48MOL   C15911533   4.323   5.154   6.618 -0.4351 -0.5815  0.2390
   48MOL   C16011534   4.173   5.156   6.640 -0.4298  0.1185  0.4799
   48MOL   C16111535   4.381   5.016   6.584  0.4677 -0.4541  0.3604
   48MOL   C16211536   4.457   4.945   6.695  0.1537  0.1479 -0.3091
   48MOL   O16311537   4.582   4.960   6.703 -0.1394  0.4280 -0.5048
   48MOL   H16411538   4.362   5.186   6.714 -2.5721  0.6116  0.7470
   48MOL   H16511539   4.155   5.096   6.729 -0.1445 -0.1582  0.3512
   48MOL   H16611540   4.101   5.119   6.567  2.0044 -0.6394 -1.6182
   48MOL   H16711541   4.134   5.257   6.655 -0.5871 -0.0132  0.9341
   48MOL   H16811542   4.453   5.024   6.502  3.8406 -0.2210  3.2195
   48MOL   H16911543   4.306   4.940   6.562  2.3710 -1.8846 -1.3737
   48MOL   O17011544   4.372   4.889   6.775 -0.2049  0.1767 -0.4660
   48MOL   C17111545   4.415   4.833   6.896  0.2363 -0.3333  0.8450
   48MOL   C17211546   4.322   4.915   6.989  0.1133  0.0380  0.4301
   48MOL   C17311547   4.394   4.684   6.907  0.2983 -0.4006 -0.2876
   48MOL   C17411548   4.476   4.616   7.016 -0.1728  0.2265  0.2837
   48MOL   O17511549   4.565   4.671   7.084  0.0977 -0.8923  0.4786
   48MOL   H17611550   4.519   4.861   6.915  0.0116  1.3230 -0.2794
   48MOL   H17711551   4.216   4.900   6.971  0.8932 -2.0278 -2.8709
   48MOL   H17811552   4.351   5.019   6.977  3.3191 -1.0592 -2.1720
   48MOL   H17911553   4.346   4.898   7.094 -2.0958 -1.9764  0.6668
   48MOL   H18011554   4.425   4.633   6.816 -0.0343 -0.9916 -0.0692
   48MOL   H18111555   4.287   4.669   6.913  0.7507 -3.4705  0.8009
   48MOL   O18211556   4.448   4.479   7.016 -0.2082 -0.0000  0.3524
   48MOL   C18311557   4.509   4.389   7.108  0.1320 -0.2731  0.3827
   48MOL   C18411558   4.400   4.311   7.183 -0.2067  0.6356 -0.5831
   48MOL   C18511559   4.603   4.296   7.031  0.0518  0.3352 -0.1125
   48MOL   C18611560   4.727   4.361   6.971  0.5192 -0.2444  0.4235
   48MOL   O18711561   4.745   4.363   6.851 -0.5657 -0.0277  0.6814
   48MOL   H18811562   4.571   4.437   7.182  0.1119  0.5560 -0.1293
   48MOL   H18911563   4.340   4.373   7.249  0.5482  0.0417  0.6813
   48MOL   H19011564   4.434   4.231   7.249 -0.0447  0.7679 -0.5067
   48MOL   H19111565   4.342   4.256   7.109 -2.0192  0.2646  1.0948
   48MOL   H19211566   4.542   4.242   6.958  0.0846 -2.5325  1.8895
   48MOL   H19311567   4.642   4.219   7.099 -0.2577 -0.6705 -1.0559
   48MOL   O19411568   4.813   4.390   7.065 -0.0614 -0.0245 -0.4659
   48MOL   C19511569   4.945   4.441   7.030  0.0666 -0.7447 -0.2100
   48MOL   C19611570   4.963   4.574   7.101 -0.0608  0.0386  0.2074
   48MOL   C19711571   5.056   4.335   7.069 -0.4645 -0.2458 -0.2468
   48MOL   C19811572   5.058   4.213   6.976 -0.1201 -0.1121 -0.0497
   48MOL   O19911573   5.070   4.104   7.023 -0.6061  0.4659 -0.2547
   48MOL   H20011574   4.960   4.464   6.925  0.0823  1.9013  0.3406
   48MOL   H20111575   5.056   4.629   7.087 -0.0939  0.0662  0.0957
   48MOL   H20211576   4.960   4.558   7.209  1.4811 -0.1425  0.2307
   48MOL   H20311577   4.873   4.635   7.090 -0.2119 -0.5084 -1.9140
   48MOL   H20411578   5.063   4.299   7.172  0.7545 -1.5630 -0.7669
   48MOL   H20511579   5.152   4.386   7.063 -1.3537  1.7217  1.4932
   48MOL   O20611580   5.050   4.239   6.847 -0.8742 -0.1211  0.6522
   48MOL   C20711581   5.066   4.140   6.744 -0.6747 -0.2561  0.4971
   48MOL   C20811582   4.977   4.183   6.627  0.2833 -0.1573  0.2760
   48MOL   C20911583   5.210   4.110   6.706 -0.0310  0.2626 -0.5057
   48MOL   C21011584   5.233   4.015   6.594 -0.5043 -1.0755 -0.7081
   48MOL   O21111585   5.324   4.034   6.514 -0.5788 -0.3304 -0.2165
   48MOL   H21211586   5.026   4.044   6.777 -0.1598 -0.3441  0.8782
   48MOL   H21311587   4.976   4.125   6.535 -0.6909  0.4767 -0.1221
   48MOL   H21411588   4.984   4.290   6.606  1.4175 -0.3057 -0.1080
   48MOL   H21511589   4.876   4.163   6.664 -0.1252  0.7966 -0.2981
   48MOL   H21611590   5.266   4.073   6.792  0.9902 -0.0785 -1.3071
   48MOL   H21711591   5.258   4.202   6.673  1.4589 -0.5072 -0.5244
   48MOL   O21811592   5.144   3.909   6.595  0.2260 -0.4833  0.1526
   48MOL   C21911593   5.155   3.811   6.494 -0.7338  0.2006 -0.0570
   48MOL   C22011594   5.154   3.672   6.557 -0.3476 -0.7730  0.4655
   48MOL   C22111595   5.039   3.833   6.403 -0.5161 -0.0580  0.4705
   48MOL   C22211596   5.052   3.785   6.261 -0.0092  0.1698  0.3458
   48MOL   O22311597   5.144   3.708   6.235  0.0598 -0.2918 -0.2320
   48MOL   H22411598   5.250   3.814   6.441 -2.1893 -0.0095 -2.7577
   48MOL   H22511599   5.062   3.645   6.609  0.0302 -3.1378 -0.0104
   48MOL   H22611600   5.233   3.640   6.625  0.4929  1.2104  0.4401
   48MOL   H22711601   5.169   3.599   6.477  0.6502  0.9712 -0.9673
   48MOL   H22811602   5.024   3.940   6.388 -1.2873  0.1126  2.4180
   48MOL   H22911603   4.939   3.810   6.440 -0.7516  2.5149  1.5438
   48MOL   O23011604   4.968   3.830   6.174 -0.3589  0.3509  0.2557
   48MOL   C23111605   4.980   3.806   6.029 -0.1892 -0.6570  0.3379
   48MOL   C23211606   4.831   3.800   5.979  0.8179  0.2063  0.3702
   48MOL   C23311607   5.051   3.928   5.973 -0.2329 -0.7682  0.4735
   48MOL   C23411608   5.105   3.902   5.838 -0.4899  0.2018 -0.6085
   48MOL   O23511609   5.059   3.811   5.763 -0.3598  0.1183 -0.2751
   48MOL   H23611610   5.026   3.710   6.008  0.7374  0.1478 -1.4328
   48MOL   H23711611   4.767   3.888   5.972 -0.9557 -0.9807  1.2409
   48MOL   H23811612   4.776   3.739   6.051  2.5528 -0.0591  1.4845
   48MOL   H23911613   4.822   3.746   5.885  1.4154  1.2047 -0.2702
   48MOL   H24011614   5.135   3.966   6.030  0.7561 -1.0998 -0.7421
   48MOL   H24111615   4.977   4.007   5.969 -1.3826 -1.8444 -0.1794
   48MOL   H24211616   5.187   3.971   5.813  2.1518 -1.5838  2.7609
   49MOL     O111617   1.954   3.996   0.410 -0.2930 -0.0516  0.5638
   49MOL     C211618   2.033   3.915   0.493 -0.2191 -0.3083  1.3055
   49MOL     C311619   2.005   3.762   0.447  0.0242  0.2441 -0.4536
   49MOL     C411620   2.182   3.966   0.481 -0.4311 -0.5308 -0.1152
   49MOL     C511621   2.265   3.900   0.591 -0.0822  0.4517 -0.0304
   49MOL     O611622   2.288   3.960   0.697  0.6937  0.3333 -0.1732
   49MOL     H711623   1.998   3.938   0.593  1.3938  1.7715  1.4224
   49MOL     H811624   1.917   3.721   0.496  0.2560  1.5754  1.1174
   49MOL     H911625   2.086   3.698   0.483  0.0338  0.7859  0.4947
   49MOL    H1011626   1.997   3.749   0.339 -0.3046 -1.5113 -0.2356
   49MOL    H1111627   2.195   4.073   0.496  0.6912 -0.6152 -0.4480
   49MOL    H1211628   2.227   3.942   0.385  1.4779 -2.7397  1.2546
   49MOL    H1311629   1.898   3.943   0.355  2.0517 -0.8317 -1.1467
   49MOL    O1411630   2.341   3.798   0.553 -0.1408  0.0013  0.1880
   49MOL    C1511631   2.447   3.747   0.633  0.3375 -0.0195  0.2916
   49MOL    C1611632   2.397   3.617   0.708 -0.6193 -0.4505 -0.0178
   49MOL    C1711633   2.563   3.713   0.534 -0.2442  0.3962  0.9791
   49MOL    C1811634   2.660   3.833   0.511 -0.3715 -0.0042  0.5918
   49MOL    O1911635   2.680   3.873   0.395  0.4001 -0.0693  0.1769
   49MOL    H2011636   2.490   3.812   0.709 -1.0967 -0.8006  1.7891
   49MOL    H2111637   2.346   3.550   0.639  0.7750  2.3593 -3.9814
   49MOL    H2211638   2.318   3.638   0.780 -1.0771  2.4743 -1.2813
   49MOL    H2311639   2.481   3.565   0.754 -0.5933 -0.7951 -0.4503
   49MOL    H2411640   2.522   3.680   0.438  1.8791 -1.0609  0.5447
   49MOL    H2511641   2.623   3.631   0.573  0.1684  0.4612  0.4810
   49MOL    O2611642   2.710   3.891   0.620 -0.7662  0.3297 -0.1113
   49MOL    C2711643   2.818   3.984   0.626  0.1864  0.1056 -0.1764
   49MOL    C2811644   2.782   4.106   0.547  0.6408  0.2335  0.1633
   49MOL    C2911645   2.861   4.015   0.770  0.2509 -0.3952  0.6314
   49MOL    C3011646   2.753   4.076   0.856 -0.5706  0.8659 -0.3016
   49MOL    O3111647   2.715   4.025   0.963 -0.5805 -0.0153  0.2142
   49MOL    H3211648   2.906   3.940   0.580 -0.7938  0.2686 -2.3224
   49MOL    H3311649   2.801   4.111   0.440  0.9674  0.6975  0.2429
   49MOL    H3411650   2.840   4.182   0.599  0.9567 -0.8208  1.3951
   49MOL    H3511651   2.681   4.140   0.567  1.3843  0.8178  3.2605
   49MOL    H3611652   2.952   4.075   0.772  0.2828 -0.4173 -0.1614
   49MOL    H3711653   2.890   3.920   0.816  0.9435 -0.5161 -0.0655
   49MOL    O3811654   2.704   4.189   0.800 -0.1005  0.2069  0.1890
   49MOL    C3911655   2.592   4.258   0.857  0.3768  0.2382  0.0007
   49MOL    C4011656   2.612   4.413   0.829 -0.6536  0.5721  0.0597
   49MOL    C4111657   2.462   4.198   0.804 -1.0124 -0.2536 -0.4142
   49MOL    C4211658   2.334   4.251   0.877 -0.4861 -0.3006  0.1977
   49MOL    O4311659   2.242   4.300   0.814 -0.3705 -0.0706  0.0314
   49MOL    H4411660   2.591   4.243   0.965 -0.4291  0.0081 -0.0380
   49MOL    H4511661   2.642   4.432   0.726  0.3186 -0.9026  0.0553
   49MOL    H4611662   2.690   4.455   0.893  1.1383 -0.2608 -1.5412
   49MOL    H4711663   2.519   4.468   0.846 -0.6366 -0.1415  2.6764
   49MOL    H4811664   2.453   4.096   0.841  1.4290 -0.2659  0.2142
   49MOL    H4911665   2.450   4.211   0.697 -0.9967  0.5770 -0.3207
   49MOL    O5011666   2.337   4.243   1.010 -0.4426 -0.2266  0.1517
   49MOL    C5111667   2.238   4.306   1.090  0.7574  0.7311 -0.3970
   49MOL    C5211668   2.185   4.202   1.195 -0.1017 -0.6029 -0.0091
   49MOL    C5311669   2.302   4.427   1.151  0.0974 -0.4763 -0.6500
   49MOL    C5411670   2.415   4.406   1.255 -0.0205 -0.2302  0.9406
   49MOL    O5511671   2.422   4.478   1.351 -0.5822 -0.3146  0.2726
   49MOL    H5611672   2.158   4.351   1.031  1.3369  1.6174 -0.5057
   49MOL    H5711673   2.147   4.112   1.148  0.0797 -0.7128  0.0557
   49MOL    H5811674   2.099   4.252   1.240 -1.2436 -1.1094 -1.5668
   49MOL    H5911675   2.257   4.168   1.269 -1.9596 -1.4556  1.4378
   49MOL    H6011676   2.222   4.486   1.196  0.1491 -0.7613 -0.1853
   49MOL    H6111677   2.345   4.486   1.070  0.4136 -1.5750 -1.2908
   49MOL    O6211678   2.509   4.304   1.226  0.2367 -0.0991  0.4406
   49MOL    C6311679   2.587   4.249   1.336  0.2816 -0.1322  0.7083
   49MOL    C6411680   2.528   4.119   1.379  1.0430  0.8513  0.3557
   49MOL    C6511681   2.730   4.235   1.292  0.0324  1.0314 -0.8256
   49MOL    C6611682   2.794   4.364   1.232 -0.5816  0.1704  0.8976
   49MOL    O6711683   2.867   4.351   1.133  0.1443 -0.4752  0.1297
   49MOL    H6811684   2.583   4.314   1.423 -0.6467 -2.1106  2.1923
   49MOL    H6911685   2.594   4.066   1.448 -0.4693 -0.1279  1.0847
   49MOL    H7011686   2.516   4.045   1.299  1.5168  1.4262 -0.2526
   49MOL    H7111687   2.435   4.132   1.434  0.3640 -2.0580  0.0037
   49MOL    H7211688   2.750   4.149   1.227  2.1070  1.7143 -1.1195
   49MOL    H7311689   2.774   4.210   1.389  2.1795 -0.3263 -2.0946
   49MOL    O7411690   2.775   4.475   1.303  0.2177 -0.2290  0.0208
   49MOL    C7511691   2.833   4.600   1.275 -0.0701 -0.3536 -0.0579
   49MOL    C7611692   2.736   4.670   1.176 -0.1568 -1.4198 -0.2160
   49MOL    C7711693   2.846   4.665   1.413 -0.6714  0.0964  0.6287
   49MOL    C7811694   2.918   4.800   1.422 -1.2684 -0.5925  0.4373
   49MOL    O7911695   2.917   4.873   1.322  0.1900 -0.9791 -0.7955
   49MOL    H8011696   2.925   4.583   1.218  0.7945  1.7164  0.6696
   49MOL    H8111697   2.710   4.615   1.085 -1.3072  0.1782 -0.8691
   49MOL    H8211698   2.782   4.762   1.140  0.5970 -1.0372  1.6533
   49MOL    H8311699   2.640   4.706   1.211  0.7904  0.3887  0.5994
   49MOL    H8411700   2.882   4.598   1.491 -0.0279  2.1245  2.1448
   49MOL    H8511701   2.743   4.688   1.443 -1.3891 -0.3328 -1.3919
   49MOL    O8611702   2.986   4.820   1.530  0.2441 -0.5946  0.3631
   49MOL    C8711703   3.078   4.934   1.540  0.3723  0.4252 -0.8614
   49MOL    C8811704   3.006   5.050   1.601 -0.3377  0.5536  0.0308
   49MOL    C8911705   3.217   4.886   1.604  0.4133 -0.3515 -0.3499
   49MOL    C9011706   3.217   4.873   1.760 -0.3225  0.1058  0.0770
   49MOL    O9111707   3.241   4.972   1.835 -0.0138 -0.0059  0.0237
   49MOL    H9211708   3.116   4.975   1.446 -0.1767  0.4778 -1.0604
   49MOL    H9311709   2.926   5.099   1.545 -0.4622  1.2911  0.8393
   49MOL    H9411710   3.078   5.123   1.638 -1.7663  0.5800  2.9698
   49MOL    H9511711   2.966   5.027   1.700 -2.9545  2.7743 -0.4472
   49MOL    H9611712   3.297   4.956   1.579 -1.5325  1.0401 -2.9646
   49MOL    H9711713   3.250   4.793   1.559  1.0755 -0.1465 -0.2967
   49MOL    O9811714   3.191   4.752   1.798 -0.1621  0.2492 -0.4529
   49MOL    C9911715   3.169   4.724   1.931 -0.4841  0.1536  0.2415
   49MOL   C10011716   3.087   4.588   1.947 -0.3141  0.5052 -0.1775
   49MOL   C10111717   3.298   4.710   2.016  0.8085  0.4608  0.2114
   49MOL   C10211718   3.296   4.675   2.159 -0.5375  0.5606 -0.3140
   49MOL   O10311719   3.226   4.742   2.234 -0.0644  0.1278 -0.0664
   49MOL   H10411720   3.105   4.801   1.974 -2.4151 -1.6807  0.7273
   49MOL   H10511721   3.155   4.506   1.923 -0.7913 -0.1211  0.5880
   49MOL   H10611722   3.004   4.580   1.878 -0.1822  1.4153 -0.4515
   49MOL   H10711723   3.058   4.575   2.051  0.2025  0.6869 -0.0047
   49MOL   H10811724   3.353   4.804   2.010  1.9702 -0.0977  1.6334
   49MOL   H10911725   3.364   4.638   1.968 -2.1704 -2.9656  1.0783
   49MOL   O11011726   3.395   4.591   2.189 -0.8307  0.8872 -0.2907
   49MOL   C11111727   3.450   4.592   2.318 -0.4698 -0.2046  0.4029
   49MOL   C11211728   3.485   4.443   2.343  0.3185  0.7814  0.5942
   49MOL   C11311729   3.579   4.677   2.335 -0.1358  0.0753 -0.2286
   49MOL   C11411730   3.557   4.810   2.410  0.7394  0.7276 -0.2900
   49MOL   O11511731   3.446   4.843   2.451  0.0898 -0.0815 -0.2881
   49MOL   H11611732   3.370   4.625   2.385 -1.3512  0.1458 -0.8077
   49MOL   H11711733   3.397   4.379   2.353  1.6375 -1.3232 -0.7251
   49MOL   H11811734   3.540   4.439   2.437  0.4484  1.5837  0.5514
   49MOL   H11911735   3.543   4.396   2.263 -2.0000  0.7349 -1.1240
   49MOL   H12011736   3.624   4.686   2.236 -0.5139  2.0472 -0.2508
   49MOL   H12111737   3.656   4.627   2.394 -0.4299  0.6390  0.6544
   49MOL   O12211738   3.669   4.869   2.437 -0.4985  0.1760  0.3301
   49MOL   C12311739   3.663   4.987   2.518  0.2379  0.2741  0.2791
   49MOL   C12411740   3.774   4.977   2.625 -0.0572 -0.1270  0.4333
   49MOL   C12511741   3.676   5.123   2.435  0.3765 -0.8687 -0.3048
   49MOL   C12611742   3.797   5.129   2.341 -0.4148 -0.5294  0.1734
   49MOL   O12711743   3.799   5.069   2.240 -0.3962 -0.3937 -0.6671
   49MOL   H12811744   3.569   4.989   2.574 -0.4886  0.6212 -0.9325
   49MOL   H12911745   3.777   5.064   2.691 -3.1949 -0.6642  1.4111
   49MOL   H13011746   3.874   4.967   2.584 -0.2523 -2.5907  0.4789
   49MOL   H13111747   3.759   4.886   2.684 -2.0085  0.8414  1.4973
   49MOL   H13211748   3.665   5.210   2.500  0.0374 -0.4510 -0.9161
   49MOL   H13311749   3.588   5.124   2.370  0.4738  3.0835 -0.5014
   49MOL   O13411750   3.897   5.201   2.379  0.5277 -0.1951 -0.5321
   49MOL   C13511751   4.021   5.206   2.306  0.1940  0.1300  0.7653
   49MOL   C13611752   4.055   5.351   2.289 -0.2372 -0.6010 -0.4017
   49MOL   C13711753   4.129   5.114   2.378 -0.0839 -0.7979  1.0256
   49MOL   C13811754   4.175   5.179   2.509 -1.0245  0.3266 -0.2005
   49MOL   O13911755   4.291   5.222   2.523  0.4905 -0.1367 -0.1661
   49MOL   H14011756   4.001   5.170   2.206 -0.0078 -0.4934  1.0262
   49MOL   H14111757   3.982   5.394   2.222  2.3454  1.3333 -2.0847
   49MOL   H14211758   4.150   5.366   2.238  0.6467  1.8574  1.8206
   49MOL   H14311759   4.061   5.408   2.382  0.0339  0.6848 -1.1810
   49MOL   H14411760   4.209   5.082   2.312 -1.2830  1.2193 -1.5462
   49MOL   H14511761   4.083   5.023   2.415  2.9408 -1.9020  2.1609
   49MOL   O14611762   4.092   5.154   2.610  0.3603 -0.2381  0.0014
   49MOL   C14711763   4.119   5.202   2.741 -0.0143  0.0097 -0.5492
   49MOL   C14811764   3.974   5.224   2.802  0.1893  0.1017 -0.1459
   49MOL   C14911765   4.189   5.079   2.805 -0.3153  0.2410  0.0975
   49MOL   C15011766   4.229   5.108   2.945  0.3626  0.4943  0.2334
   49MOL   O15111767   4.332   5.168   2.974 -0.3168 -0.6228  0.1022
   49MOL   H15211768   4.172   5.296   2.726 -0.0766  0.0913 -0.2346
   49MOL   H15311769   3.902   5.286   2.749  0.8232 -0.4690 -1.6942
   49MOL   H15411770   3.984   5.263   2.903 -0.4755  0.4096 -0.1974
   49MOL   H15511771   3.925   5.130   2.824  0.1610  0.4932  1.5059
   49MOL   H15611772   4.286   5.076   2.756  0.2061  0.9813  1.0665
   49MOL   H15711773   4.133   4.986   2.797 -0.8001  0.4224  1.3176
   49MOL   O15811774   4.148   5.039   3.040  0.2234 -0.5897  0.2073
   49MOL   C15911775   4.173   5.040   3.185  0.9711  0.5477 -0.0730
   49MOL   C16011776   4.048   5.079   3.268 -0.4289  0.0137 -0.4112
   49MOL   C16111777   4.256   4.920   3.237  0.6756  0.0420  0.4287
   49MOL   C16211778   4.182   4.788   3.218  0.5609 -0.4288  0.0708
   49MOL   O16311779   4.205   4.713   3.127  0.4320  0.6313 -0.2159
   49MOL   H16411780   4.241   5.118   3.220 -0.0963  1.0923  0.8329
   49MOL   H16511781   4.026   5.184   3.246 -0.4654  0.1405  0.2242
   49MOL   H16611782   4.075   5.065   3.373  1.6247 -0.9168 -1.0538
   49MOL   H16711783   3.957   5.022   3.250 -1.1722  1.3329 -0.8997
   49MOL   H16811784   4.282   4.934   3.342 -1.4030 -1.5916  1.2135
   49MOL   H16911785   4.360   4.917   3.206  0.8062 -1.2264  0.9590
   49MOL   O17011786   4.094   4.771   3.318  0.0600  0.3717 -0.0429
   49MOL   C17111787   4.011   4.650   3.319  0.1614 -0.1022  0.3168
   49MOL   C17211788   4.042   4.571   3.453  0.2670 -0.3816 -0.4537
   49MOL   C17311789   3.864   4.701   3.320  0.0659  0.0015  0.4224
   49MOL   C17411790   3.806   4.744   3.179  0.4012  0.5041 -0.6921
   49MOL   O17511791   3.756   4.849   3.153 -0.2158 -0.3064  0.1698
   49MOL   H17611792   4.028   4.581   3.237  0.5286 -2.1927  2.0920
   49MOL   H17711793   4.028   4.629   3.544 -1.1633  3.1486 -2.8269
   49MOL   H17811794   4.147   4.541   3.454  0.2014 -0.5899  0.9153
   49MOL   H17911795   3.983   4.481   3.473  0.3260 -0.0986  1.0327
   49MOL   H18011796   3.841   4.775   3.397 -0.7283  1.2608 -0.9793
   49MOL   H18111797   3.811   4.609   3.344 -1.5729 -0.0265 -2.9478
   49MOL   O18211798   3.808   4.630   3.105  0.3488  0.2464 -0.4238
   49MOL   C18311799   3.759   4.640   2.971 -0.4103  0.9030  0.2051
   49MOL   C18411800   3.875   4.593   2.891  0.3258 -0.2300 -0.2383
   49MOL   C18511801   3.628   4.555   2.963  0.2764 -0.6748 -0.0308
   49MOL   C18611802   3.536   4.586   2.847 -0.5078  0.2265 -0.0076
   49MOL   O18711803   3.575   4.636   2.742 -0.2108  1.0471 -0.4362
   49MOL   H18811804   3.743   4.743   2.940  1.2329  0.1405 -3.4705
   49MOL   H18911805   3.922   4.503   2.929  1.0642  0.0211 -0.5593
   49MOL   H19011806   3.947   4.673   2.908  1.5845 -1.5923  0.9379
   49MOL   H19111807   3.855   4.576   2.785  1.2437 -4.0716  0.1403
   49MOL   H19211808   3.563   4.569   3.050  0.8352  0.9633  0.1535
   49MOL   H19311809   3.647   4.448   2.965  0.7820 -0.6315 -1.6147
   49MOL   O19411810   3.413   4.544   2.869  0.5830 -0.1472  0.6874
   49MOL   C19511811   3.306   4.571   2.774  0.9790 -0.1910 -0.0544
   49MOL   C19611812   3.316   4.465   2.660 -0.8714 -0.2987 -0.4727
   49MOL   C19711813   3.167   4.573   2.848 -0.5429 -0.5056 -0.8241
   49MOL   C19811814   3.121   4.439   2.901  0.5069  0.3113  0.1317
   49MOL   O19911815   3.157   4.394   3.009 -0.0610  0.7638  0.2451
   49MOL   H20011816   3.322   4.670   2.730  0.4518 -1.3695 -3.0044
   49MOL   H20111817   3.260   4.374   2.683  0.7715 -1.1628  0.2047
   49MOL   H20211818   3.416   4.447   2.620 -0.1327 -0.0896  1.2222
   49MOL   H20311819   3.259   4.510   2.580  0.1161  0.2488 -0.8770
   49MOL   H20411820   3.099   4.618   2.775 -0.5773 -2.9803 -2.3694
   49MOL   H20511821   3.175   4.640   2.934  1.7581 -0.6670 -0.8760
   49MOL   O20611822   3.024   4.381   2.822  0.1406 -0.4664  0.1316
   49MOL   C20711823   2.968   4.259   2.868 -0.2140  0.1970  0.9603
   49MOL   C20811824   2.809   4.275   2.866 -0.2223 -0.3923  0.8505
   49MOL   C20911825   3.006   4.140   2.771  0.5942 -0.1692  0.4033
   49MOL   C21011826   3.153   4.097   2.781  0.1770 -0.4692 -0.2216
   49MOL   O21111827   3.224   4.094   2.681 -0.6167  0.5287  0.5674
   49MOL   H21211828   2.980   4.228   2.972  0.7191 -0.1572  0.7553
   49MOL   H21311829   2.761   4.297   2.771 -1.0185 -2.4119  0.7584
   49MOL   H21411830   2.797   4.364   2.929 -1.0995  1.7624 -2.2233
   49MOL   H21511831   2.759   4.196   2.922 -0.8335 -0.5190  0.1318
   49MOL   H21611832   2.990   4.170   2.667  0.3500  0.4878  0.6299
   49MOL   H21711833   2.953   4.046   2.783  0.4784 -0.3770 -1.4984
   49MOL   O21811834   3.188   4.071   2.910 -0.2807  0.1798  0.0009
   49MOL   C21911835   3.309   4.015   2.946 -0.5498  0.4746 -0.5873
   49MOL   C22011836   3.397   4.131   2.993  0.1586 -0.4580 -0.4892
   49MOL   C22111837   3.289   3.904   3.047  0.1342  0.4091  0.2610
   49MOL   C22211838   3.408   3.820   3.060 -0.0078  0.3638  0.1944
   49MOL   O22311839   3.430   3.726   2.989  0.1199  0.4885  0.0876
   49MOL   H22411840   3.348   3.968   2.856  3.2030  2.1556  0.0543
   49MOL   H22511841   3.492   4.088   3.024  0.4478  1.1163  0.8809
   49MOL   H22611842   3.356   4.198   3.068  0.1644 -0.6719 -0.2967
   49MOL   H22711843   3.422   4.194   2.907 -0.9779 -0.4753 -0.8375
   49MOL   H22811844   3.203   3.840   3.026  2.7949 -2.1648 -3.2978
   49MOL   H22911845   3.272   3.950   3.145 -0.6736 -1.2707  0.9338
   49MOL   O23011846   3.488   3.856   3.164 -0.2677  0.2154 -0.3546
   49MOL   C23111847   3.594   3.776   3.204 -0.6434  0.1552  0.0704
   49MOL   C23211848   3.705   3.872   3.252 -0.2284  0.1681 -0.1856
   49MOL   C23311849   3.551   3.671   3.302  0.2329  0.1702  0.2533
   49MOL   C23411850   3.646   3.567   3.343 -0.0082  0.2189  0.2762
   49MOL   O23511851   3.652   3.453   3.290  0.0383 -0.2911  0.0363
   49MOL   H23611852   3.637   3.715   3.124  0.6383  0.8234  0.2425
   49MOL   H23711853   3.748   3.936   3.176 -2.7544  0.3335 -1.5332
   49MOL   H23811854   3.783   3.822   3.310  0.8136  1.5086 -0.4291
   49MOL   H23911855   3.649   3.947   3.307 -3.0087 -0.6344 -1.8143
   49MOL   H24011856   3.466   3.619   3.258 -1.4897  0.8048  2.7392
   49MOL   H24111857   3.514   3.714   3.395  0.3369  1.0220 -0.1023
   49MOL   H24211858   3.702   3.596   3.432  0.2482  2.7141 -0.6488
   50MOL     O111859   4.557   0.045   0.952  0.8690 -0.6861  0.1291
   50MOL     C211860   4.676   0.065   0.883  0.2232 -0.8381 -0.0910
   50MOL     C311861   4.779   7.953   0.948  0.8089  1.2645 -0.6768
   50MOL     C411862   4.660   0.020   0.734 -0.3959  0.5125  0.0038
   50MOL     C511863   4.773   0.062   0.639  0.0952 -0.2085 -0.1480
   50MOL     O611864   4.816   0.176   0.625  0.1172 -0.1901  0.2814
   50MOL     H711865   4.710   0.168   0.895  1.1249 -0.7540 -3.1129
   50MOL     H811866   4.881   7.971   0.915  0.1749  3.2988 -1.5796
   50MOL     H911867   4.761   7.851   0.913 -2.4949  1.8193 -0.8148
   50MOL    H1011868   4.769   7.958   1.056  0.4003 -0.5807 -0.5976
   50MOL    H1111869   4.569   0.067   0.697 -0.1354  1.5965  0.7075
   50MOL    H1211870   4.654   7.891   0.733  0.8285  0.4476 -1.3226
   50MOL    H1311871   4.510   0.127   0.957  1.4805 -0.2194 -1.5547
   50MOL    O1411872   4.812   7.935   0.563  0.1123  0.3859 -0.0412
   50MOL    C1511873   4.921   7.939   0.470  0.0621  0.2676  0.2605
   50MOL    C1611874   5.050   7.880   0.524 -0.1625  0.0024 -0.1761
   50MOL    C1711875   4.892   7.870   0.338  0.0282 -0.1184  0.1174
   50MOL    C1811876   4.826   7.972   0.240  0.7804  0.0351  0.3445
   50MOL    O1911877   4.853   7.965   0.119  0.0791 -0.4541  0.4766
   50MOL    H2011878   4.951   0.062   0.451  1.6566 -0.2296  0.0161
   50MOL    H2111879   5.125   7.895   0.447  0.4622 -2.1923 -0.0362
   50MOL    H2211880   5.047   7.776   0.557 -0.7224 -0.1150 -0.5904
   50MOL    H2311881   5.074   7.936   0.614  0.0938  1.2498 -1.0076
   50MOL    H2411882   4.811   7.800   0.358  0.4262 -0.4323  0.6611
   50MOL    H2511883   4.981   7.824   0.295  1.1441  0.5532  1.6127
   50MOL    O2611884   4.728   0.072   0.288 -0.2387 -0.0370 -0.0476
   50MOL    C2711885   4.666   0.166   0.197 -0.0457  0.3654 -0.0096
   50MOL    C2811886   4.522   0.123   0.174 -0.2502 -0.7618 -0.3294
   50MOL    C2911887   4.686   0.307   0.236  0.1091 -0.4229  0.8315
   50MOL    C3011888   4.835   0.350   0.236 -0.3043 -0.5364 -0.4105
   50MOL    O3111889   4.907   0.341   0.137  0.2053 -0.4782 -1.0863
   50MOL    H3211890   4.730   0.164   0.108  1.3402  0.4078  0.9742
   50MOL    H3311891   4.493   0.166   0.078 -0.9679 -3.3177 -1.2902
   50MOL    H3411892   4.461   0.163   0.255 -1.0915 -0.8318 -0.9252
   50MOL    H3511893   4.510   0.015   0.166 -0.3032 -0.7743 -0.1029
   50MOL    H3611894   4.626   0.346   0.319 -2.1648 -0.0388 -0.9582
   50MOL    H3711895   4.636   0.364   0.158  0.2920  0.1595  1.1343
   50MOL    O3811896   4.864   0.394   0.356 -0.3301  0.1947  0.0036
   50MOL    C3911897   4.980   0.461   0.388 -0.0651 -0.1780  0.4934
   50MOL    C4011898   4.942   0.586   0.468  0.2968 -0.4998  0.8844
   50MOL    C4111899   5.082   0.368   0.462  0.4363 -0.8433  0.4811
   50MOL    C4211900   5.171   0.284   0.378 -0.1601  0.2615  0.6079
   50MOL    O4311901   5.181   0.162   0.407  0.3997 -0.4998 -0.4952
   50MOL    H4411902   5.022   0.494   0.293  0.7716 -1.0366  0.5542
   50MOL    H4511903   4.861   0.635   0.414  0.5906 -1.1367 -0.1663
   50MOL    H4611904   5.027   0.654   0.472  0.1587 -0.1152 -1.6595
   50MOL    H4711905   4.916   0.561   0.571 -1.7391  0.1556  0.5381
   50MOL    H4811906   5.032   0.310   0.539 -1.4401  1.2708  0.9133
   50MOL    H4911907   5.154   0.427   0.520 -0.8090  0.1227  1.0648
   50MOL    O5011908   5.227   0.345   0.278 -0.0345 -0.0132 -0.6193
   50MOL    C5111909   5.295   0.274   0.174 -0.4610 -0.4016  0.3151
   50MOL    C5211910   5.238   0.325   0.044  0.1101  0.1549 -0.2215
   50MOL    C5311911   5.444   0.305   0.181 -0.0471  0.2474  0.0275
   50MOL    C5411912   5.519   0.196   0.259 -0.1454  0.0306  0.6771
   50MOL    O5511913   5.469   0.100   0.321 -0.4541 -0.6141 -0.0792
   50MOL    H5611914   5.283   0.166   0.167 -1.1511 -0.5551  3.0940
   50MOL    H5711915   5.293   0.406   7.976  1.5728  0.5592  2.0821
   50MOL    H5811916   5.138   0.366   0.055 -0.1683  0.3299 -3.0428
   50MOL    H5911917   5.215   0.246   7.952  1.1022  0.5576 -1.0001
   50MOL    H6011918   5.474   0.397   0.231  1.3549  0.2337 -0.7455
   50MOL    H6111919   5.487   0.296   0.081  1.1067  0.4359  0.5086
   50MOL    O6211920   5.651   0.223   0.259  0.4873  0.2728  0.4042
   50MOL    C6311921   5.739   0.142   0.329 -0.4235 -0.6194 -0.9254
   50MOL    C6411922   5.860   0.076   0.236  0.8826 -0.4141 -0.3396
   50MOL    C6511923   5.795   0.217   0.453  0.2991  0.4155 -0.1087
   50MOL    C6611924   5.852   0.126   0.560 -0.0929 -0.2061 -0.3660
   50MOL    O6711925   5.867   0.006   0.552 -0.0096 -0.0860  0.1623
   50MOL    H6811926   5.682   0.057   0.366  0.5474 -0.9566 -0.1757
   50MOL    H6911927   5.923   0.154   0.192 -0.0687  1.3331  1.3062
   50MOL    H7011928   5.801   0.023   0.162  0.4674  1.0440 -1.0729
   50MOL    H7111929   5.916   0.001   0.293 -0.3528 -1.6243 -0.7131
   50MOL    H7211930   5.716   0.279   0.496  0.7506  1.3468 -0.5999
   50MOL    H7311931   5.874   0.286   0.425  0.5224  1.3140  2.6003
   50MOL    O7411932   5.901   0.202   0.656 -0.5131 -0.0559 -0.3267
   50MOL    C7511933   5.966   0.159   0.772 -0.1661 -0.3173  0.6729
   50MOL    C7611934   5.868   0.067   0.862 -0.1984  0.0846 -0.1703
   50MOL    C7711935   6.103   0.082   0.735  0.0194 -0.0258 -0.8347
   50MOL    C7811936   6.195   0.062   0.859 -0.0508  1.1160  0.0437
   50MOL    O7911937   6.285   0.138   0.891 -0.0770 -0.2797  0.3907
   50MOL    H8011938   6.002   0.237   0.838  3.7077 -0.9774 -0.5109
   50MOL    H8111939   5.912   0.050   0.961  2.2057  1.0655 -1.0449
   50MOL    H8211940   5.863   7.946   0.821  1.7215  0.8366 -2.3464
   50MOL    H8311941   5.765   0.101   0.868  0.4899  1.8724  2.2145
   50MOL    H8411942   6.161   0.131   0.657  0.7980  1.3041  0.5562
   50MOL    H8511943   6.084   7.959   0.706  0.1335 -0.7369  1.5141
   50MOL    O8611944   6.154   7.940   0.925  0.1081 -0.2921 -0.0298
   50MOL    C8711945   6.208   7.896   1.055  0.4054  0.4324  0.0180
   50MOL    C8811946   6.093   7.844   1.143 -0.0281  0.1494  0.4279
   50MOL    C8911947   6.324   7.786   1.035 -0.4390  0.6906 -0.9649
   50MOL    C9011948   6.272   7.658   0.967 -0.2038  0.4416  0.4484
   50MOL    O9111949   6.245   7.656   0.843 -0.1304 -0.3347 -0.0392
   50MOL    H9211950   6.235   0.006   1.111  1.3418 -0.7078  1.4613
   50MOL    H9311951   6.025   7.929   1.155 -0.6899 -0.4866  1.3151
   50MOL    H9411952   6.130   7.822   1.243 -0.2120  0.5489  0.5881
   50MOL    H9511953   6.024   7.767   1.108  0.0565  0.1587  0.2445
   50MOL    H9611954   6.361   7.761   1.134 -0.0950  0.7858 -1.0679
   50MOL    H9711955   6.411   7.821   0.981 -0.3620  2.2992  0.1593
   50MOL    O9811956   6.246   7.550   1.054  0.4194 -0.3846  0.3198
   50MOL    C9911957   6.217   7.424   0.999 -0.4167 -0.1575  0.1969
   50MOL   C10011958   6.349   7.353   0.953  0.0996  0.3752  0.3067
   50MOL   C10111959   6.127   7.337   1.094  0.1893  0.2184  0.5708
   50MOL   C10211960   6.047   7.220   1.018  0.0120  0.1595 -0.4842
   50MOL   O10311961   5.928   7.221   0.994  0.3683 -0.0222  0.1944
   50MOL   H10411962   6.157   7.435   0.908  1.3681 -0.2717 -1.0099
   50MOL   H10511963   6.378   7.406   0.862 -2.9519  0.2075 -0.8305
   50MOL   H10611964   6.345   7.246   0.931  0.7486  0.5266 -0.5464
   50MOL   H10711965   6.428   7.369   1.027 -0.3153 -2.6077  1.4790
   50MOL   H10811966   6.057   7.400   1.148 -1.9530 -0.6953 -1.0990
   50MOL   H10911967   6.191   7.286   1.166 -2.6343 -3.5412  0.5737
   50MOL   O11011968   6.134   7.118   0.991  0.2925  0.2466  0.1876
   50MOL   C11111969   6.094   7.002   0.919  0.2821 -0.1212  0.2673
   50MOL   C11211970   6.151   7.015   0.775 -0.8765 -0.0923 -0.7010
   50MOL   C11311971   6.131   6.875   0.999  0.5507  0.1759 -0.1134
   50MOL   C11411972   6.026   6.858   1.113 -0.2838  0.2723  1.0031
   50MOL   O11511973   5.935   6.779   1.103  0.5849  0.1718  0.1419
   50MOL   H11611974   5.985   7.007   0.919  0.3582  2.0270  0.0265
   50MOL   H11711975   6.124   6.937   0.704 -0.9657 -0.2160 -0.5336
   50MOL   H11811976   6.258   7.024   0.792 -0.5010 -1.8282 -2.0135
   50MOL   H11911977   6.117   7.107   0.727  1.8639  0.5778 -1.3930
   50MOL   H12011978   6.233   6.884   1.036  0.0747  1.0049  1.0208
   50MOL   H12111979   6.122   6.787   0.935  1.1715  0.2352 -0.2790
   50MOL   O12211980   6.051   6.946   1.205  0.3323 -0.5269  0.2416
   50MOL   C12311981   5.995   6.944   1.338 -0.0426 -0.3760 -0.1336
   50MOL   C12411982   6.067   6.841   1.428 -0.5991 -0.1187  0.0753
   50MOL   C12511983   5.994   7.091   1.387 -0.0349  0.0647 -0.5610
   50MOL   C12611984   5.930   7.098   1.523  0.3776 -0.7794 -0.0449
   50MOL   O12711985   5.820   7.044   1.550  0.0829 -0.5945  0.2118
   50MOL   H12811986   5.889   6.918   1.333  0.0859 -1.6059  2.6418
   50MOL   H12911987   6.016   6.832   1.524 -0.7237 -1.7199 -0.1249
   50MOL   H13011988   6.167   6.881   1.447 -1.5919  2.3251  0.3481
   50MOL   H13111989   6.070   6.740   1.389  1.9326 -0.0835  0.0944
   50MOL   H13211990   5.938   7.154   1.318 -1.5766  0.5724  1.1024
   50MOL   H13311991   6.096   7.126   1.374 -0.5494  1.2475 -1.4059
   50MOL   O13411992   6.012   7.165   1.608 -0.4832 -0.8020  0.5593
   50MOL   C13511993   5.985   7.176   1.748  0.9609 -0.1522  0.3855
   50MOL   C13611994   6.091   7.101   1.814 -0.1261  0.5822 -0.6553
   50MOL   C13711995   5.996   7.328   1.796 -0.0569  0.2816  0.1208
   50MOL   C13811996   5.898   7.426   1.740 -0.1101 -0.0522 -0.5856
   50MOL   O13911997   5.898   7.540   1.776 -0.2208  0.3791  0.8751
   50MOL   H14011998   5.889   7.138   1.780  0.5007  0.9847  0.4007
   50MOL   H14111999   6.194   7.135   1.804  0.7809 -2.1758 -1.2419
   50MOL   H14212000   6.092   6.995   1.785  0.5611 -0.3109  2.4603
   50MOL   H14312001   6.080   7.097   1.922 -2.2443  0.9481 -0.8323
   50MOL   H14412002   6.091   7.369   1.760 -0.1234  0.5555  0.2550
   50MOL   H14512003   5.992   7.338   1.904  0.2743  1.9735  0.0003
   50MOL   O14612004   5.806   7.381   1.655 -0.0726  0.1783 -0.1167
   50MOL   C14712005   5.700   7.462   1.612  0.6556 -0.1373  0.3471
   50MOL   C14812006   5.683   7.454   1.462  0.3286  0.0935 -0.1201
   50MOL   C14912007   5.582   7.412   1.701 -0.5445 -0.1243  0.4348
   50MOL   C15012008   5.447   7.460   1.652 -0.2920  0.1625  0.1934
   50MOL   O15112009   5.428   7.568   1.603 -0.1077 -0.6015 -0.1002
   50MOL   H15212010   5.706   7.566   1.644 -0.4046 -0.7122  2.4832
   50MOL   H15312011   5.609   7.526   1.425  0.8936  0.2054 -1.0529
   50MOL   H15412012   5.657   7.354   1.426  1.8907 -0.1597 -0.5607
   50MOL   H15512013   5.777   7.486   1.416 -0.3681  0.8108 -1.0833
   50MOL   H15612014   5.611   7.444   1.801  2.5160 -2.0293  0.2501
   50MOL   H15712015   5.586   7.303   1.706 -1.1310 -0.2101 -0.7670
   50MOL   O15812016   5.354   7.369   1.666 -0.2002 -0.6076  0.1929
   50MOL   C15912017   5.209   7.402   1.651 -0.0617 -0.2593  0.4032
   50MOL   C16012018   5.183   7.390   1.499  0.8549  0.5463 -0.0241
   50MOL   C16112019   5.129   7.297   1.724  0.2712 -0.5987 -0.1728
   50MOL   C16212020   5.114   7.321   1.876 -0.2476  0.1848 -0.5157
   50MOL   O16312021   5.007   7.339   1.934  0.0724 -0.3054  0.9218
   50MOL   H16412022   5.182   7.499   1.692 -0.9893 -0.9715  1.5171
   50MOL   H16512023   5.246   7.461   1.444  2.8602  1.2965  3.0642
   50MOL   H16612024   5.079   7.417   1.481  0.1748 -0.8442  1.6665
   50MOL   H16712025   5.191   7.288   1.461 -0.8463 -0.2284  1.6344
   50MOL   H16812026   5.173   7.204   1.688  0.6917 -0.2725 -0.5019
   50MOL   H16912027   5.028   7.295   1.683  1.0688 -3.2138 -2.1684
   50MOL   O17012028   5.227   7.303   1.943  0.3319 -0.0636  0.0476
   50MOL   C17112029   5.245   7.299   2.084 -0.8795 -0.4818 -0.1073
   50MOL   C17212030   5.246   7.150   2.121 -0.1614 -0.2422 -0.0010
   50MOL   C17312031   5.374   7.372   2.122  0.2947  0.0500 -0.0356
   50MOL   C17412032   5.369   7.519   2.059 -0.8361  0.3131 -0.2749
   50MOL   O17512033   5.469   7.574   2.009  0.2405  0.5272 -0.3808
   50MOL   H17612034   5.167   7.345   2.143 -0.1956  0.4394  0.0868
   50MOL   H17712035   5.154   7.097   2.099 -0.8354  0.5813  0.7780
   50MOL   H17812036   5.270   7.139   2.227 -2.2385  1.7457  0.7028
   50MOL   H17912037   5.315   7.084   2.068 -0.8671  0.3779 -1.7082
   50MOL   H18012038   5.461   7.312   2.097  0.1921 -0.1927  0.1842
   50MOL   H18112039   5.383   7.394   2.229  0.2420 -1.2866  0.2521
   50MOL   O18212040   5.255   7.576   2.068  0.1165 -0.1287  0.3675
   50MOL   C18312041   5.234   7.713   2.022 -0.2080 -0.1489 -0.1215
   50MOL   C18412042   5.234   7.732   1.864 -0.3607 -0.2521  0.3127
   50MOL   C18512043   5.097   7.745   2.087  0.0538  0.5321 -0.2261
   50MOL   C18612044   5.082   7.900   2.082  0.1065  0.1095  0.2290
   50MOL   O18712045   4.973   7.949   2.057 -0.4131 -0.0527  0.0902
   50MOL   H18812046   5.319   7.771   2.058  2.2066 -3.8694  0.4421
   50MOL   H18912047   5.230   7.839   1.840  1.3036 -0.4632 -0.9898
   50MOL   H19012048   5.152   7.682   1.813 -0.3492  0.2641 -0.2238
   50MOL   H19112049   5.328   7.696   1.822 -0.1560  0.3828  0.2164
   50MOL   H19212050   5.099   7.691   2.181 -0.7346 -0.1284 -0.5814
   50MOL   H19312051   5.022   7.691   2.029  0.8623 -1.5506  0.6301
   50MOL   O19412052   5.194   7.972   2.101 -0.0758 -0.0788  0.2947
   50MOL   C19512053   5.183   0.136   2.108 -0.0169 -0.2873 -0.0507
   50MOL   C19612054   5.238   0.183   2.241  1.0155 -0.3562 -0.4812
   50MOL   C19712055   5.262   0.192   1.982  0.0775  0.1084 -0.1647
   50MOL   C19812056   5.251   0.347   1.970  0.2399  0.4091  0.6041
   50MOL   O19912057   5.224   0.420   2.060  0.1907  0.1968 -0.1295
   50MOL   H20012058   5.078   0.163   2.108  0.3531  1.1929 -0.0782
   50MOL   H20112059   5.347   0.185   2.247  1.0264  0.7960 -0.8171
   50MOL   H20212060   5.198   0.137   2.331  4.5450 -0.2499  1.2328
   50MOL   H20312061   5.210   0.288   2.254  0.3144 -0.6172  0.1269
   50MOL   H20412062   5.223   0.150   1.890 -1.2227  2.3123 -0.6590
   50MOL   H20512063   5.370   0.183   1.996 -0.0687 -0.4140  0.6747
   50MOL   O20612064   5.277   0.386   1.843  0.0161 -0.2467  0.0749
   50MOL   C20712065   5.284   0.521   1.812  0.7251 -0.2898 -0.0822
   50MOL   C20812066   5.433   0.580   1.805 -0.3767  0.1004  0.3778
   50MOL   C20912067   5.194   0.545   1.688 -0.2547  0.2639  0.2605
   50MOL   C21012068   5.048   0.511   1.714  0.9585 -0.2815 -0.1246
   50MOL   O21112069   4.972   0.605   1.713  0.0287 -0.0703  0.5253
   50MOL   H21212070   5.237   0.587   1.884 -0.8745 -0.7098 -0.7064
   50MOL   H21312071   5.478   0.577   1.905 -1.8290  0.3245  1.0484
   50MOL   H21412072   5.442   0.677   1.758  2.5221 -1.2445 -2.0371
   50MOL   H21512073   5.494   0.506   1.753 -0.1416 -0.4888  1.4570
   50MOL   H21612074   5.227   0.486   1.603  3.0583 -0.4411  1.9286
   50MOL   H21712075   5.208   0.651   1.665 -0.1847  0.4801  1.2431
   50MOL   O21812076   5.010   0.381   1.719 -0.6802 -0.4998  0.2247
   50MOL   C21912077   4.878   0.347   1.745 -0.5903 -0.1102  0.0798
   50MOL   C22012078   4.810   0.294   1.608  0.6686 -0.2869  0.2205
   50MOL   C22112079   4.871   0.236   1.853  0.4009  0.4114 -0.2735
   50MOL   C22212080   4.730   0.229   1.919  1.0108  0.4864 -0.4683
   50MOL   O22312081   4.675   0.121   1.928  0.3091 -0.2673  0.2376
   50MOL   H22412082   4.832   0.440   1.776 -1.2549 -0.2993 -0.3368
   50MOL   H22512083   4.846   0.201   1.564 -1.1065 -0.6201 -0.5766
   50MOL   H22612084   4.818   0.367   1.527 -0.5077 -0.3657  0.0170
   50MOL   H22712085   4.705   0.279   1.635  0.3801  0.0992 -0.6548
   50MOL   H22812086   4.950   0.263   1.923 -0.0857  0.2970  0.3210
   50MOL   H22912087   4.905   0.139   1.815 -0.6052 -0.7206  1.6330
   50MOL   O23012088   4.686   0.348   1.982  0.2850  0.3790  0.7494
   50MOL   C23112089   4.573   0.347   2.064  0.7372 -0.5452  0.8620
   50MOL   C23212090   4.624   0.399   2.195  0.3433 -0.5965  0.0835
   50MOL   C23312091   4.463   0.434   2.005  0.2693  0.3933  0.1870
   50MOL   C23412092   4.337   0.449   2.085 -0.2109 -0.6331 -0.6231
   50MOL   O23512093   4.312   0.357   2.166  0.1622 -0.0006  0.2988
   50MOL   H23612094   4.538   0.245   2.082 -1.4373  0.5174  2.9438
   50MOL   H23712095   4.671   0.494   2.169 -1.7207 -0.1097 -2.1068
   50MOL   H23812096   4.694   0.331   2.244 -0.9325  0.2586  3.2386
   50MOL   H23912097   4.547   0.438   2.262 -1.0747 -0.1277 -1.7650
   50MOL   H24012098   4.443   0.383   1.910 -0.1934 -1.3271  1.1890
   50MOL   H24112099   4.498   0.529   1.966 -0.5382  0.6052 -0.0340
   50MOL   H24212100   4.276   0.538   2.068 -1.6714 -1.2860  1.0079
   51MOL     O112101   6.498   6.190   3.353  0.1818 -0.3002 -0.0914
   51MOL     C212102   6.583   6.258   3.446 -0.2196  0.8410  0.2925
   51MOL     C312103   6.567   6.410   3.423 -0.0555  0.8219 -0.3778
   51MOL     C412104   6.546   6.202   3.587 -0.4948  0.3225  0.0936
   51MOL     C512105   6.632   6.263   3.700 -0.6240  0.0332  0.2046
   51MOL     O612106   6.579   6.288   3.808 -0.3796 -0.5966  0.5213
   51MOL     H712107   6.687   6.241   3.416 -0.0850  1.8475  0.1539
   51MOL     H812108   6.582   6.443   3.320 -0.2618  3.3862  0.3625
   51MOL     H912109   6.629   6.477   3.483  0.9818 -0.9210  0.5344
   51MOL    H1012110   6.463   6.440   3.440 -0.0382 -0.6133  2.3314
   51MOL    H1112111   6.557   6.094   3.596 -0.8465  0.1495 -1.3657
   51MOL    H1212112   6.438   6.213   3.604 -0.7487 -3.4683  1.4913
   51MOL    H1312113   6.540   6.170   3.271 -2.3928 -0.2555 -1.4517
   51MOL    O1412114   6.756   6.287   3.665 -0.0345 -0.0480 -0.1698
   51MOL    C1512115   6.831   6.373   3.746  0.0850  0.2517  0.4616
   51MOL    C1612116   6.921   6.292   3.842 -1.1593  0.7589  1.4308
   51MOL    C1712117   6.910   6.482   3.661  0.3236  0.2017 -0.3361
   51MOL    C1812118   7.002   6.425   3.553  0.7472 -1.0281  0.2928
   51MOL    O1912119   6.954   6.410   3.435 -0.6088 -0.2951 -0.3297
   51MOL    H2012120   6.768   6.438   3.808 -0.0310 -1.2235  1.9279
   51MOL    H2112121   6.984   6.361   3.897 -0.3561  2.3618 -1.3937
   51MOL    H2212122   6.982   6.223   3.783 -1.4085  0.8432  1.0701
   51MOL    H2312123   6.853   6.247   3.914 -0.8355 -2.5727 -0.2203
   51MOL    H2412124   6.962   6.550   3.729 -0.3500 -0.4425  0.8492
   51MOL    H2512125   6.827   6.536   3.615 -0.0872 -1.2382 -1.3042
   51MOL    O2612126   7.121   6.391   3.596 -0.4859  0.2489 -0.3792
   51MOL    C2712127   7.213   6.320   3.511 -0.1185  0.5353  1.0282
   51MOL    C2812128   7.293   6.432   3.442  0.6748 -0.2216 -0.1709
   51MOL    C2912129   7.297   6.236   3.606  0.2150  0.1392 -0.1040
   51MOL    C3012130   7.211   6.127   3.681 -0.7361  0.2869 -0.2959
   51MOL    O3112131   7.198   6.131   3.804  0.7919 -0.3075 -0.1544
   51MOL    H3212132   7.163   6.265   3.431  1.2345  2.0648 -0.9183
   51MOL    H3312133   7.218   6.493   3.390 -1.0465 -2.5554 -0.4935
   51MOL    H3412134   7.372   6.387   3.382  0.7042  1.1094 -1.1727
   51MOL    H3512135   7.348   6.494   3.513  2.3344  0.0405 -1.6505
   51MOL    H3612136   7.346   6.298   3.681  0.1118 -0.6282  0.6050
   51MOL    H3712137   7.382   6.186   3.560 -0.8113  0.5470 -2.5237
   51MOL    O3812138   7.145   6.045   3.597  0.0029 -0.1285  0.3879
   51MOL    C3912139   7.050   5.951   3.644 -0.5746 -0.2899  0.0639
   51MOL    C4012140   6.942   5.941   3.531 -0.1671  0.2791 -0.9553
   51MOL    C4112141   7.111   5.818   3.683 -0.4551 -0.4859  1.0698
   51MOL    C4212142   7.173   5.813   3.823 -0.4667  0.4790  0.6885
   51MOL    O4312143   7.103   5.821   3.923  0.0572 -0.1863  0.0156
   51MOL    H4412144   7.000   5.983   3.735  1.8343  1.4836  0.8307
   51MOL    H4512145   6.874   5.859   3.553 -1.2095  0.8730 -1.8810
   51MOL    H4612146   6.974   5.907   3.432 -2.1898 -1.0070 -1.1839
   51MOL    H4712147   6.873   6.025   3.537 -0.2764 -0.0207  3.8191
   51MOL    H4812148   7.191   5.799   3.611  0.6187  2.1108  1.5035
   51MOL    H4912149   7.041   5.737   3.663  0.8592 -1.0707 -1.3735
   51MOL    O5012150   7.305   5.793   3.819 -0.2041 -0.2352 -0.1872
   51MOL    C5112151   7.393   5.803   3.925 -0.2905 -0.0428 -0.4247
   51MOL    C5212152   7.427   5.652   3.954 -1.0085  0.0320  0.2580
   51MOL    C5312153   7.521   5.884   3.889 -0.1280 -0.2904  0.6118
   51MOL    C5412154   7.607   5.845   3.768 -0.5152  0.1466  0.7536
   51MOL    O5512155   7.611   5.923   3.672  0.2239 -0.4804  0.8348
   51MOL    H5612156   7.360   5.841   4.022  1.5899  0.8172 -0.1050
   51MOL    H5712157   7.454   5.591   3.868 -1.7840 -0.4749  0.3682
   51MOL    H5812158   7.336   5.604   3.989 -1.3959  1.1383  0.7900
   51MOL    H5912159   7.507   5.644   4.027  0.4655 -1.2579 -1.4484
   51MOL    H6012160   7.582   5.892   3.979 -0.2749  0.6947  0.6287
   51MOL    H6112161   7.494   5.988   3.870  1.7839  0.1230  0.0230
   51MOL    O6212162   7.671   5.731   3.774  0.1581  0.7133 -0.1306
   51MOL    C6312163   7.745   5.678   3.664 -0.4217  0.0737 -0.2822
   51MOL    C6412164   7.892   5.696   3.699  0.0970 -0.3852  0.5470
   51MOL    C6512165   7.719   5.529   3.642  0.3691 -0.3330  0.7570
   51MOL    C6612166   7.582   5.499   3.580  0.5103  0.0972  0.2684
   51MOL    O6712167   7.555   5.522   3.463 -0.1141  0.1766 -0.0631
   51MOL    H6812168   7.716   5.720   3.568 -2.7362 -1.0947 -0.1254
   51MOL    H6912169   7.897   5.657   3.801  1.7629 -2.6209 -0.3237
   51MOL    H7012170   7.923   5.799   3.714 -0.8609 -0.0422  0.1646
   51MOL    H7112171   7.961   5.643   3.633  0.5537  0.5849  0.2401
   51MOL    H7212172   7.732   5.460   3.725  3.4125 -0.3767  0.3043
   51MOL    H7312173   7.792   5.483   3.574 -1.1896 -0.4814 -0.8493
   51MOL    O7412174   7.502   5.426   3.666  0.1783 -0.1172  0.8674
   51MOL    C7512175   7.377   5.376   3.617 -0.0575  0.2996  0.3467
   51MOL    C7612176   7.381   5.229   3.645  0.0304 -0.0096 -0.5023
   51MOL    C7712177   7.267   5.459   3.674 -0.1539  0.1996  0.7474
   51MOL    C7812178   7.177   5.407   3.795  0.2834  0.0838 -0.0204
   51MOL    O7912179   7.205   5.312   3.868  0.2116  0.1943  0.0011
   51MOL    H8012180   7.371   5.385   3.509 -1.5966 -0.6045  0.3412
   51MOL    H8112181   7.408   5.213   3.750 -0.7919 -1.2800 -0.4784
   51MOL    H8212182   7.461   5.187   3.585  1.3092  2.0117 -0.2639
   51MOL    H8312183   7.283   5.184   3.631 -0.4957  0.9698 -0.0355
   51MOL    H8412184   7.191   5.449   3.597  1.2128 -0.0898 -0.6039
   51MOL    H8512185   7.288   5.566   3.682 -3.2359  0.8656  0.5557
   51MOL    O8612186   7.063   5.471   3.801  0.1613  0.8888  0.3242
   51MOL    C8712187   6.965   5.440   3.902  0.1449 -0.5849 -0.7800
   51MOL    C8812188   6.929   5.573   3.975 -0.1187  0.1330 -0.3367
   51MOL    C8912189   6.838   5.375   3.835  0.5424  0.3982  0.6795
   51MOL    C9012190   6.865   5.249   3.761  0.1692  0.6322  0.9760
   51MOL    O9112191   6.835   5.141   3.811  0.5840 -0.3454 -0.6033
   51MOL    H9212192   6.998   5.370   3.978 -1.4529 -1.2382 -0.6664
   51MOL    H9312193   7.007   5.610   4.042  0.0084  0.7163 -0.8061
   51MOL    H9412194   6.846   5.555   4.043  0.0294  0.5781 -0.0338
   51MOL    H9512195   6.905   5.648   3.900 -0.2857  0.3313 -0.0872
   51MOL    H9612196   6.788   5.436   3.760 -3.5353 -2.0902  1.2236
   51MOL    H9712197   6.763   5.354   3.911  0.7411  0.4775  0.8961
   51MOL    O9812198   6.915   5.271   3.636  0.2431  0.3583 -0.4091
   51MOL    C9912199   6.957   5.165   3.555 -0.7922 -0.1259 -0.2915
   51MOL   C10012200   6.838   5.113   3.477 -0.3463 -0.4846 -0.1729
   51MOL   C10112201   7.065   5.216   3.463  0.0250  0.1311 -0.4512
   51MOL   C10212202   7.140   5.096   3.394  0.0087  0.0177  0.4143
   51MOL   O10312203   7.099   4.981   3.395 -0.3289  0.3604 -0.3908
   51MOL   H10412204   7.001   5.093   3.625  0.4831  1.6034  0.7351
   51MOL   H10512205   6.773   5.057   3.545 -1.8413  1.3921 -0.0170
   51MOL   H10612206   6.869   5.054   3.391  0.6693 -0.5433  0.2303
   51MOL   H10712207   6.784   5.199   3.439 -0.7415 -0.7072 -0.1159
   51MOL   H10812208   7.140   5.279   3.511  1.7385 -2.6439  0.6717
   51MOL   H10912209   7.023   5.281   3.387  2.0693  2.2676  0.1729
   51MOL   O11012210   7.251   5.146   3.335  0.5182 -0.2764 -0.0392
   51MOL   C11112211   7.322   5.056   3.256 -0.3201 -0.6091  0.4132
   51MOL   C11212212   7.325   5.133   3.120  0.2200 -0.6432 -0.4289
   51MOL   C11312213   7.462   5.041   3.319  0.5888  0.3452  0.0540
   51MOL   C11412214   7.543   4.950   3.220 -1.1147 -0.4689 -0.0454
   51MOL   O11512215   7.494   4.864   3.153  1.5002 -0.0163 -0.7453
   51MOL   H11612216   7.277   4.958   3.239  0.0798 -0.4450 -1.6032
   51MOL   H11712217   7.225   5.155   3.082 -0.6378 -0.8236  1.6385
   51MOL   H11812218   7.378   5.074   3.045 -3.0968 -1.9199 -1.8631
   51MOL   H11912219   7.380   5.226   3.133  2.6677 -1.9680 -0.9471
   51MOL   H12012220   7.468   5.002   3.421  1.4200 -0.1684 -0.1844
   51MOL   H12112221   7.506   5.140   3.323 -0.3140  0.7781 -0.6037
   51MOL   O12212222   7.669   4.987   3.210  0.0118 -0.2083  0.3576
   51MOL   C12312223   7.767   4.931   3.121  0.4382 -0.4043  1.0321
   51MOL   C12412224   7.787   5.021   3.001 -0.3625 -0.0479 -0.1864
   51MOL   C12512225   7.893   4.899   3.207  1.0698 -0.3082 -0.1108
   51MOL   C12612226   7.907   4.756   3.262  0.4019 -0.0951 -0.3652
   51MOL   O12712227   7.867   4.668   3.193 -0.4075  0.2485  0.8370
   51MOL   H12812228   7.726   4.836   3.086  1.4204  0.4808 -2.7027
   51MOL   H12912229   7.818   5.118   3.041 -2.5465  0.7772 -0.4360
   51MOL   H13012230   7.691   5.034   2.952 -0.7074  1.7254  0.9031
   51MOL   H13112231   7.862   4.989   2.929  0.5445  0.8122  0.3658
   51MOL   H13212232   7.911   4.967   3.290 -1.4734  0.9118 -0.5126
   51MOL   H13312233   7.977   4.925   3.141  1.2546 -0.2567  0.1454
   51MOL   O13412234   7.947   4.749   3.394 -0.3103 -0.1535 -0.0815
   51MOL   C13512235   7.963   4.616   3.451  0.8863  0.3889 -0.4448
   51MOL   C13612236   0.132   4.586   3.463 -0.6507  0.5379 -0.1263
   51MOL   C13712237   7.885   4.630   3.589  0.3288 -0.4883  0.2244
   51MOL   C13812238   7.876   4.500   3.675 -0.8868 -0.4617  0.0235
   51MOL   O13912239   7.926   4.503   3.785  0.0086  0.0745  0.0337
   51MOL   H14012240   7.926   4.537   3.386  3.4312 -0.3853 -1.0084
   51MOL   H14112241   0.184   4.593   3.368  1.9286 -0.0897  1.1966
   51MOL   H14212242   0.158   4.489   3.505 -0.0421  0.4549 -0.6825
   51MOL   H14312243   0.166   4.669   3.525 -1.8780  0.1409  1.0952
   51MOL   H14412244   7.783   4.656   3.561 -0.2116 -0.4424  2.1273
   51MOL   H14512245   7.917   4.717   3.646 -3.2067  1.5344 -0.7676
   51MOL   O14612246   7.831   4.388   3.611  0.0405  0.3948  0.0764
   51MOL   C14712247   7.803   4.269   3.689  0.6478 -0.3673  0.0422
   51MOL   C14812248   7.657   4.234   3.689  0.5837 -0.3530 -0.5669
   51MOL   C14912249   7.889   4.161   3.633 -0.3849 -0.6958 -0.8941
   51MOL   C15012250   7.905   4.040   3.731 -0.5490  0.5166  0.5932
   51MOL   O15112251   7.860   3.930   3.705  0.1391 -0.3997  0.1345
   51MOL   H15212252   7.835   4.291   3.791 -1.1220  0.4524  0.4449
   51MOL   H15312253   7.633   4.150   3.755 -1.1013  1.6837  1.5311
   51MOL   H15412254   7.606   4.226   3.593 -2.3450  3.2640  0.5457
   51MOL   H15512255   7.604   4.315   3.740  1.9513  0.3496 -0.2276
   51MOL   H15612256   0.008   4.202   3.614 -1.1282  0.9537 -1.2531
   51MOL   H15712257   7.848   4.126   3.539  1.6835 -1.7393 -1.4361
   51MOL   O15812258   7.964   4.074   3.846 -0.2071 -0.2220 -0.0976
   51MOL   C15912259   0.020   3.967   3.942 -0.2353 -0.3799 -0.5492
   51MOL   C16012260   0.136   3.880   3.893 -0.7622  0.3744 -0.6298
   51MOL   C16112261   0.062   4.029   4.077  0.2266  0.0281  0.0271
   51MOL   C16212262   7.944   4.125   4.147  0.2048  0.6586 -0.1243
   51MOL   O16312263   7.890   4.087   4.249 -0.1896  0.2393  0.4931
   51MOL   H16412264   7.909   3.909   3.959 -1.7802  1.8079 -1.0074
   51MOL   H16512265   0.232   3.931   3.891  0.6762 -2.2045 -0.2288
   51MOL   H16612266   0.117   3.840   3.793  0.0755 -1.2814 -0.1410
   51MOL   H16712267   0.161   3.791   3.950  1.5728  1.1273 -0.4564
   51MOL   H16812268   0.150   4.092   4.068 -0.2503  1.0166  1.9490
   51MOL   H16912269   0.090   3.945   4.140  0.3564 -0.8815 -1.2319
   51MOL   O17012270   7.933   4.245   4.093 -0.0301  0.2165  0.0047
   51MOL   C17112271   7.850   4.349   4.155  0.0815 -0.1997  0.1411
   51MOL   C17212272   7.925   4.485   4.138  0.1281  1.0539  0.1902
   51MOL   C17312273   7.726   4.360   4.073  0.3932 -0.6170 -0.3246
   51MOL   C17412274   7.614   4.253   4.098  0.5087  0.0331  0.1460
   51MOL   O17512275   7.536   4.260   4.194 -0.5322 -0.1057 -0.3498
   51MOL   H17612276   7.841   4.319   4.260  1.6728 -0.8259  0.1211
   51MOL   H17712277   7.954   4.506   4.035 -0.3579 -0.8386 -0.3371
   51MOL   H17812278   0.041   4.491   4.191  1.3081  1.8226 -1.9453
   51MOL   H17912279   7.867   4.569   4.177 -1.3397  0.1004  0.0703
   51MOL   H18012280   7.759   4.370   3.970  1.1507  1.2173  0.0795
   51MOL   H18112281   7.674   4.453   4.098 -0.0647 -0.5133 -1.6576
   51MOL   O18212282   7.611   4.155   3.999  0.0901  0.0588 -0.5935
   51MOL   C18312283   7.508   4.053   4.004 -0.3750  0.5261  0.3333
   51MOL   C18412284   7.380   4.089   3.921  0.5390 -0.0116 -0.1990
   51MOL   C18512285   7.575   3.931   3.934  0.5675 -1.1746  0.3629
   51MOL   C18612286   7.488   3.803   3.955  0.4779  0.6058  0.0587
   51MOL   O18712287   7.425   3.783   4.059  0.2884  0.7084  0.4295
   51MOL   H18812288   7.474   4.040   4.106  1.3703  1.3577  1.0343
   51MOL   H18912289   7.334   3.996   3.888 -0.7472  0.0427  1.3732
   51MOL   H19012290   7.401   4.156   3.838 -0.7536 -1.2777 -1.5562
   51MOL   H19112291   7.304   4.142   3.978 -0.6012  0.8643 -2.4811
   51MOL   H19212292   7.676   3.917   3.974  0.4177 -0.0804  1.1489
   51MOL   H19312293   7.588   3.949   3.827 -0.0400 -0.2610  0.4439
   51MOL   O19412294   7.495   3.720   3.852  0.0252  0.3476  0.6380
   51MOL   C19512295   7.419   3.603   3.856 -0.1512  0.0931  1.1281
   51MOL   C19612296   7.384   3.557   3.705 -0.7379 -0.1548 -0.1254
   51MOL   C19712297   7.496   3.500   3.940  0.4572  0.2259  0.5785
   51MOL   C19812298   7.397   3.399   3.994 -0.4528  1.0406 -0.2011
   51MOL   O19912299   7.370   3.303   3.922 -0.4257  0.8550 -0.0761
   51MOL   H20012300   7.331   3.622   3.917 -0.1139  0.2016  1.1459
   51MOL   H20112301   7.472   3.530   3.648 -0.9804 -1.9050  0.2979
   51MOL   H20212302   7.322   3.627   3.649 -1.5589  0.2600  1.2721
   51MOL   H20312303   7.338   3.459   3.720  0.1737 -0.4216  1.0321
   51MOL   H20412304   7.540   3.547   4.027 -1.5492  1.5243  0.9120
   51MOL   H20512305   7.565   3.452   3.871 -0.0235  2.0547 -1.2174
   51MOL   O20612306   7.340   3.425   4.120 -0.6217 -0.4049 -0.2636
   51MOL   C20712307   7.228   3.357   4.178 -0.7879 -0.0826 -0.2556
   51MOL   C20812308   7.213   3.375   4.332 -0.4294 -0.1487 -0.4864
   51MOL   C20912309   7.103   3.378   4.099 -0.2056  0.5681 -0.1272
   51MOL   C21012310   7.030   3.510   4.130  0.4041 -0.1702  0.3035
   51MOL   O21112311   6.948   3.518   4.221  0.1897  0.0108 -0.0602
   51MOL   H21212312   7.252   3.251   4.168 -2.3880 -0.6026  1.2426
   51MOL   H21312313   7.311   3.359   4.376 -1.9022  2.0203  3.8348
   51MOL   H21412314   7.133   3.312   4.373 -1.5199  0.5494 -1.4884
   51MOL   H21512315   7.170   3.469   4.365  0.1524 -0.1404  0.2624
   51MOL   H21612316   7.042   3.291   4.122 -3.7613  1.9387 -3.7200
   51MOL   H21712317   7.116   3.387   3.991  0.5890  1.2694  0.0224
   51MOL   O21812318   7.068   3.619   4.046  0.9131 -0.1566 -0.3353
   51MOL   C21912319   7.033   3.758   4.062  0.9064  0.3064 -0.2375
   51MOL   C22012320   7.070   3.821   4.202 -0.7587  0.9255  0.0182
   51MOL   C22112321   7.103   3.835   3.946  0.3096 -0.0775 -0.0724
   51MOL   C22212322   7.015   3.817   3.821 -0.3461 -0.0669  0.2000
   51MOL   O22312323   6.974   3.914   3.753  0.1941  0.1485 -0.3743
   51MOL   H22412324   6.925   3.764   4.047  0.8977 -1.5151 -0.9511
   51MOL   H22512325   7.166   3.791   4.242 -2.1439 -0.7588  2.2101
   51MOL   H22612326   6.998   3.795   4.280  0.4852 -1.1442  0.5280
   51MOL   H22712327   7.065   3.930   4.203 -0.8289  0.9258  2.2738
   51MOL   H22812328   7.202   3.798   3.919  0.7954  1.6886 -0.7762
   51MOL   H22912329   7.115   3.942   3.962 -0.9802  0.1273 -0.4097
   51MOL   O23012330   6.996   3.693   3.797 -0.1080  0.3226 -0.2811
   51MOL   C23112331   6.932   3.650   3.676  0.3483  0.4618 -0.2301
   51MOL   C23212332   7.033   3.607   3.570 -0.0134  0.2545 -0.1119
   51MOL   C23312333   6.827   3.536   3.712  0.2807 -0.0298 -0.2574
   51MOL   C23412334   6.721   3.517   3.613 -0.8069  0.2605  0.1991
   51MOL   O23512335   6.647   3.611   3.594  0.3690  0.1619  0.4085
   51MOL   H23612336   6.876   3.730   3.627 -1.0354  0.5929  1.5304
   51MOL   H23712337   6.999   3.585   3.469  1.0493 -2.7543  0.1106
   51MOL   H23812338   7.082   3.517   3.608 -2.4039 -1.8425 -1.7866
   51MOL   H23912339   7.111   3.678   3.545  1.3289 -0.7445  1.1527
   51MOL   H24012340   6.773   3.571   3.800  1.0546 -0.6135  0.4587
   51MOL   H24112341   6.871   3.438   3.728 -1.9950 -1.0219  0.0089
   51MOL   H24212342   6.722   3.426   3.553  1.9083 -1.5216  2.8046
   52MOL     O112343   5.087   6.973   7.706 -0.1015 -0.8520 -0.0744
   52MOL     C212344   5.134   6.951   7.839  0.2868  0.0983  0.1817
   52MOL     C312345   5.005   6.923   7.926  0.0127 -0.0666 -0.5105
   52MOL     C412346   5.237   6.835   7.857 -0.0648  0.3809 -0.6199
   52MOL     C512347   5.376   6.847   7.788  0.4843 -0.0414  0.3968
   52MOL     O612348   5.411   6.777   7.695  0.7340 -0.0065  0.1367
   52MOL     H712349   5.183   7.048   7.848 -0.2400  0.2790  1.0570
   52MOL     H812350   5.042   6.890   0.043 -1.1274  0.2177  0.0282
   52MOL     H912351   4.944   6.850   7.873  0.4204 -0.2577 -0.7143
   52MOL    H1012352   4.937   7.006   7.946  0.3139  0.0323  0.1155
   52MOL    H1112353   5.204   6.744   7.806  0.4776 -0.0834 -0.1392
   52MOL    H1212354   5.242   6.805   7.961 -1.0347 -1.6359 -1.1370
   52MOL    H1312355   5.158   6.989   7.646 -0.3327 -0.5335 -0.2585
   52MOL    O1412356   5.446   6.955   7.842 -0.6256  1.0471  0.4958
   52MOL    C1512357   5.571   6.985   7.792  0.4284  0.1661  0.1593
   52MOL    C1612358   5.611   7.132   7.825 -0.1669  0.1428 -0.5421
   52MOL    C1712359   5.679   6.879   7.837  0.1502 -0.6604 -1.0390
   52MOL    C1812360   5.736   6.887   7.978  0.3016 -0.2547 -0.4229
   52MOL    O1912361   5.672   6.939   0.093  0.1154  0.5928 -0.0020
   52MOL    H2012362   5.552   6.982   7.684 -0.5947 -0.8141  0.3501
   52MOL    H2112363   5.598   7.164   7.929  0.8179 -0.9446 -0.0692
   52MOL    H2212364   5.561   7.212   7.771 -3.2518 -0.9735  0.5747
   52MOL    H2312365   5.715   7.135   7.793 -0.5023 -1.3652 -1.8437
   52MOL    H2412366   5.764   6.902   7.772  0.9363  2.0408  0.8472
   52MOL    H2512367   5.661   6.774   7.815  0.4657 -1.2355  1.3434
   52MOL    O2612368   5.853   6.822   0.008 -0.3980  0.0503 -0.5695
   52MOL    C2712369   5.911   6.787   0.136  0.4198  0.2741 -0.3140
   52MOL    C2812370   5.850   6.660   0.187  0.1740  0.1603 -0.0793
   52MOL    C2912371   6.065   6.779   0.144  1.1814 -0.3357 -0.4463
   52MOL    C3012372   6.121   6.920   0.142  0.0240  0.5150  0.2113
   52MOL    O3112373   6.146   6.970   0.033  0.4663  0.2445  0.1821
   52MOL    H3212374   5.877   6.860   0.210 -0.5149  0.3854 -0.8468
   52MOL    H3312375   5.743   6.651   0.165  0.0031  1.3742  0.1952
   52MOL    H3412376   5.862   6.659   0.295  0.2384  0.0623 -0.0879
   52MOL    H3512377   5.900   6.570   0.151 -0.1135 -0.1683  0.3399
   52MOL    H3612378   6.089   6.731   0.049  1.0014  0.3380 -0.8387
   52MOL    H3712379   6.093   6.714   0.226  1.8792 -1.0824 -1.2705
   52MOL    O3812380   6.143   6.976   0.260  0.2326 -0.2407 -0.2792
   52MOL    C3912381   6.198   7.102   0.272 -0.2711  0.2459  0.0813
   52MOL    C4012382   6.129   7.175   0.385  0.1464 -0.5093 -0.0912
   52MOL    C4112383   6.352   7.099   0.265  0.3812 -0.6142  0.3947
   52MOL    C4212384   6.417   7.036   0.387  0.5393 -0.0289 -0.3388
   52MOL    O4312385   6.415   6.912   0.410  0.1363  0.2397  0.3054
   52MOL    H4412386   6.169   7.170   0.192 -0.5057 -1.0865 -0.9959
   52MOL    H4512387   6.162   7.279   0.391 -0.1559 -0.3433 -1.2793
   52MOL    H4612388   6.143   7.129   0.483 -0.4952  0.9275  0.6958
   52MOL    H4712389   6.021   7.177   0.370  0.2760 -3.2504 -1.6807
   52MOL    H4812390   6.387   7.202   0.262 -0.7198 -0.2699 -1.6004
   52MOL    H4912391   6.391   7.046   0.178  1.2608  1.6650 -0.6519
   52MOL    O5012392   6.459   7.121   0.481 -0.4147  0.2787  0.4857
   52MOL    C5112393   6.536   7.076   0.592 -0.0834 -0.1900 -0.3630
   52MOL    C5212394   6.681   7.025   0.564  0.6232  0.1780  0.1470
   52MOL    C5312395   6.525   7.189   0.692 -0.5904 -0.3105 -0.9861
   52MOL    C5412396   6.587   7.155   0.828  0.0453  0.1924 -0.0259
   52MOL    O5512397   6.689   7.215   0.864  0.4848  0.6737 -0.6413
   52MOL    H5612398   6.469   7.001   0.634 -1.2635  0.5577 -0.8613
   52MOL    H5712399   6.687   6.945   0.490  0.0716  0.3619 -0.0957
   52MOL    H5812400   6.732   6.993   0.656  0.8306 -2.1063 -0.7280
   52MOL    H5912401   6.750   7.094   0.516  2.2119 -1.6088 -0.2383
   52MOL    H6012402   6.426   7.234   0.707  0.6525  1.9550  0.6128
   52MOL    H6112403   6.591   7.272   0.665 -1.7185  0.6152 -0.9633
   52MOL    O6212404   6.524   7.047   0.880 -0.6954  0.0639 -0.3350
   52MOL    C6312405   6.575   6.976   0.997  0.0858  0.7332  0.4468
   52MOL    C6412406   6.507   7.021   1.126  0.6654  0.0285  0.2262
   52MOL    C6512407   6.561   6.827   0.968 -0.1383 -0.1233  0.4368
   52MOL    C6612408   6.671   6.764   0.888  0.1577 -0.0978 -0.6200
   52MOL    O6712409   6.790   6.797   0.882 -0.3011 -0.3751 -0.7142
   52MOL    H6812410   6.682   6.995   0.996  0.1794  0.2381  0.7329
   52MOL    H6912411   6.564   6.999   1.216 -0.4222  2.8993  1.6981
   52MOL    H7012412   6.405   6.990   1.148  0.6217  0.9573  1.4132
   52MOL    H7112413   6.506   7.130   1.123 -0.6506  0.0118 -0.0102
   52MOL    H7212414   6.464   6.802   0.926  0.3469 -1.4897  0.1381
   52MOL    H7312415   6.555   6.776   1.064 -1.1995 -1.3456 -0.2690
   52MOL    O7412416   6.617   6.662   0.823  0.3800 -0.5227 -0.0265
   52MOL    C7512417   6.700   6.552   0.786 -0.7491 -0.2640  0.3155
   52MOL    C7612418   6.608   6.433   0.770 -0.9111  0.7705 -0.4470
   52MOL    C7712419   6.770   6.585   0.651 -0.3264 -0.4962 -0.2992
   52MOL    C7812420   6.879   6.491   0.607 -0.2044  0.1725 -0.9396
   52MOL    O7912421   6.954   6.439   0.695  0.0382  1.0281 -0.0876
   52MOL    H8012422   6.770   6.537   0.868 -1.4106 -1.6395  0.6515
   52MOL    H8112423   6.519   6.434   0.833  0.6062  0.1539  1.7942
   52MOL    H8212424   6.658   6.345   0.811  1.8033  1.9522 -1.1749
   52MOL    H8312425   6.580   6.419   0.666  0.1743  0.1751 -0.6711
   52MOL    H8412426   6.817   6.684   0.647 -1.9112  0.1941 -2.5483
   52MOL    H8512427   6.698   6.605   0.571 -1.3345  0.5243  0.8423
   52MOL    O8612428   6.879   6.456   0.470 -0.5945  0.2294  0.3260
   52MOL    C8712429   6.983   6.384   0.408 -0.1446 -0.3372 -0.8828
   52MOL    C8812430   6.916   6.277   0.323 -0.3302 -0.7413 -0.0543
   52MOL    C8912431   7.086   6.481   0.335 -0.1337 -0.5741  0.2283
   52MOL    C9012432   7.200   6.400   0.270  0.4633 -0.0231 -0.0462
   52MOL    O9112433   7.283   6.342   0.346 -0.3326  0.0122  0.2522
   52MOL    H9212434   7.042   6.325   0.478 -0.3681  1.9394  1.3014
   52MOL    H9312435   6.987   6.210   0.276 -0.5308 -0.1566 -1.1929
   52MOL    H9412436   6.851   6.321   0.247  0.9488  2.1459  0.4431
   52MOL    H9512437   6.847   6.216   0.383  0.1778 -1.0747  0.1951
   52MOL    H9612438   7.126   6.558   0.401  0.7922 -0.5754 -0.3334
   52MOL    H9712439   7.030   6.536   0.259  1.3632 -0.0797 -0.5274
   52MOL    O9812440   7.193   6.391   0.134  0.5724 -0.5737  0.0240
   52MOL    C9912441   7.280   6.310   0.056  0.4603 -0.4745  0.1236
   52MOL   C10012442   7.198   6.211   7.954  0.1848  0.3413  0.0993
   52MOL   C10112443   7.364   6.402   7.938 -0.4747  0.2320  0.2643
   52MOL   C10212444   7.500   6.344   7.906 -0.0404 -0.1466 -0.1167
   52MOL   O10312445   7.527   6.226   7.927  0.1066  0.2296 -0.1378
   52MOL   H10412446   7.345   6.249   0.119 -1.4344 -1.0364  1.6020
   52MOL   H10512447   7.139   6.270   7.884  1.0335 -0.7172 -1.5485
   52MOL   H10612448   7.135   6.143   0.031  1.1914 -0.2320  0.5535
   52MOL   H10712449   7.259   6.140   7.898 -0.6416 -1.1688  1.0962
   52MOL   H10812450   7.377   6.501   0.001  0.6996  0.8264 -1.4102
   52MOL   H10912451   7.323   6.413   7.837 -1.6402  0.1520  0.7179
   52MOL   O11012452   7.578   6.430   7.840  0.1171  0.0726 -0.0180
   52MOL   C11112453   7.692   6.387   7.771  0.4297 -1.2294 -0.9271
   52MOL   C11212454   7.716   6.484   7.650  0.1882 -0.3972  0.3503
   52MOL   C11312455   7.812   6.373   7.866  0.0179  0.2072 -0.0891
   52MOL   C11412456   7.927   6.276   7.815 -0.4262 -0.5215  0.3242
   52MOL   O11512457   7.969   6.187   7.884  0.0055 -0.6729 -0.1565
   52MOL   H11612458   7.679   6.289   7.728 -1.3211 -1.4574  0.0698
   52MOL   H11712459   7.720   6.588   7.682  0.5535 -0.3714  0.2183
   52MOL   H11812460   7.624   6.469   7.594 -2.4503 -1.6365  4.7428
   52MOL   H11912461   7.803   6.452   7.593  0.3742  1.1878 -0.2655
   52MOL   H12012462   7.789   6.338   7.966  1.0308 -0.4300 -0.0754
   52MOL   H12112463   7.849   6.475   7.874  0.9767 -0.3186  2.5067
   52MOL   O12212464   7.959   6.295   7.683 -0.0060 -0.1943  0.1291
   52MOL   C12312465   0.086   6.227   7.630  0.0056 -0.7060  0.1433
   52MOL   C12412466   0.073   6.203   7.485  0.5940 -0.1854 -0.2615
   52MOL   C12512467   0.221   6.303   7.664  0.2466  0.0060 -0.0048
   52MOL   C12612468   0.290   6.279   7.795  0.0099 -0.4513  0.0264
   52MOL   O12712469   0.336   6.172   7.822 -0.0462 -0.3339 -0.6615
   52MOL   H12812470   0.107   6.129   7.673 -0.3544 -0.8010  0.1083
   52MOL   H12912471   0.059   6.294   7.426 -0.6785  1.8449  3.0487
   52MOL   H13012472   7.965   6.151   7.448 -0.5343 -0.7723  3.0890
   52MOL   H13112473   0.161   6.153   7.444 -1.0365 -2.1638 -1.4629
   52MOL   H13212474   0.206   6.409   7.644  1.5891  0.2940  0.4919
   52MOL   H13312475   0.282   6.276   7.578 -1.3840  3.3109 -2.2971
   52MOL   O13412476   0.279   6.378   7.882  0.2065  0.5295  0.0809
   52MOL   C13512477   0.315   6.359   0.036 -0.1881  0.2637  0.2556
   52MOL   C13612478   0.428   6.455   0.070 -0.2363 -0.1577  0.1820
   52MOL   C13712479   0.189   6.388   0.118 -0.4062  0.3622  0.0580
   52MOL   C13812480   0.195   6.312   0.241 -0.0872 -0.4260  0.2433
   52MOL   O13912481   0.294   6.325   0.313 -0.0131  0.6424  0.3471
   52MOL   H14012482   0.354   6.260   0.060  0.4736  0.5101  0.2024
   52MOL   H14112483   0.524   6.421   0.030 -0.0111 -0.8819  1.2997
   52MOL   H14212484   0.440   6.478   0.176 -1.2371  1.0777  0.0369
   52MOL   H14312485   0.432   6.555   0.027 -1.2268 -0.6132 -0.9739
   52MOL   H14412486   0.097   6.366   0.064 -1.5144  1.4078  1.4661
   52MOL   H14512487   0.192   6.496   0.137  0.9928  0.8115 -2.4710
   52MOL   O14612488   0.084   6.240   0.266  0.1267  0.2908 -0.8399
   52MOL   C14712489   0.060   6.181   0.400  0.4523  0.5101 -0.1057
   52MOL   C14812490   7.888   6.170   0.416 -0.5137 -0.1560 -0.1832
   52MOL   C14912491   0.123   6.041   0.389  0.4012  0.1594  0.5188
   52MOL   C15012492   0.088   5.953   0.513 -0.4942 -0.1461 -1.3539
   52MOL   O15112493   0.013   5.853   0.502  0.3991  0.4346  0.2035
   52MOL   H15212494   0.107   6.243   0.476  0.0208  0.7801 -0.0543
   52MOL   H15312495   7.835   6.114   0.339  0.2639 -1.3420  0.1411
   52MOL   H15412496   7.840   6.267   0.432  1.1693  0.3470  2.0449
   52MOL   H15512497   7.858   6.119   0.508  0.4390 -1.2377 -0.4656
   52MOL   H15612498   0.229   6.065   0.377  0.6735 -1.9504 -1.5749
   52MOL   H15712499   0.089   5.994   0.297 -3.8086 -0.7817  2.4445
   52MOL   O15812500   0.143   5.991   0.633 -0.1119  0.5055  0.3407
   52MOL   C15912501   0.138   5.904   0.752 -0.2185 -0.9518 -0.0975
   52MOL   C16012502   0.277   5.932   0.832  0.4406  0.0422 -0.7027
   52MOL   C16112503   0.008   5.920   0.833  0.4866  0.4051  0.1206
   52MOL   C16212504   7.978   6.042   0.918 -0.4722  0.3710  1.3795
   52MOL   O16312505   0.039   6.044   1.031 -0.5781 -0.1775  0.0706
   52MOL   H16412506   0.135   5.805   0.707 -1.1946 -0.0616 -2.0171
   52MOL   H16512507   0.296   6.036   0.858 -0.2412 -0.3412  1.4048
   52MOL   H16612508   0.361   5.889   0.778  0.1570 -2.0429  0.4375
   52MOL   H16712509   0.273   5.880   0.928  0.1683  0.5054 -0.4625
   52MOL   H16812510   7.966   5.830   0.891 -1.6248  0.1808 -0.9829
   52MOL   H16912511   7.908   5.921   0.759 -1.7947 -4.2424  2.2954
   52MOL   O17012512   7.931   6.147   0.849 -0.0163  0.0835  0.3687
   52MOL   C17112513   7.918   6.274   0.913 -1.1118  0.1437  0.5490
   52MOL   C17212514   7.943   6.357   0.785 -0.4448  0.2731  0.7801
   52MOL   C17312515   7.792   6.311   0.983  0.0091 -0.1893  0.9857
   52MOL   C17412516   7.772   6.253   1.122  0.0294 -0.3499  0.3377
   52MOL   O17512517   7.792   6.321   1.221 -0.1747  0.1944  0.0262
   52MOL   H17612518   0.020   6.279   0.984 -0.2384 -0.5488 -0.3984
   52MOL   H17712519   7.856   6.347   0.720  1.8732  2.5271 -2.8819
   52MOL   H17812520   0.051   6.328   0.727  0.0578  2.6935  0.2876
   52MOL   H17912521   7.957   6.464   0.801 -0.1105  0.4636 -0.6942
   52MOL   H18012522   7.697   6.288   0.934 -0.2618  3.2079 -0.2117
   52MOL   H18112523   7.796   6.419   0.998 -4.4569  0.3794 -0.9746
   52MOL   O18212524   7.738   6.116   1.123  0.1597  0.0910 -0.2663
   52MOL   C18312525   7.672   6.056   1.234 -0.9629 -0.0779  0.7688
   52MOL   C18412526   7.559   5.966   1.181 -0.0939  0.1671 -0.6312
   52MOL   C18512527   7.778   5.980   1.322  0.1115  0.4059 -0.3469
   52MOL   C18612528   7.716   5.881   1.427 -0.0142  0.0170  0.0827
   52MOL   O18712529   7.662   5.922   1.529 -0.0081  0.6114 -0.1808
   52MOL   H18812530   7.628   6.129   1.302 -2.5455 -0.7600  0.4989
   52MOL   H18912531   7.506   5.906   1.255  2.1012  1.1714  1.8721
   52MOL   H19012532   7.610   5.900   1.112 -2.4792 -0.3621 -1.9245
   52MOL   H19112533   7.491   6.033   1.130 -0.0440  0.3123 -0.5108
   52MOL   H19212534   7.841   6.047   1.381  2.0224 -1.4405 -0.2337
   52MOL   H19312535   7.852   5.921   1.267 -0.8735 -2.1883  1.0415
   52MOL   O19412536   7.730   5.754   1.385  0.1116  0.4098 -0.1175
   52MOL   C19512537   7.667   5.648   1.464 -0.5611  0.4402  0.1535
   52MOL   C19612538   7.530   5.620   1.414  0.1294 -0.4891 -0.2432
   52MOL   C19712539   7.757   5.526   1.447  0.1111  0.6861  0.0427
   52MOL   C19812540   7.900   5.529   1.517 -0.5624 -0.2277 -0.5995
   52MOL   O19912541   7.930   5.605   1.609  0.4061 -0.4221 -0.2421
   52MOL   H20012542   7.662   5.682   1.567  1.5195 -1.0543  0.7831
   52MOL   H20112543   7.489   5.542   1.478  0.6518 -0.7652 -0.2406
   52MOL   H20212544   7.530   5.593   1.308 -0.3687  0.9322 -0.6209
   52MOL   H20312545   7.462   5.704   1.429 -0.3942 -0.5322 -2.2279
   52MOL   H20412546   7.784   5.503   1.344  1.4253  0.2285  0.4894
   52MOL   H20512547   7.707   5.435   1.480 -0.7273  0.9428 -0.4934
   52MOL   O20612548   0.002   5.423   1.475  0.1395 -0.3322  0.4940
   52MOL   C20712549   0.124   5.401   1.538 -0.1141 -0.2995  0.3248
   52MOL   C20812550   0.114   5.268   1.615 -0.2173 -0.6476 -0.6316
   52MOL   C20912551   0.246   5.405   1.433 -0.1474 -0.2161 -0.5682
   52MOL   C21012552   0.292   5.550   1.410 -0.3940  0.0332 -0.4454
   52MOL   O21112553   0.416   5.567   1.403  0.1912  0.4478  0.4346
   52MOL   H21212554   0.141   5.479   1.612  1.8547  0.1595 -0.5587
   52MOL   H21312555   0.022   5.253   1.672 -0.0223  1.1470  0.1867
   52MOL   H21412556   0.199   5.262   1.682 -0.3173 -2.3474 -0.6251
   52MOL   H21512557   0.137   5.185   1.548 -1.3867  0.0655 -1.9367
   52MOL   H21612558   0.217   5.358   1.339 -0.5117  0.2445 -0.6870
   52MOL   H21712559   0.326   5.350   1.484  1.0460  0.3839 -1.7609
   52MOL   O21812560   0.199   5.644   1.387 -0.1339  0.0019 -0.5140
   52MOL   C21912561   0.233   5.770   1.338  0.1330  0.2708  0.3834
   52MOL   C22012562   0.242   5.771   1.185 -0.2802 -0.4283 -0.5407
   52MOL   C22112563   0.130   5.877   1.391 -0.2276  0.7950 -0.1585
   52MOL   C22212564   0.131   5.897   1.539  0.0033 -0.0816 -0.5053
   52MOL   O22312565   0.232   5.883   1.603  0.2566  0.4400  0.1657
   52MOL   H22412566   0.332   5.796   1.375  1.2870 -3.1588 -0.2027
   52MOL   H22512567   0.288   5.680   1.146  0.3893  0.8130 -2.7417
   52MOL   H22612568   0.291   5.860   1.145 -0.3571  0.9328  2.3014
   52MOL   H22712569   0.147   5.769   1.131 -0.6752  3.0491 -0.0656
   52MOL   H22812570   0.030   5.854   1.355 -0.9862  0.4214  2.1133
   52MOL   H22912571   0.152   5.967   1.333  2.4803 -0.8928 -1.8518
   52MOL   O23012572   0.017   5.932   1.580  0.3636 -0.1075  0.2979
   52MOL   C23112573   7.977   5.980   1.712 -0.1595  0.6261 -0.2042
   52MOL   C23212574   7.888   6.103   1.694  0.1139 -0.1881 -0.0705
   52MOL   C23312575   7.921   5.862   1.785 -0.8696  0.5388  0.2242
   52MOL   C23412576   7.931   5.860   1.940 -0.3525  0.7329 -0.2961
   52MOL   O23512577   7.892   5.955   2.009 -0.3960  0.0052 -0.2885
   52MOL   H23612578   0.083   6.018   1.768 -0.3809  2.4596 -1.0744
   52MOL   H23712579   7.784   6.091   1.665 -0.4700  0.0303  1.8757
   52MOL   H23812580   7.930   6.172   1.621  1.0407 -1.9359 -1.2179
   52MOL   H23912581   7.891   6.160   1.787  1.9376  1.1026 -0.8849
   52MOL   H24012582   7.980   5.773   1.763 -2.1052 -0.3242  0.3308
   52MOL   H24112583   7.815   5.840   1.768 -0.7061  0.1819 -0.3324
   52MOL   H24212584   7.962   5.761   1.973 -0.5579  0.9421  0.5306
   53MOL     O112585   0.794   3.581   1.727  0.1352 -0.4593  0.5574
   53MOL     C212586   0.745   3.453   1.679  0.1258 -0.1598 -0.5281
   53MOL     C312587   0.754   3.461   1.526  0.4715 -0.0817  0.4291
   53MOL     C412588   0.827   3.347   1.746 -0.4472 -0.1786 -0.0526
   53MOL     C512589   0.765   3.209   1.753  0.2706 -0.2615 -0.2399
   53MOL     O612590   0.645   3.187   1.724 -0.5393 -0.0232 -0.5169
   53MOL     H712591   0.638   3.446   1.702  0.5913 -0.7841  1.5621
   53MOL     H812592   0.838   3.522   1.494  0.1244 -0.5946 -1.5155
   53MOL     H912593   0.663   3.498   1.478  0.2442 -1.4113 -0.1825
   53MOL    H1012594   0.766   3.365   1.477  0.3150  0.8693 -1.5187
   53MOL    H1112595   0.840   3.364   1.853 -2.0549 -2.0516  0.4770
   53MOL    H1212596   0.925   3.337   1.700  0.1272 -0.9570  1.2816
   53MOL    H1312597   0.725   3.645   1.725  1.4754  0.9935 -0.3442
   53MOL    O1412598   0.851   3.114   1.791 -0.2779  0.5101  0.7392
   53MOL    C1512599   0.799   2.988   1.825 -0.0716 -0.0736 -0.1786
   53MOL    C1612600   0.790   2.902   1.697 -1.0372 -0.1645 -0.4009
   53MOL    C1712601   0.871   2.926   1.947 -0.2552 -0.8389 -0.5551
   53MOL    C1812602   0.874   3.011   2.074 -0.2500 -0.0962  0.3753
   53MOL    O1912603   0.979   3.049   2.123  0.7396 -0.7568 -0.0163
   53MOL    H2012604   0.698   3.009   1.860  0.2876  0.1087  0.7643
   53MOL    H2112605   0.754   2.807   1.737  0.9516 -0.0154  1.8776
   53MOL    H2212606   0.886   2.910   1.647  0.5046 -0.5930  2.3795
   53MOL    H2312607   0.714   2.928   1.623  1.6840  2.1281 -2.5008
   53MOL    H2412608   0.977   2.910   1.929  0.4767  0.8668  1.9308
   53MOL    H2512609   0.828   2.831   1.980 -1.5036 -0.2535 -0.5035
   53MOL    O2612610   0.757   3.037   2.131 -0.0621  0.2235  0.3086
   53MOL    C2712611   0.756   3.122   2.242  0.1742 -0.6445 -0.6622
   53MOL    C2812612   0.736   3.267   2.187 -1.0818 -0.9452 -0.2973
   53MOL    C2912613   0.652   3.074   2.345  0.2797 -0.4472 -0.0289
   53MOL    C3012614   0.689   3.136   2.482 -0.1852  0.0279 -0.4382
   53MOL    O3112615   0.612   3.209   2.542  0.8086  0.4268  0.6064
   53MOL    H3212616   0.852   3.128   2.295 -0.1037 -1.4172 -0.0611
   53MOL    H3312617   0.782   3.346   2.246 -0.6576  0.7775 -2.8794
   53MOL    H3412618   0.633   3.300   2.171 -0.6138  0.7968  0.1639
   53MOL    H3512619   0.780   3.283   2.089  1.1870  0.8258  0.9490
   53MOL    H3612620   0.647   2.966   2.357  0.6676 -0.6276 -1.3890
   53MOL    H3712621   0.551   3.099   2.314  0.1640 -2.0758 -1.0335
   53MOL    O3812622   0.809   3.098   2.517  0.6876  0.1215 -0.2584
   53MOL    C3912623   0.868   3.159   2.634  0.3945  0.2936 -0.0340
   53MOL    C4012624   0.986   3.078   2.662  0.1873 -0.4400  0.1871
   53MOL    C4112625   0.911   3.311   2.613 -0.1277 -0.0517  0.2601
   53MOL    C4212626   0.956   3.373   2.746 -0.4010  0.3649 -0.4145
   53MOL    O4312627   0.884   3.380   2.843  0.4988  0.1155  0.1782
   53MOL    H4412628   0.802   3.159   2.720  1.0945 -1.5852  0.5266
   53MOL    H4512629   1.034   3.090   2.759 -0.1685  1.8874  0.1201
   53MOL    H4612630   1.070   3.087   2.593  0.2831  1.6817  0.5197
   53MOL    H4712631   0.953   2.975   2.672 -0.9494  0.0574  1.8585
   53MOL    H4812632   0.838   3.380   2.569  0.4576 -0.0893 -0.7734
   53MOL    H4912633   1.005   3.320   2.559 -1.8553  0.6066 -2.7969
   53MOL    O5012634   1.088   3.391   2.753  0.1759  0.2087  0.2432
   53MOL    C5112635   1.165   3.410   2.874 -0.3871 -0.4289 -0.5398
   53MOL    C5212636   1.220   3.275   2.926 -0.1067  0.2888 -0.2769
   53MOL    C5312637   1.275   3.506   2.843  0.0061 -0.0839 -0.0908
   53MOL    C5412638   1.319   3.591   2.967  0.1242 -0.0545 -0.0575
   53MOL    O5512639   1.365   3.541   3.071 -0.5597  0.2468  0.0289
   53MOL    H5612640   1.096   3.438   2.954 -1.3201 -2.5274 -0.5830
   53MOL    H5712641   1.293   3.294   3.005  1.0568  0.1821 -1.3083
   53MOL    H5812642   1.274   3.221   2.849  1.7623  0.1113  1.1068
   53MOL    H5912643   1.146   3.203   2.961 -0.0280 -0.2879 -1.2825
   53MOL    H6012644   1.247   3.590   2.778  2.2664  0.2284 -0.6969
   53MOL    H6112645   1.355   3.473   2.777  0.0301  0.4198 -0.3166
   53MOL    O6212646   1.296   3.720   2.947 -0.4581 -0.5440 -0.5837
   53MOL    C6312647   1.308   3.807   3.061 -0.4008  0.1603  0.0169
   53MOL    C6412648   1.315   3.959   3.018 -0.6539  0.1350  0.0360
   53MOL    C6512649   1.194   3.788   3.162  1.1689  0.3761 -0.5090
   53MOL    C6612650   1.224   3.856   3.302 -0.3343  0.6781 -0.4998
   53MOL    O6712651   1.141   3.922   3.357 -0.2878  0.2694 -0.2804
   53MOL    H6812652   1.405   3.790   3.108  0.4057  3.0829 -0.4938
   53MOL    H6912653   1.232   3.986   2.953 -1.5585  0.6125  1.3772
   53MOL    H7012654   1.409   3.985   2.969  0.1702 -1.5687  0.6707
   53MOL    H7112655   1.296   4.029   3.099  2.5881  0.0103  0.9728
   53MOL    H7212656   1.187   3.684   3.194  2.0855  0.2935 -0.5531
   53MOL    H7312657   1.099   3.826   3.123 -1.2025 -0.5870  3.9741
   53MOL    O7412658   1.347   3.824   3.346  0.3414 -0.5191 -0.2297
   53MOL    C7512659   1.397   3.882   3.462  0.7013  0.2153  0.1114
   53MOL    C7612660   1.529   3.812   3.493  0.4510  0.2595  0.2572
   53MOL    C7712661   1.415   4.035   3.450  0.1348  0.0974 -0.1215
   53MOL    C7812662   1.504   4.101   3.347  0.0847  0.6434  0.2395
   53MOL    O7912663   1.512   4.054   3.237  0.3029 -0.2702  0.0930
   53MOL    H8012664   1.323   3.870   3.541 -0.4553  1.4891 -0.7597
   53MOL    H8112665   1.604   3.826   3.415  0.9136  1.3677  0.8865
   53MOL    H8212666   1.515   3.705   3.505 -0.5924  0.4464  0.7415
   53MOL    H8312667   1.581   3.848   3.582  0.0994 -0.7057  0.8519
   53MOL    H8412668   1.449   4.070   3.548  2.9036 -2.0078 -0.2719
   53MOL    H8512669   1.316   4.080   3.444  0.2576  0.4511  0.4096
   53MOL    O8612670   1.575   4.211   3.390 -0.5763 -0.0081  0.2598
   53MOL    C8712671   1.662   4.278   3.296  0.3233 -0.2803  0.3030
   53MOL    C8812672   1.701   4.426   3.336 -0.3981 -0.4370  0.4486
   53MOL    C8912673   1.798   4.198   3.282 -0.0777 -0.1319  0.3838
   53MOL    C9012674   1.879   4.204   3.412 -0.1743 -0.9616 -0.1688
   53MOL    O9112675   1.973   4.289   3.431 -0.1138 -0.3771 -0.3050
   53MOL    H9212676   1.612   4.288   3.199 -1.2917  1.1104  1.2477
   53MOL    H9312677   1.618   4.495   3.320  0.4778  0.5662  0.1873
   53MOL    H9412678   1.782   4.456   3.269 -0.5774 -0.1776  0.3496
   53MOL    H9512679   1.743   4.439   3.435 -0.1895  2.3527  0.0180
   53MOL    H9612680   1.870   4.226   3.205 -0.6136 -1.2508 -0.5422
   53MOL    H9712681   1.777   4.094   3.256 -1.1047  0.1520  0.0544
   53MOL    O9812682   1.828   4.130   3.509 -0.1899  0.2288 -0.4544
   53MOL    C9912683   1.862   4.159   3.643  0.2997  0.5718  1.0843
   53MOL   C10012684   1.739   4.118   3.728 -0.2815 -0.1264 -0.0661
   53MOL   C10112685   1.979   4.078   3.689  0.4084  0.7270 -0.3693
   53MOL   C10212686   2.116   4.125   3.640 -0.1401  0.4157 -0.8888
   53MOL   O10312687   2.181   4.071   3.548  0.1485  0.4517  0.7970
   53MOL   H10412688   1.881   4.263   3.671 -1.2549  1.3659 -0.7365
   53MOL   H10512689   1.714   4.011   3.723  0.5953 -0.3179 -0.3740
   53MOL   H10612690   1.651   4.172   3.692  0.4057  0.2850 -1.1439
   53MOL   H10712691   1.749   4.147   3.832 -1.7050  0.3238 -0.0453
   53MOL   H10812692   1.957   3.974   3.663 -0.6147  0.6307  0.8191
   53MOL   H10912693   1.993   4.075   3.797 -0.4455  0.7492 -0.2536
   53MOL   O11012694   2.155   4.233   3.706 -0.2160 -0.0221 -0.1110
   53MOL   C11112695   2.287   4.280   3.694 -0.4138  0.0977 -0.6152
   53MOL   C11212696   2.267   4.430   3.670 -0.4944  0.0526 -0.4842
   53MOL   C11312697   2.381   4.272   3.817  0.0342  0.5609  0.2031
   53MOL   C11412698   2.439   4.133   3.839 -0.0303  0.3397 -0.1073
   53MOL   O11512699   2.556   4.102   3.816  0.2903 -0.2569  0.4707
   53MOL   H11612700   2.345   4.234   3.615  0.2463  0.4634 -0.3471
   53MOL   H11712701   2.363   4.478   3.655 -1.0695  1.8705  1.4489
   53MOL   H11812702   2.228   4.485   3.756 -0.3169  0.2846 -0.5515
   53MOL   H11912703   2.203   4.428   3.581  1.5945  0.6113 -2.0390
   53MOL   H12012704   2.327   4.287   3.910  2.6487 -1.7973  2.1927
   53MOL   H12112705   2.454   4.353   3.811  1.2634 -0.6315 -1.6811
   53MOL   O12212706   2.339   4.048   3.885 -0.1422  0.0824 -0.2119
   53MOL   C12312707   2.351   3.906   3.885  0.1757 -0.7565  0.7121
   53MOL   C12412708   2.361   3.869   4.032 -0.0501 -0.8537 -0.3549
   53MOL   C12512709   2.222   3.861   3.823  1.2853  0.5354  0.2245
   53MOL   C12612710   2.183   3.710   3.838  0.0112  0.3173  0.7065
   53MOL   O12712711   2.066   3.678   3.839  0.0485 -0.5256  0.1715
   53MOL   H12812712   2.444   3.871   3.840  0.5920 -0.2237  1.1533
   53MOL   H12912713   2.444   3.922   4.079 -2.1688  2.1065  0.1927
   53MOL   H13012714   2.381   3.763   4.048 -0.5217 -0.5404  2.6277
   53MOL   H13112715   2.277   3.893   4.098  1.8963  1.0285  1.5118
   53MOL   H13212716   2.234   3.880   3.716  0.1237 -0.2517 -0.0580
   53MOL   H13312717   2.143   3.925   3.863  1.9000  1.7879 -0.5253
   53MOL   O13412718   2.294   3.625   3.850  0.5923  0.0434 -0.1680
   53MOL   C13512719   2.271   3.487   3.882  0.2360 -0.3492  0.9145
   53MOL   C13612720   2.324   3.406   3.762  0.0416 -0.4340  0.3476
   53MOL   C13712721   2.328   3.464   4.029  0.6596 -0.7037  0.2625
   53MOL   C13812722   2.477   3.457   4.029 -0.0038  0.4858  0.1213
   53MOL   O13912723   2.548   3.553   4.035 -0.0250  0.1656  0.2027
   53MOL   H14012724   2.164   3.473   3.892 -0.2425  0.2030 -2.6769
   53MOL   H14112725   2.362   3.307   3.787 -0.7767 -1.1148 -1.0227
   53MOL   H14212726   2.399   3.469   3.714 -0.3281 -0.6814 -0.5613
   53MOL   H14312727   2.239   3.387   3.695 -0.5378  1.0759  0.6295
   53MOL   H14412728   2.278   3.375   4.068 -0.5929 -1.5226 -2.9996
   53MOL   H14512729   2.295   3.535   4.106  2.6367 -2.3080  2.6554
   53MOL   O14612730   2.518   3.334   4.034  0.0642  0.6536 -0.2656
   53MOL   C14712731   2.655   3.299   4.038 -0.8041  0.5286  0.4824
   53MOL   C14812732   2.696   3.271   4.182  0.5805  0.4817  1.4045
   53MOL   C14912733   2.670   3.171   3.964 -0.4019 -0.2202 -0.8600
   53MOL   C15012734   2.688   3.185   3.810 -0.3882 -0.2797 -0.1415
   53MOL   O15112735   2.653   3.290   3.751 -0.4425 -0.1836 -0.2849
   53MOL   H15212736   2.715   3.380   3.995 -0.1453 -0.7124 -0.9736
   53MOL   H15312737   2.638   3.186   4.217  1.2213 -0.8090 -0.5471
   53MOL   H15412738   2.680   3.357   4.248 -0.4155  3.6438 -2.7492
   53MOL   H15512739   2.801   3.240   4.190  0.9525  0.4848 -2.4309
   53MOL   H15612740   2.581   3.110   3.981 -1.5156  0.2248 -4.6939
   53MOL   H15712741   2.765   3.135   4.003 -1.1347  0.2081  1.4569
   53MOL   O15812742   2.751   3.086   3.758  0.1582  0.4583 -0.1761
   53MOL   C15912743   2.783   3.076   3.626 -0.7100  0.1925 -0.7708
   53MOL   C16012744   2.933   3.036   3.625  0.1604 -1.0621 -0.2711
   53MOL   C16112745   2.702   2.967   3.552 -0.2793  0.4432  0.1335
   53MOL   C16212746   2.582   3.021   3.471 -0.4672 -0.8643  0.2001
   53MOL   O16312747   2.471   2.969   3.456 -0.4095  0.5507 -0.0484
   53MOL   H16412748   2.778   3.165   3.563 -3.6431  1.4089  1.1062
   53MOL   H16512749   2.969   2.955   3.688 -0.6152 -2.5514 -1.7364
   53MOL   H16612750   2.993   3.126   3.641 -0.2019 -0.8772  0.0568
   53MOL   H16712751   2.956   3.008   3.522 -0.9697  1.0993 -1.1443
   53MOL   H16812752   2.671   2.885   3.618 -2.6652 -0.5891 -2.1833
   53MOL   H16912753   2.765   2.917   3.479 -0.5046 -1.9151  1.5030
   53MOL   O17012754   2.613   3.139   3.412  0.1970  0.7939 -0.2458
   53MOL   C17112755   2.528   3.207   3.320  0.5022 -0.8739  0.4589
   53MOL   C17212756   2.450   3.311   3.405 -0.0936  0.8954 -0.2188
   53MOL   C17312757   2.617   3.280   3.222  0.5044 -0.4092  0.0605
   53MOL   C17412758   2.550   3.372   3.122 -0.8180 -0.2894 -0.5976
   53MOL   O17512759   2.592   3.483   3.111  0.2052  0.1670 -0.3171
   53MOL   H17612760   2.453   3.146   3.270  0.2548  0.9943 -1.5657
   53MOL   H17712761   2.387   3.251   3.472  0.1274  2.3885  1.3611
   53MOL   H17812762   2.390   3.379   3.344 -0.4865  0.4365 -0.3501
   53MOL   H17912763   2.513   3.366   3.475  2.0353 -0.2253 -1.2314
   53MOL   H18012764   2.652   3.200   3.156  0.8971  0.8099 -1.2418
   53MOL   H18112765   2.698   3.340   3.262  0.9996 -1.5741  0.8083
   53MOL   O18212766   2.445   3.316   3.060  0.1663  0.1110 -0.4524
   53MOL   C18312767   2.384   3.390   2.956 -0.1359 -0.1002  0.1076
   53MOL   C18412768   2.444   3.340   2.820  0.6063 -0.0225 -0.2512
   53MOL   C18512769   2.231   3.380   2.963 -0.7988 -0.1131  0.1953
   53MOL   C18612770   2.152   3.445   2.844 -0.3698 -0.0599  0.0726
   53MOL   O18712771   2.070   3.375   2.782 -0.3153 -0.3515  0.1628
   53MOL   H18812772   2.401   3.497   2.966 -2.3022  0.3956 -1.1441
   53MOL   H18912773   2.535   3.395   2.795 -0.7636  2.3363 -0.1620
   53MOL   H19012774   2.369   3.352   2.741 -0.2260 -0.7701  0.4153
   53MOL   H19112775   2.473   3.235   2.819 -0.1801 -0.2595  0.7211
   53MOL   H19212776   2.185   3.423   3.052 -0.8515  3.6282 -1.5367
   53MOL   H19312777   2.207   3.274   2.971 -1.3732 -0.2532 -2.9332
   53MOL   O19412778   2.181   3.563   2.834 -0.0367  0.1038 -0.4269
   53MOL   C19512779   2.132   3.638   2.721  0.1114 -0.3779 -0.4655
   53MOL   C19612780   2.048   3.759   2.778  0.7891 -0.0628 -0.0732
   53MOL   C19712781   2.245   3.694   2.630 -0.7458  0.1013  0.3656
   53MOL   C19812782   2.188   3.729   2.489  0.2983 -0.4355 -0.1201
   53MOL   O19912783   2.204   3.656   2.388  0.1760 -0.4039 -0.0629
   53MOL   H20012784   2.074   3.574   2.655 -1.8135  2.1192 -1.3070
   53MOL   H20112785   1.976   3.725   2.853  0.6752 -1.1800 -0.6825
   53MOL   H20212786   1.996   3.813   2.698 -2.8976 -2.7651  0.3323
   53MOL   H20312787   2.107   3.830   2.835 -2.6783  1.9067  1.2231
   53MOL   H20412788   2.325   3.625   2.604 -0.5157  0.4107  0.2575
   53MOL   H20512789   2.302   3.779   2.668  2.4692 -1.5569 -0.5395
   53MOL   O20612790   2.114   3.841   2.485  0.2440  0.5654 -0.1169
   53MOL   C20712791   2.049   3.884   2.367 -0.7150  0.4288  0.4205
   53MOL   C20812792   1.921   3.808   2.340  0.6960 -0.0086  0.5704
   53MOL   C20912793   2.034   4.038   2.371  0.1067  0.3542 -0.3231
   53MOL   C21012794   1.917   4.093   2.459 -0.5398 -0.1916  0.0660
   53MOL   O21112795   1.847   4.181   2.413 -0.2115  0.0071  0.5662
   53MOL   H21212796   2.117   3.869   2.283 -2.2384 -2.0113 -0.4200
   53MOL   H21312797   1.848   3.819   2.420 -1.4454  0.7596 -1.4486
   53MOL   H21412798   1.943   3.703   2.322 -1.3161 -0.6011  1.3885
   53MOL   H21512799   1.884   3.852   2.248  0.9417  0.9635  0.9333
   53MOL   H21612800   2.008   4.056   2.267  2.6027 -0.7641 -1.1679
   53MOL   H21712801   2.130   4.088   2.373  0.2826  0.0590 -1.3182
   53MOL   O21812802   1.915   4.049   2.586  1.0322 -0.1208  0.6868
   53MOL   C21912803   1.810   4.085   2.678 -0.3141  0.5694 -0.2449
   53MOL   C22012804   1.693   3.989   2.663  0.0929  0.4805  0.5337
   53MOL   C22112805   1.851   4.088   2.819  0.5775  0.3850  0.0455
   53MOL   C22212806   1.764   4.181   2.909  0.1432 -0.1332  0.0694
   53MOL   O22312807   1.702   4.145   3.010  0.4237  0.4313 -0.1833
   53MOL   H22412808   1.787   4.188   2.650 -1.8889  1.4217  3.8963
   53MOL   H22512809   1.644   3.996   2.566  1.5947 -1.1755 -0.3576
   53MOL   H22612810   1.626   4.001   2.749  0.4872 -0.7272  1.0154
   53MOL   H22712811   1.728   3.886   2.666 -1.5226 -0.1658 -1.5888
   53MOL   H22812812   1.954   4.124   2.814  1.2397 -1.4126  0.3525
   53MOL   H22912813   1.843   3.986   2.855 -1.1633  0.3549 -0.3767
   53MOL   O23012814   1.760   4.310   2.869 -0.1610 -0.1843 -0.2391
   53MOL   C23112815   1.703   4.409   2.947 -0.5074  0.3748 -0.8392
   53MOL   C23212816   1.783   4.542   2.920  0.1974 -0.2071 -0.3317
   53MOL   C23312817   1.543   4.427   2.923 -0.0662  0.6643  0.1130
   53MOL   C23412818   1.491   4.543   3.003 -0.3698 -0.0817 -0.3599
   53MOL   O23512819   1.498   4.553   3.123  0.4839  0.4463 -0.3192
   53MOL   H23612820   1.708   4.386   3.054  1.6897 -0.9520 -1.1995
   53MOL   H23712821   1.772   4.575   2.817  2.1448 -1.6413 -1.0338
   53MOL   H23812822   1.889   4.524   2.936 -0.3796 -1.0245  2.9610
   53MOL   H23912823   1.751   4.623   2.986  1.3556  1.0752 -1.3265
   53MOL   H24012824   1.482   4.345   2.961 -0.8946  0.4456 -1.6597
   53MOL   H24112825   1.541   4.444   2.816  1.9868  2.2584  0.2964
   53MOL   H24212826   1.448   4.626   2.947 -0.9550 -1.0641 -1.3827
   54MOL     O112827   2.107   1.264   6.903 -0.3972  0.3919 -0.7941
   54MOL     C212828   2.159   1.158   6.823 -0.1334  0.2337  0.1373
   54MOL     C312829   2.129   1.034   6.898  0.2037  0.5392 -0.0361
   54MOL     C412830   2.105   1.177   6.673 -0.2999 -0.6062 -0.3599
   54MOL     C512831   2.153   1.088   6.564 -0.7298  0.7482  0.2884
   54MOL     O612832   2.146   1.124   6.446 -0.6901 -0.2601 -0.5836
   54MOL     H712833   2.268   1.163   6.826 -0.0381 -0.0730 -1.7809
   54MOL     H812834   2.026   0.997   6.894 -0.3444  1.7244  2.4032
   54MOL     H912835   2.163   1.043   7.000 -2.0811 -0.7406  0.8825
   54MOL    H1012836   2.191   0.955   6.854 -2.4767 -0.9444 -1.3432
   54MOL    H1112837   2.138   1.277   6.646 -0.6278 -0.2560  0.5428
   54MOL    H1212838   1.996   1.175   6.667 -0.2343 -2.5010 -1.4191
   54MOL    H1312839   2.014   1.252   6.918  0.0686 -0.6963  1.5091
   54MOL    O1412840   2.197   0.973   6.599  0.3363  0.1735  0.3985
   54MOL    C1512841   2.277   0.894   6.503  0.0299  0.1984  0.4312
   54MOL    C1612842   2.416   0.934   6.529  0.4628  0.0852 -0.1140
   54MOL    C1712843   2.232   0.747   6.515  0.3042  0.2446  0.3026
   54MOL    C1812844   2.091   0.719   6.469 -0.0144  0.6679 -0.6928
   54MOL    O1912845   2.018   0.653   6.545 -0.2916  0.3019 -0.1736
   54MOL    H2012846   2.258   0.932   6.403  1.8542 -0.6456 -0.2787
   54MOL    H2112847   2.439   1.039   6.511 -0.5481  0.2861 -0.2420
   54MOL    H2212848   2.472   0.872   6.458 -1.3372 -0.0118 -1.4981
   54MOL    H2312849   2.469   0.911   6.622 -2.1716 -1.8980  0.9548
   54MOL    H2412850   2.233   0.717   6.620  2.0458 -2.7255 -0.5081
   54MOL    H2512851   2.294   0.674   6.462 -0.9698  0.8262 -2.0897
   54MOL    O2612852   2.060   0.782   6.355 -0.2292 -0.5156  0.2296
   54MOL    C2712853   1.926   0.792   6.307 -0.2725  0.5407  0.4010
   54MOL    C2812854   1.863   0.914   6.362  0.0274 -0.0209  0.2850
   54MOL    C2912855   1.936   0.790   6.151  0.1925  0.4011 -0.4425
   54MOL    C3012856   1.809   0.804   6.068 -0.6490  0.1582  0.1698
   54MOL    O3112857   1.773   0.913   6.019  0.3252  0.2564  0.4277
   54MOL    H3212858   1.871   0.700   6.328  0.6359 -0.8989 -3.1493
   54MOL    H3312859   1.756   0.930   6.346 -0.0073 -0.4503  0.1026
   54MOL    H3412860   1.911   1.006   6.330 -3.1952  0.9113 -2.2329
   54MOL    H3512861   1.871   0.917   6.471  2.9584 -4.0360  0.2700
   54MOL    H3612862   1.973   0.691   6.124  0.5399  0.6256 -0.7902
   54MOL    H3712863   2.003   0.860   6.102 -0.5214  0.5184 -1.2647
   54MOL    O3812864   1.748   0.684   6.055 -0.2910 -0.3674  0.1230
   54MOL    C3912865   1.622   0.683   6.002 -0.0335 -0.2368 -0.7708
   54MOL    C4012866   1.619   0.686   5.844 -0.2829  0.0690 -1.2110
   54MOL    C4112867   1.528   0.582   6.072  0.3179 -0.3496 -0.7525
   54MOL    C4212868   1.577   0.434   6.082  0.1597  0.0784 -0.4633
   54MOL    O4312869   1.588   0.368   6.183  0.1796 -0.3257 -0.3026
   54MOL    H4412870   1.575   0.776   6.034  1.9475  0.6088 -0.2262
   54MOL    H4512871   1.519   0.687   5.802 -0.2563 -0.5195 -1.2915
   54MOL    H4612872   1.648   0.590   5.802 -2.5567 -2.6429  3.0707
   54MOL    H4712873   1.667   0.768   5.791  1.5609  0.2753  0.6850
   54MOL    H4812874   1.428   0.579   6.029  0.2470  1.4717 -0.7388
   54MOL    H4912875   1.510   0.616   6.173 -0.6388 -1.2287 -0.6214
   54MOL    O5012876   1.618   0.393   5.959 -0.3406  0.3512 -0.3960
   54MOL    C5112877   1.683   0.268   5.945  0.3094 -0.1863 -0.4648
   54MOL    C5212878   1.594   0.149   5.960  0.1477  0.9974  0.0559
   54MOL    C5312879   1.765   0.274   5.807  0.1906 -0.5736 -0.4217
   54MOL    C5412880   1.668   0.238   5.687  0.3504  0.1870  0.1426
   54MOL    O5512881   1.696   0.142   5.613 -0.3838  0.3644  0.2359
   54MOL    H5612882   1.760   0.274   6.021 -0.2607 -1.0064  0.1845
   54MOL    H5712883   1.538   0.156   6.053  0.4944  0.5282  0.3046
   54MOL    H5812884   1.656   0.059   5.952  0.0992  1.0196 -0.5761
   54MOL    H5912885   1.515   0.127   5.888  0.2186  3.0047 -0.6529
   54MOL    H6012886   1.844   0.200   5.807 -0.2389 -1.0363  0.1017
   54MOL    H6112887   1.814   0.370   5.788  2.2536 -1.7984 -1.3872
   54MOL    O6212888   1.558   0.312   5.666  0.4712 -0.0608 -0.2387
   54MOL    C6312889   1.453   0.279   5.574  0.0538 -0.2141 -0.3210
   54MOL    C6412890   1.323   0.358   5.622 -0.0338  0.2541  0.4248
   54MOL    C6512891   1.488   0.310   5.427 -0.7632  0.3046  0.8207
   54MOL    C6612892   1.384   0.257   5.324 -0.8353 -0.4628  0.0182
   54MOL    O6712893   1.404   0.157   5.248  0.5140  0.2484  0.3295
   54MOL    H6812894   1.435   0.171   5.580 -1.4046  0.0592  0.3559
   54MOL    H6912895   1.327   0.464   5.600 -1.7361  0.0030 -1.2729
   54MOL    H7012896   1.321   0.350   5.731  3.0642 -0.2036  0.4801
   54MOL    H7112897   1.236   0.299   5.591  1.1560 -0.6795 -1.1651
   54MOL    H7212898   1.581   0.260   5.399 -1.6250 -1.6028  1.2505
   54MOL    H7312899   1.500   0.416   5.408 -2.4734  0.6448  1.5366
   54MOL    O7412900   1.265   0.335   5.330  0.2849  0.4002 -0.4589
   54MOL    C7512901   1.156   0.304   5.249  0.0213 -0.2017  0.8176
   54MOL    C7612902   1.072   0.181   5.309 -0.8836 -0.1033  0.7457
   54MOL    C7712903   1.072   0.437   5.248  0.2039  0.2519  0.1501
   54MOL    C7812904   1.105   0.528   5.128 -0.4397 -0.4407  0.9707
   54MOL    O7912905   1.111   0.649   5.140  0.4149  0.0355  0.5584
   54MOL    H8012906   1.198   0.283   5.150 -2.6227 -0.4675 -0.2851
   54MOL    H8112907   1.033   0.194   5.410 -1.8368 -0.5755  0.4465
   54MOL    H8212908   1.132   0.090   5.310  0.4362  0.7098 -1.4108
   54MOL    H8312909   0.993   0.162   5.237  0.3449  2.2779 -1.3017
   54MOL    H8412910   1.095   0.482   5.345  2.2756 -0.9610  0.2425
   54MOL    H8512911   0.965   0.420   5.233  0.1423  0.1961  0.6378
   54MOL    O8612912   1.139   0.461   5.019 -0.9203  0.4265  0.3298
   54MOL    C8712913   1.163   0.521   4.897  0.1282  0.1545 -0.9380
   54MOL    C8812914   1.320   0.554   4.885  0.4084 -0.5511 -0.4062
   54MOL    C8912915   1.104   0.433   4.785 -0.4048  0.3270  0.1627
   54MOL    C9012916   1.107   0.496   4.646  0.7407 -0.4171 -0.3236
   54MOL    O9112917   1.115   0.622   4.636 -0.1406 -0.4066  0.0001
   54MOL    H9212918   1.113   0.618   4.900 -3.0825 -1.4600  0.8317
   54MOL    H9312919   1.346   0.633   4.956  0.2061  0.5885 -1.5926
   54MOL    H9412920   1.345   0.594   4.787  1.0192 -0.4682 -0.2176
   54MOL    H9512921   1.383   0.466   4.897  1.1075 -0.0077 -0.0800
   54MOL    H9612922   0.998   0.423   4.810 -0.1612 -2.9439  0.1332
   54MOL    H9712923   1.142   0.331   4.780 -2.7741 -0.5603 -0.3163
   54MOL    O9812924   1.089   0.409   4.549  0.4281 -0.4772 -0.2997
   54MOL    C9912925   1.066   0.455   4.416  0.1992 -0.0225  0.3535
   54MOL   C10012926   1.127   0.365   4.313  0.2056 -0.1371  0.1851
   54MOL   C10112927   0.916   0.460   4.398  0.3170 -0.2601 -0.2413
   54MOL   C10212928   0.882   0.535   4.266 -0.6343  0.5209 -0.7876
   54MOL   O10312929   0.814   0.478   4.187 -0.0145  0.1667  0.6936
   54MOL   H10412930   1.106   0.555   4.403 -0.6904  0.4232  0.9820
   54MOL   H10512931   1.101   0.385   4.209  0.5939 -3.5753 -0.6493
   54MOL   H10612932   1.082   0.266   4.328  3.3440 -1.9200 -1.5283
   54MOL   H10712933   1.235   0.356   4.324  0.0345  1.1661  3.5848
   54MOL   H10812934   0.856   0.507   4.476 -0.6134 -2.1756  0.2190
   54MOL   H10912935   0.885   0.356   4.390 -0.0051 -0.0896 -1.3768
   54MOL   O11012936   0.929   0.657   4.253 -0.5319  0.0389  0.0488
   54MOL   C11112937   0.901   0.740   4.146  0.0288 -0.5893 -0.7399
   54MOL   C11212938   0.877   0.883   4.198  0.2879  0.7303 -0.6523
   54MOL   C11312939   1.019   0.708   4.062  0.2748  1.1228  0.3836
   54MOL   C11412940   1.027   0.814   3.945  0.5484  0.3953  0.2246
   54MOL   O11512941   1.135   0.873   3.933  0.9210 -0.1725  0.2707
   54MOL   H11612942   0.808   0.701   4.104 -0.9435  1.0582 -0.1339
   54MOL   H11712943   0.802   0.881   4.277  0.8987  0.8048 -0.0603
   54MOL   H11812944   0.842   0.955   4.124  0.5403  0.7101 -0.7903
   54MOL   H11912945   0.971   0.926   4.234  0.4909  1.2246 -1.7650
   54MOL   H12012946   1.004   0.606   4.026 -1.1538  1.3637  0.2733
   54MOL   H12112947   1.113   0.713   4.117  0.5415  1.8229 -0.1258
   54MOL   O12212948   0.919   0.817   3.868 -0.0434  0.6818  0.0049
   54MOL   C12312949   0.917   0.895   3.756 -0.5614  0.1919 -0.6699
   54MOL   C12412950   0.861   0.811   3.647  0.3489  0.3396 -0.6976
   54MOL   C12512951   0.832   1.023   3.789 -0.0431  0.1098  0.5072
   54MOL   C12612952   0.686   1.005   3.835  0.1558 -0.0323 -1.2806
   54MOL   O12712953   0.665   1.003   3.956 -0.0733 -0.2287  0.1091
   54MOL   H12812954   1.007   0.946   3.722  0.4392 -0.9173  0.2711
   54MOL   H12912955   0.766   0.759   3.660 -0.2445  1.2918 -1.2066
   54MOL   H13012956   0.928   0.742   3.596 -0.0223 -0.9747  0.5641
   54MOL   H13112957   0.844   0.883   3.567  0.8070  0.8178 -0.3633
   54MOL   H13212958   0.811   1.099   3.713 -0.1924 -1.0212 -0.6068
   54MOL   H13312959   0.874   1.082   3.870  0.0734  0.6579  0.0482
   54MOL   O13412960   0.599   0.993   3.733 -0.2444 -0.6232  0.5293
   54MOL   C13512961   0.462   0.956   3.754  0.6886 -0.1513 -0.5285
   54MOL   C13612962   0.400   1.089   3.795 -0.1284  0.1527  0.3455
   54MOL   C13712963   0.397   0.904   3.622  0.1312 -0.1736 -0.4030
   54MOL   C13812964   0.448   0.778   3.558 -0.2608  0.6970 -0.0130
   54MOL   O13912965   0.498   0.771   3.447 -0.8942  0.2195  1.3513
   54MOL   H14012966   0.453   0.872   3.823  0.4342  0.0010 -0.3766
   54MOL   H14112967   0.445   1.119   3.889  1.6153  0.7725 -0.6516
   54MOL   H14212968   0.293   1.082   3.813 -0.4699  4.2235  0.2414
   54MOL   H14312969   0.419   1.175   3.731  0.2806  1.0494  1.6553
   54MOL   H14412970   0.407   0.983   3.547  2.8659 -0.0743  0.0299
   54MOL   H14512971   0.292   0.892   3.651 -0.0295 -0.8064 -1.2159
   54MOL   O14612972   0.432   0.685   3.649 -0.3275 -0.1747 -0.2649
   54MOL   C14712973   0.446   0.551   3.609  0.2523  0.1407 -0.1272
   54MOL   C14812974   0.593   0.515   3.603  0.2543  0.0877  0.2385
   54MOL   C14912975   0.378   0.461   3.718  0.4098  0.0151  0.6214
   54MOL   C15012976   0.424   0.487   3.863 -0.7277 -0.8090 -0.8812
   54MOL   O15112977   0.494   0.406   3.919  0.0033  0.2903 -0.2212
   54MOL   H15212978   0.391   0.534   3.517  1.0545  0.1765 -0.6174
   54MOL   H15312979   0.647   0.532   3.695  2.6228 -0.7976 -0.9536
   54MOL   H15412980   0.648   0.570   3.527  2.4572 -0.7601  1.1953
   54MOL   H15512981   0.594   0.409   3.576 -0.4822  0.0745  0.2528
   54MOL   H15612982   0.384   0.359   3.682 -1.8938  0.0521  0.0840
   54MOL   H15712983   0.270   0.471   3.728  0.5323  1.1236  0.9382
   54MOL   O15812984   0.375   0.599   3.923  0.2810  0.4467  0.1376
   54MOL   C15912985   0.386   0.619   4.063 -0.7658 -0.0559 -0.0270
   54MOL   C16012986   0.508   0.719   4.100  0.4901 -0.1859 -0.1680
   54MOL   C16112987   0.248   0.663   4.114  1.0326 -0.3090 -0.2047
   54MOL   C16212988   0.149   0.546   4.127  0.0211  0.4750 -0.3952
   54MOL   O16312989   0.166   0.438   4.076 -0.1612 -0.3840  0.2265
   54MOL   H16412990   0.408   0.521   4.105  0.4195  0.1871 -0.0352
   54MOL   H16512991   0.503   0.818   4.055 -0.0731  0.6204  1.6239
   54MOL   H16612992   0.601   0.682   4.056  0.1562 -1.9192  0.5478
   54MOL   H16712993   0.515   0.732   4.208 -0.9783 -1.2910  0.0769
   54MOL   H16812994   0.211   0.747   4.055 -0.5609 -1.4197 -0.8428
   54MOL   H16912995   0.267   0.702   4.213 -1.8733 -1.5477  0.9137
   54MOL   O17012996   0.049   0.561   4.222 -0.0970 -0.8982  0.8260
   54MOL   C17112997   7.941   0.454   4.251  0.1693 -0.2358 -0.4821
   54MOL   C17212998   7.871   0.479   4.394 -0.2731  0.9797  0.6323
   54MOL   C17312999   7.832   0.411   4.152  0.1332 -0.2866  0.1125
   54MOL   C17413000   7.718   0.509   4.128  0.4591  0.1312 -0.1815
   54MOL   O17513001   7.713   0.574   4.021 -0.6300  0.0225  0.1578
   54MOL   H17613002   0.019   0.362   4.252  1.6443  0.6917  0.6658
   54MOL   H17713003   7.791   0.408   4.417 -1.0300  1.8431  0.6886
   54MOL   H17813004   7.839   0.582   4.409  0.0269  1.0406  0.8572
   54MOL   H17913005   7.942   0.461   4.474 -0.0206 -1.1820 -0.0473
   54MOL   H18013006   7.784   0.317   4.177 -0.8701 -0.5039 -2.4875
   54MOL   H18113007   7.887   0.388   4.061  0.6015 -1.8247  0.7682
   54MOL   O18213008   7.620   0.505   4.220 -0.3776 -0.2676  0.4447
   54MOL   C18313009   7.502   0.591   4.205  0.2448 -0.1296 -0.2039
   54MOL   C18413010   7.386   0.530   4.133  0.8118  0.0152 -0.2039
   54MOL   C18513011   7.462   0.654   4.337  0.1789  0.2161 -0.3122
   54MOL   C18613012   7.542   0.784   4.369  0.7261  0.1828 -0.7187
   54MOL   O18713013   7.623   0.833   4.294 -0.2141 -0.0198 -0.3890
   54MOL   H18813014   7.538   0.676   4.148  0.2676  0.6811  0.9899
   54MOL   H18913015   7.304   0.595   4.101 -1.0313 -1.0863  2.0691
   54MOL   H19013016   7.343   0.457   4.202  0.0690  2.0667  1.5561
   54MOL   H19113017   7.404   0.460   4.051 -1.4029 -1.0332  0.1531
   54MOL   H19213018   7.454   0.589   4.425  0.6493 -0.5357 -0.8280
   54MOL   H19313019   7.360   0.691   4.333 -0.3924 -1.1568  0.9053
   54MOL   O19413020   7.502   0.844   4.490  0.1611 -0.4532 -0.4164
   54MOL   C19513021   7.525   0.984   4.518  0.4788  0.3206 -0.5334
   54MOL   C19613022   7.390   1.053   4.479  0.0898  0.3636  0.0881
   54MOL   C19713023   7.565   1.014   4.665 -0.1176  0.5942 -0.2834
   54MOL   C19813024   7.653   1.140   4.671 -0.2442  0.8120  0.5045
   54MOL   O19913025   7.632   1.235   4.600  0.2765 -0.6767  0.3147
   54MOL   H20013026   7.603   1.019   4.450 -0.2144  1.4807 -0.7481
   54MOL   H20113027   7.307   0.989   4.511 -0.0708  0.7079  0.3651
   54MOL   H20213028   7.362   1.062   4.374 -2.0171 -0.9582  0.5053
   54MOL   H20313029   7.378   1.154   4.520  3.0229  1.0543 -0.6744
   54MOL   H20413030   7.633   0.940   4.707  0.0196  0.3512 -0.9285
   54MOL   H20513031   7.483   1.026   4.735 -0.4334  0.1099 -0.5674
   54MOL   O20613032   7.747   1.142   4.761  0.1939  0.3014 -0.7746
   54MOL   C20713033   7.857   1.228   4.746  0.1576 -0.3756 -0.4754
   54MOL   C20813034   7.851   1.333   4.854  0.2377  0.6658 -0.8267
   54MOL   C20913035   0.013   1.145   4.756  0.1212 -0.2552 -0.3761
   54MOL   C21013036   0.067   1.096   4.622  0.0604 -0.6670  0.5287
   54MOL   O21113037   0.188   1.099   4.611 -0.5995  0.4970  0.3576
   54MOL   H21213038   7.856   1.276   4.648  1.6809  1.5052  0.4019
   54MOL   H21313039   7.877   1.283   4.948  3.2902 -0.4503 -2.1840
   54MOL   H21413040   7.752   1.379   4.854 -0.9693 -1.7858  0.3534
   54MOL   H21513041   7.933   1.398   4.825  2.5353 -0.8823  1.8900
   54MOL   H21613042   7.976   1.066   4.828 -1.3487  0.1676 -0.2250
   54MOL   H21713043   0.087   1.211   4.802  1.8925 -1.5076 -1.3914
   54MOL   O21813044   7.958   1.058   4.526  0.2102  0.3011  0.1923
   54MOL   C21913045   0.020   1.000   4.403 -0.2168 -0.0938  0.5157
   54MOL   C22013046   0.072   0.852   4.416  0.6473 -0.1257 -0.1263
   54MOL   C22113047   7.886   1.006   4.294  0.3552 -0.4480 -0.3863
   54MOL   C22213048   7.871   1.144   4.238  0.1508  0.3793  0.3126
   54MOL   O22313049   7.933   1.175   4.130  0.2896 -0.1396  0.7166
   54MOL   H22413050   0.103   1.063   4.371 -0.4682  0.6998  1.4259
   54MOL   H22513051   0.131   0.835   4.326  1.8244 -1.5821  0.8944
   54MOL   H22613052   7.977   0.772   4.416  0.3050  0.1589  2.3654
   54MOL   H22713053   0.148   0.835   4.492  2.2127 -1.2024 -1.9123
   54MOL   H22813054   7.793   0.976   4.342 -0.3379 -0.2563 -1.5786
   54MOL   H22913055   7.913   0.933   4.217 -0.6356 -0.1864 -0.9833
   54MOL   O23013056   7.789   1.230   4.308  0.9056  0.1238  0.5031
   54MOL   C23113057   7.758   1.360   4.263 -0.0546 -0.3179  0.3304
   54MOL   C23213058   7.630   1.357   4.180  0.4038  0.0708  0.3164
   54MOL   C23313059   7.751   1.461   4.381 -0.4373  0.1619 -0.7061
   54MOL   C23413060   7.881   1.458   4.465 -0.0759 -0.1881 -0.0903
   54MOL   O23513061   7.871   1.506   4.577 -0.3633 -0.4603  0.3642
   54MOL   H23613062   7.826   1.406   4.191  0.1425 -0.0236  0.7019
   54MOL   H23713063   7.543   1.329   4.239  2.1245 -1.1279  2.3791
   54MOL   H23813064   7.640   1.292   4.094 -0.9877 -1.0160  0.9656
   54MOL   H23913065   7.605   1.459   4.151 -1.9293 -0.7504 -0.6603
   54MOL   H24013066   7.669   1.441   4.451 -0.3125 -2.4912 -1.2357
   54MOL   H24113067   7.740   1.552   4.324 -1.6302 -0.0512 -0.8435
   54MOL   H24213068   7.975   1.454   4.410  1.3851 -1.2414  2.3908
   55MOL     O113069   3.757   6.866   5.868 -0.4603 -0.0348 -0.8385
   55MOL     C213070   3.878   6.832   5.917  0.1162 -0.7204  0.2349
   55MOL     C313071   3.980   6.854   5.806 -0.7135  0.7020  0.6341
   55MOL     C413072   3.908   6.901   6.044  0.2138  0.4556  0.5900
   55MOL     C513073   4.034   6.838   6.114 -0.3587 -0.4356  0.0040
   55MOL     O613074   4.130   6.908   6.150 -0.1323 -0.3562 -0.1201
   55MOL     H713075   3.877   6.724   5.931 -2.0040 -0.8838 -0.9682
   55MOL     H813076   4.018   6.956   5.811 -0.8253  0.7635  0.2679
   55MOL     H913077   3.953   6.828   5.704  0.0566  0.2419  0.5414
   55MOL    H1013078   4.064   6.787   5.824 -2.4871 -1.3698  1.3646
   55MOL    H1113079   3.817   6.893   6.103 -1.4421  0.5149 -1.8834
   55MOL    H1213080   3.930   7.005   6.020 -0.0240 -0.0360 -1.8611
   55MOL    H1313081   3.687   6.877   5.931 -0.7199 -1.1148 -0.9336
   55MOL    O1413082   4.021   6.704   6.143 -0.0471 -0.0191 -0.4856
   55MOL    C1513083   4.130   6.630   6.212 -0.2296 -0.6837  0.3045
   55MOL    C1613084   4.083   6.520   6.317  0.1266 -0.2956  0.5854
   55MOL    C1713085   4.211   6.574   6.091  0.4713  0.3209 -0.3753
   55MOL    C1813086   4.345   6.515   6.122 -0.4969  0.8818 -0.2458
   55MOL    O1913087   4.362   6.401   6.078  0.6075  0.3213 -0.1707
   55MOL    H2013088   4.193   6.700   6.266 -1.3128  0.1417  0.5249
   55MOL    H2113089   4.051   6.434   6.257 -1.2377 -0.0392  0.9201
   55MOL    H2213090   4.004   6.557   6.383  0.2020 -1.5357  1.3872
   55MOL    H2313091   4.171   6.501   6.377 -0.4272  1.6693  2.0709
   55MOL    H2413092   4.224   6.651   6.015 -0.5665  0.1414 -0.7441
   55MOL    H2513093   4.160   6.493   6.039  0.0883  0.2200  0.1522
   55MOL    O2613094   4.432   6.592   6.187  0.5506 -0.3167 -0.4005
   55MOL    C2713095   4.572   6.557   6.208  0.4319 -0.6210  0.2903
   55MOL    C2813096   4.662   6.673   6.168  0.5019 -0.4664 -0.3878
   55MOL    C2913097   4.573   6.500   6.350  0.5035  0.3362 -0.4614
   55MOL    C3013098   4.545   6.596   6.459 -0.0090 -0.0080 -0.4570
   55MOL    O3113099   4.436   6.601   6.514 -0.8711 -0.1728  0.4582
   55MOL    H3213100   4.588   6.476   6.136 -0.4655 -1.4765  1.0438
   55MOL    H3313101   4.642   6.722   6.073  0.7531  2.3411  0.9733
   55MOL    H3413102   4.764   6.637   6.178 -0.6328 -3.3708  1.3432
   55MOL    H3513103   4.656   6.758   6.236 -1.1331  0.7344 -1.9970
   55MOL    H3613104   4.673   6.459   6.364  0.9009  1.0134 -1.2633
   55MOL    H3713105   4.507   6.414   6.356 -0.1070  0.9031  1.2382
   55MOL    O3813106   4.653   6.670   6.501  0.3957  0.3961  0.9955
   55MOL    C3913107   4.639   6.782   6.586 -0.4849 -0.5970  0.1092
   55MOL    C4013108   4.635   6.724   6.726 -0.4379  0.1594 -0.2088
   55MOL    C4113109   4.751   6.890   6.550 -0.3559 -0.5031 -0.2898
   55MOL    C4213110   4.720   6.988   6.438  0.4089  0.4499  1.1833
   55MOL    O4313111   4.809   7.063   6.391 -0.2563  0.1715  0.0343
   55MOL    H4413112   4.541   6.826   6.568  0.7983  1.4768 -2.1577
   55MOL    H4513113   4.550   6.657   6.740  0.2802 -0.9284 -0.9920
   55MOL    H4613114   4.613   6.804   6.796  3.4018 -0.6818  2.1099
   55MOL    H4713115   4.729   6.682   6.763 -0.5411  0.6892  0.6615
   55MOL    H4813116   4.842   6.841   6.515 -0.8507 -0.7272 -1.2612
   55MOL    H4913117   4.782   6.946   6.639 -0.6863 -2.2039  0.9296
   55MOL    O5013118   4.592   6.991   6.397 -0.4442  0.3340 -0.5839
   55MOL    C5113119   4.551   7.076   6.296 -0.8468  0.6249 -0.9070
   55MOL    C5213120   4.432   7.006   6.221  0.4550 -0.7358 -0.3074
   55MOL    C5313121   4.507   7.202   6.374  0.0778  0.4047  0.2090
   55MOL    C5413122   4.465   7.316   6.280 -0.7261 -0.2039 -0.5037
   55MOL    O5513123   4.348   7.341   6.253 -0.2874  0.3208  0.1193
   55MOL    H5613124   4.631   7.097   6.225 -0.0721 -0.6648 -0.4322
   55MOL    H5713125   4.348   6.987   6.287 -1.4298 -1.4014 -2.8155
   55MOL    H5813126   4.456   6.910   6.175 -0.8199 -1.4070  0.4173
   55MOL    H5913127   4.401   7.062   6.132  1.7331  2.7660  1.3753
   55MOL    H6013128   4.591   7.242   6.431 -0.4731  0.8066  0.7418
   55MOL    H6113129   4.428   7.180   6.446  1.7454  0.1221  2.0012
   55MOL    O6213130   4.577   7.357   6.211  0.4181 -0.3498  0.2196
   55MOL    C6313131   4.574   7.472   6.121  0.1141  0.0564 -0.6885
   55MOL    C6413132   4.676   7.575   6.167 -0.1445 -0.4124  0.0853
   55MOL    C6513133   4.593   7.430   5.974 -0.6785  0.6765 -0.0835
   55MOL    C6613134   4.463   7.400   5.907  0.0549  0.2331  0.1075
   55MOL    O6713135   4.433   7.283   5.899 -0.0876 -0.2377  0.1828
   55MOL    H6813136   4.476   7.519   6.125  0.2874  0.9816 -4.9004
   55MOL    H6913137   4.772   7.524   6.167  0.0620 -0.0245  0.3176
   55MOL    H7013138   4.658   7.624   6.262 -0.7200 -0.2044 -0.1223
   55MOL    H7113139   4.676   7.657   6.094  1.9754 -1.1807 -0.7997
   55MOL    H7213140   4.658   7.342   5.978 -2.5334 -0.6863  0.6522
   55MOL    H7313141   4.637   7.511   5.916 -0.9000  0.1425 -0.9999
   55MOL    O7413142   4.403   7.505   5.849  0.1071  0.5526 -0.7261
   55MOL    C7513143   4.267   7.502   5.790  0.6172 -0.0367  0.2218
   55MOL    C7613144   4.160   7.482   5.890  0.3205 -0.0441 -1.0101
   55MOL    C7713145   4.257   7.641   5.711  0.3172  0.3090  0.0719
   55MOL    C7813146   4.269   7.771   5.792  0.3416  0.0177  0.4357
   55MOL    O7913147   4.172   7.850   5.804  0.3980  0.1704  0.3083
   55MOL    H8013148   4.271   7.416   5.724 -2.0882 -0.3648  0.4613
   55MOL    H8113149   4.178   7.401   5.960 -1.6036  1.2083  0.9956
   55MOL    H8213150   4.060   7.471   5.847 -0.1538 -0.0920  0.0931
   55MOL    H8313151   4.159   7.564   5.962 -1.9533  0.2972 -1.3901
   55MOL    H8413152   4.154   7.642   5.676  0.2888 -0.8546  0.0971
   55MOL    H8513153   4.336   7.634   5.636 -0.1712  1.3023 -0.5556
   55MOL    O8613154   4.386   7.790   5.847 -0.2428 -0.2933 -0.1301
   55MOL    C8713155   4.403   7.896   5.939  0.0280  0.1616 -0.1622
   55MOL    C8813156   4.398   7.843   6.083 -0.7544 -0.2936 -0.2759
   55MOL    C8913157   4.532   7.968   5.895 -0.2399  0.1463 -0.2750
   55MOL    C9013158   4.511   0.103   5.798 -0.1159 -0.0905  0.1500
   55MOL    O9113159   4.534   0.224   5.824 -0.1169 -0.1069 -0.6516
   55MOL    H9213160   4.331   7.978   5.942 -1.3876 -0.9712 -2.0686
   55MOL    H9313161   4.419   7.918   6.159 -1.1581  0.7732 -1.2072
   55MOL    H9413162   4.478   7.769   6.087 -1.7899 -1.4530 -0.6061
   55MOL    H9513163   4.299   7.803   6.104  0.2759 -1.8621  1.7178
   55MOL    H9613164   4.612   7.902   5.862 -0.3182  0.1944 -0.5643
   55MOL    H9713165   4.567   0.035   5.987 -2.5457 -1.6278  1.5610
   55MOL    O9813166   4.465   0.062   5.680 -0.7029  0.2998  0.4518
   55MOL    C9913167   4.420   0.161   5.583 -0.0419  0.1183  0.2721
   55MOL   C10013168   4.494   0.148   5.451  0.2029  0.5809  0.8290
   55MOL   C10113169   4.267   0.170   5.576  0.4092 -0.3964  0.6723
   55MOL   C10213170   4.200   0.302   5.529 -0.3334  0.5641  0.4331
   55MOL   O10313171   4.111   0.301   5.442 -0.0555  0.1653 -0.0525
   55MOL   H10413172   4.451   0.260   5.618 -0.1147  0.7378 -1.3514
   55MOL   H10513173   4.601   0.167   5.454  0.2769  0.5753 -1.1276
   55MOL   H10613174   4.451   0.214   5.375  0.4162  1.0545  1.1122
   55MOL   H10713175   4.473   0.051   5.406  2.5011  0.4306 -0.0041
   55MOL   H10813176   4.211   0.149   5.667 -0.5199 -0.6931  0.0420
   55MOL   H10913177   4.234   0.086   5.516  4.0611 -1.8009  0.4698
   55MOL   O11013178   4.249   0.415   5.594 -0.1187  0.2910 -0.9160
   55MOL   C11113179   4.165   0.529   5.600 -0.0591 -0.3800  0.8131
   55MOL   C11213180   4.218   0.615   5.713  0.5695 -0.2475 -0.0184
   55MOL   C11313181   4.168   0.618   5.469  0.0434  0.5871 -0.1870
   55MOL   C11413182   4.080   0.740   5.468  0.0328 -0.3038 -0.7113
   55MOL   O11513183   4.114   0.848   5.420  0.6055  0.0786  0.2226
   55MOL   H11613184   4.066   0.491   5.623 -0.0266 -2.5545 -2.2581
   55MOL   H11713185   4.232   0.551   5.800 -0.6302  0.0108  0.3750
   55MOL   H11813186   4.167   0.707   5.743 -1.8876 -1.7158  0.4029
   55MOL   H11913187   4.317   0.652   5.687 -0.1207  2.0452  0.5187
   55MOL   H12013188   4.166   0.558   5.378 -2.1914  0.1130  0.1408
   55MOL   H12113189   4.268   0.661   5.475  1.0101 -1.3910 -1.5768
   55MOL   O12213190   3.953   0.716   5.509  0.0621  0.2048 -0.3971
   55MOL   C12313191   3.853   0.812   5.518 -0.2009  0.3015 -0.0768
   55MOL   C12413192   3.713   0.744   5.503 -0.0309 -0.0860  0.3951
   55MOL   C12513193   3.866   0.884   5.655  0.0829 -0.4217  0.4055
   55MOL   C12613194   3.824   0.816   5.787  0.2223  0.8993  0.3119
   55MOL   O12713195   3.765   0.882   5.870  0.2802 -0.2053 -0.0078
   55MOL   H12813196   3.873   0.885   5.439  1.8062 -0.9257 -0.7297
   55MOL   H12913197   3.693   0.688   5.595 -1.1797  0.4846  0.5037
   55MOL   H13013198   3.698   0.683   5.414 -2.0918 -1.2865  1.4991
   55MOL   H13113199   3.639   0.824   5.503  1.0382  0.9210  1.6893
   55MOL   H13213200   3.809   0.977   5.660 -0.1233 -0.4907 -0.6338
   55MOL   H13313201   3.973   0.906   5.661  0.3198 -1.3222 -0.4835
   55MOL   O13413202   3.880   0.688   5.807 -0.2389 -0.2900 -0.4990
   55MOL   C13513203   3.849   0.592   5.907 -0.7544  0.0612  0.4260
   55MOL   C13613204   3.852   0.451   5.850  0.0217 -0.0737 -0.0975
   55MOL   C13713205   3.929   0.612   6.034 -0.0237  0.1924  0.4224
   55MOL   C13813206   3.841   0.581   6.154  0.1105  0.1650  0.3665
   55MOL   O13913207   3.762   0.662   6.205  0.0986  0.1541 -0.4003
   55MOL   H14013208   3.743   0.611   5.923 -0.2332  1.4227  2.4307
   55MOL   H14113209   3.787   0.446   5.762 -0.0312  0.5976 -0.0982
   55MOL   H14213210   3.820   0.374   5.920  0.2659  0.4969  0.6476
   55MOL   H14313211   3.953   0.420   5.823 -0.0361 -2.2230  2.0657
   55MOL   H14413212   3.969   0.712   6.046  0.1544  0.0993  0.6222
   55MOL   H14513213   4.014   0.544   6.029  0.7283  1.1669 -0.1067
   55MOL   O14613214   3.846   0.450   6.181 -0.0870  0.2736 -0.1230
   55MOL   C14713215   3.761   0.382   6.270 -0.3579  0.2414 -0.6267
   55MOL   C14813216   3.723   0.249   6.202  0.4584  0.8766  0.8840
   55MOL   C14913217   3.847   0.356   6.395 -0.1413  0.0767  0.6872
   55MOL   C15013218   3.862   0.478   6.489 -0.5952 -0.7184 -0.1454
   55MOL   O15113219   3.768   0.514   6.555  0.2858  0.1319 -0.2529
   55MOL   H15213220   3.674   0.444   6.295  1.2053  2.6457 -0.9475
   55MOL   H15313221   3.805   0.199   6.150 -0.0920  2.4894 -1.6141
   55MOL   H15413222   3.649   0.283   6.129  1.4134  3.0277  0.8923
   55MOL   H15513223   3.678   0.178   6.272  1.4083  0.0565  0.6716
   55MOL   H15613224   3.940   0.301   6.389  0.0425  0.4462  0.1532
   55MOL   H15713225   3.786   0.294   6.462 -1.6839 -0.5070 -1.2183
   55MOL   O15813226   3.983   0.537   6.474  0.7849 -0.4646  0.2212
   55MOL   C15913227   4.015   0.669   6.531 -0.1840  0.0603  0.6026
   55MOL   C16013228   4.110   0.649   6.645  0.4643 -0.1915 -0.0576
   55MOL   C16113229   4.052   0.770   6.426 -0.3623 -1.0859 -0.3752
   55MOL   C16213230   4.176   0.733   6.336  0.5821  0.0897 -1.0009
   55MOL   O16313231   4.245   0.634   6.359  0.0727  0.4977  0.4284
   55MOL   H16413232   3.923   0.695   6.583 -0.1092 -0.3986  0.9685
   55MOL   H16513233   4.211   0.664   6.607  0.3614 -1.4361 -0.8503
   55MOL   H16613234   4.083   0.561   6.704  1.9072 -0.1188  0.7592
   55MOL   H16713235   4.090   0.729   6.715  0.7510 -1.4855  1.5387
   55MOL   H16813236   4.070   0.859   6.486  0.5073 -0.6371 -1.2742
   55MOL   H16913237   3.970   0.792   6.358 -2.3196 -1.0814  1.9282
   55MOL   O17013238   4.188   0.810   6.231 -0.0624 -0.3665  0.0637
   55MOL   C17113239   4.300   0.796   6.145 -0.8211 -0.0842  0.1765
   55MOL   C17213240   4.267   0.867   6.011  0.2035  0.0428 -0.0203
   55MOL   C17313241   4.426   0.859   6.211 -0.1483 -0.6723  0.0566
   55MOL   C17413242   4.559   0.810   6.150  0.7522  0.3702 -0.1277
   55MOL   O17513243   4.553   0.706   6.082 -0.3419 -1.1737 -0.2382
   55MOL   H17613244   4.318   0.691   6.122 -0.6957 -0.0288  0.0184
   55MOL   H17713245   4.224   0.967   6.018  1.2886  0.3567  2.9266
   55MOL   H17813246   4.189   0.800   5.974 -0.7384  0.4302  1.2311
   55MOL   H17913247   4.347   0.874   5.938 -1.5733 -2.0359 -2.2540
   55MOL   H18013248   4.443   0.852   6.318  0.9944  0.1705 -0.0580
   55MOL   H18113249   4.431   0.967   6.194  1.3692 -1.1271 -2.7267
   55MOL   O18213250   4.667   0.870   6.186 -0.2318  0.0088 -0.2942
   55MOL   C18313251   4.789   0.850   6.114  0.2623 -0.3843 -0.2070
   55MOL   C18413252   4.866   0.989   6.096 -0.0769 -0.3599 -0.3837
   55MOL   C18513253   4.874   0.746   6.194 -0.8032 -0.5135 -0.3307
   55MOL   C18613254   5.003   0.705   6.111  0.6490  0.1676 -0.0695
   55MOL   O18713255   4.996   0.619   6.023 -0.0017  0.0511  0.3320
   55MOL   H18813256   4.762   0.809   6.016 -2.3983 -0.3787  0.4901
   55MOL   H18913257   4.798   1.067   6.063 -1.4583 -2.0187 -1.5511
   55MOL   H19013258   4.934   0.986   6.011  0.4728 -0.6146  0.0618
   55MOL   H19113259   4.927   1.010   6.184  0.4344 -3.3640  0.0304
   55MOL   H19213260   4.807   0.661   6.197 -0.9375 -0.8341 -6.7524
   55MOL   H19313261   4.881   0.767   6.301  1.8463 -0.6493 -0.4298
   55MOL   O19413262   5.104   0.787   6.128  0.2038 -0.2951  0.2783
   55MOL   C19513263   5.215   0.773   6.044 -0.1707  0.4963  0.1362
   55MOL   C19613264   5.214   0.886   5.945  0.2893 -0.3782  0.1968
   55MOL   C19713265   5.348   0.757   6.126  0.0479 -0.3239 -0.3482
   55MOL   C19813266   5.374   0.613   6.173 -0.3847 -0.1864 -0.7633
   55MOL   O19913267   5.300   0.523   6.146  0.0930 -0.1229  0.0621
   55MOL   H20013268   5.207   0.678   5.991  0.7798 -0.5395  1.8040
   55MOL   H20113269   5.116   0.899   5.897  0.4651  3.1811  0.6496
   55MOL   H20213270   5.285   0.878   5.863 -1.5434  2.4128 -1.7647
   55MOL   H20313271   5.228   0.980   5.999  1.0872 -0.7302  0.6016
   55MOL   H20413272   5.345   0.826   6.211 -0.1165 -2.1160  1.1369
   55MOL   H20513273   5.440   0.777   6.072 -0.2556 -1.1082 -1.1594
   55MOL   O20613274   5.495   0.604   6.244 -0.1540 -0.2428 -0.3247
   55MOL   C20713275   5.555   0.487   6.296  0.6992 -0.8129  0.1620
   55MOL   C20813276   5.699   0.496   6.234  0.1680 -0.2658  0.5951
   55MOL   C20913277   5.520   0.477   6.453  0.4698  0.5154  0.3942
   55MOL   C21013278   5.589   0.348   6.506  0.1721 -0.4777  0.3414
   55MOL   O21113279   5.680   0.359   6.583 -0.1039  0.3170 -0.1298
   55MOL   H21213280   5.498   0.407   6.247  0.1082  0.2460 -0.9019
   55MOL   H21313281   5.690   0.497   6.125 -1.3896  1.3641  0.7173
   55MOL   H21413282   5.756   0.410   6.269 -1.3971 -0.7887  1.9106
   55MOL   H21513283   5.738   0.591   6.271 -1.5865 -0.5835  3.3427
   55MOL   H21613284   5.415   0.461   6.477 -0.0184  1.4462 -1.0950
   55MOL   H21713285   5.549   0.557   6.520  2.0134 -1.4685  2.1630
   55MOL   O21813286   5.548   0.237   6.448 -0.2970 -0.3125  0.3777
   55MOL   C21913287   5.620   0.115   6.472  0.2284  0.5547  0.0865
   55MOL   C22013288   5.535   0.028   6.566 -0.0504 -0.4055  0.2495
   55MOL   C22113289   5.657   0.050   6.344  0.2153 -0.2942  0.3247
   55MOL   C22213290   5.788   0.103   6.280  0.3911  0.1573  0.1579
   55MOL   O22313291   5.775   0.154   6.173  0.3724 -0.2462  0.7009
   55MOL   H22413292   5.708   0.138   6.532 -0.2216  0.6475  0.7176
   55MOL   H22513293   5.446   7.962   6.522  0.5109 -1.5049  0.2271
   55MOL   H22613294   5.512   0.086   6.655 -0.0996 -0.1996  0.1027
   55MOL   H22713295   5.597   7.923   6.596 -1.3141 -2.2584 -2.1013
   55MOL   H22813296   5.576   0.043   6.272  0.1178 -1.3691  0.5259
   55MOL   H22913297   5.677   7.927   6.375 -1.6228 -1.3433 -1.8800
   55MOL   O23013298   5.891   0.103   6.363  0.7401  0.1729 -0.0454
   55MOL   C23113299   6.028   0.129   6.316 -0.0907 -0.3165  0.4456
   55MOL   C23213300   6.051   0.270   6.337 -0.4804  0.5422 -0.4162
   55MOL   C23313301   6.115   0.028   6.391  0.3283  0.0017  0.0075
   55MOL   C23413302   6.254   0.014   6.323 -0.2787  0.0731 -0.2134
   55MOL   O23513303   6.332   0.106   6.297  0.4790 -0.4814 -0.5843
   55MOL   H23613304   6.039   0.107   6.210 -0.5245 -0.7631  0.4887
   55MOL   H23713305   5.984   0.331   6.276 -2.4650 -0.3074  0.8877
   55MOL   H23813306   6.151   0.296   6.301  1.1882 -2.7426  1.6629
   55MOL   H23913307   6.032   0.297   6.441 -0.1853 -2.3480  0.4314
   55MOL   H24013308   6.067   7.909   6.391  0.5784 -0.1505 -1.9248
   55MOL   H24113309   6.133   0.057   6.494 -0.0963 -1.8901  0.6455
   55MOL   H24213310   6.279   7.892   6.296 -1.1093 -0.6773  1.7638
   56MOL     O113311   2.913   5.830   0.624  0.2000 -0.5084 -0.5470
   56MOL     C213312   2.978   5.902   0.726 -0.5020 -0.3314 -0.7966
   56MOL     C313313   2.870   5.923   0.837  0.3583  0.4546  0.4811
   56MOL     C413314   3.107   5.840   0.767  0.0142  0.1638 -0.1147
   56MOL     C513315   3.216   5.932   0.813 -0.2571 -0.9013 -0.0955
   56MOL     O613316   3.261   5.921   0.930 -0.3118 -0.2289  0.2505
   56MOL     H713317   3.005   6.004   0.699 -1.7406  0.2855  0.2121
   56MOL     H813318   2.907   5.973   0.926 -1.1034 -2.1480  2.6230
   56MOL     H913319   2.816   5.832   0.862  2.8243 -1.0585  0.5209
   56MOL    H1013320   2.793   5.987   0.794  1.6393  1.5257 -0.2656
   56MOL    H1113321   3.156   5.801   0.678  0.3305  1.3344 -0.4500
   56MOL    H1213322   3.084   5.761   0.839  0.0512 -0.4587 -0.7706
   56MOL    H1313323   2.823   5.858   0.617  0.0749 -1.0756 -1.4138
   56MOL    O1413324   3.252   6.021   0.725 -0.1634 -0.2964 -0.0183
   56MOL    C1513325   3.364   6.109   0.740 -1.1064 -0.0299  0.0911
   56MOL    C1613326   3.489   6.039   0.699 -0.0710 -0.2433 -0.0273
   56MOL    C1713327   3.339   6.229   0.649  0.2792 -0.1748  0.0855
   56MOL    C1813328   3.219   6.308   0.693  0.5264 -0.4329  0.0083
   56MOL    O1913329   3.148   6.287   0.794  0.4339  0.1899 -0.2705
   56MOL    H2013330   3.355   6.140   0.844  1.1123  1.2442 -0.0845
   56MOL    H2113331   3.493   6.024   0.591  4.3581 -0.0357 -0.0001
   56MOL    H2213332   3.508   5.945   0.750 -1.6439  0.2631  1.5348
   56MOL    H2313333   3.584   6.093   0.710 -0.0296 -0.7914  2.5780
   56MOL    H2413334   3.330   6.196   0.546 -0.7123 -1.6265  0.6142
   56MOL    H2513335   3.426   6.295   0.653  0.8569 -1.0153  2.8223
   56MOL    O2613336   3.184   6.406   0.602 -0.0438 -0.2515 -0.0737
   56MOL    C2713337   3.061   6.474   0.603 -0.1124 -0.1258  0.3499
   56MOL    C2813338   3.082   6.617   0.642  0.5735 -0.6140  0.6092
   56MOL    C2913339   3.015   6.469   0.455  0.2653  0.4129 -0.3049
   56MOL    C3013340   2.867   6.490   0.438 -0.0108  0.1422 -0.1503
   56MOL    O3113341   2.787   6.472   0.531  0.6957  0.5894  0.4963
   56MOL    H3213342   2.989   6.426   0.669 -0.4312 -2.3954 -1.5622
   56MOL    H3313343   3.172   6.664   0.602  0.5352 -2.3824 -1.6979
   56MOL    H3413344   3.104   6.614   0.749 -0.4774 -1.7073  0.7993
   56MOL    H3513345   2.984   6.663   0.631  0.3740 -0.6480  2.1652
   56MOL    H3613346   3.052   6.378   0.407 -0.8220  0.4833 -1.2870
   56MOL    H3713347   3.076   6.538   0.398 -0.1634  0.8095 -0.2795
   56MOL    O3813348   2.824   6.522   0.308  0.4934 -0.3807  0.4363
   56MOL    C3913349   2.682   6.531   0.282 -0.1038  0.2701  0.1227
   56MOL    C4013350   2.627   6.657   0.354 -0.9795 -0.3320 -0.5068
   56MOL    C4113351   2.671   6.519   0.129  0.3060  0.8230 -0.1098
   56MOL    C4213352   2.530   6.500   0.071 -0.8073  0.3200 -0.2761
   56MOL    O4313353   2.449   6.412   0.103  0.4539 -0.1273  0.0051
   56MOL    H4413354   2.632   6.445   0.328 -2.2871  1.3924 -0.0548
   56MOL    H4513355   2.675   6.743   0.308 -1.0366 -0.1679 -0.2573
   56MOL    H4613356   2.655   6.666   0.459  0.3820  1.8088 -1.0294
   56MOL    H4713357   2.519   6.667   0.349 -0.8998 -0.4297 -2.7048
   56MOL    H4813358   2.721   6.423   0.121 -1.8636 -0.3867  0.5599
   56MOL    H4913359   2.720   6.602   0.078  2.5549  1.4410  2.8925
   56MOL    O5013360   2.526   6.580   7.943 -0.4720  0.3036 -0.4333
   56MOL    C5113361   2.452   6.557   7.822 -0.3541  0.3176  0.5185
   56MOL    C5213362   2.387   6.688   7.777 -0.5069 -0.1702  0.0988
   56MOL    C5313363   2.555   6.499   7.717 -0.2113  0.6756 -0.2273
   56MOL    C5413364   2.479   6.428   7.603  1.2160 -0.6098 -0.1137
   56MOL    O5513365   2.428   6.315   7.615  0.2175  0.0261 -0.1594
   56MOL    H5613366   2.384   6.474   7.842 -0.3524  0.3197  0.5329
   56MOL    H5713367   2.314   6.720   7.852  0.9203 -2.2154  2.4128
   56MOL    H5813368   2.324   6.671   7.689 -0.0557 -0.7865 -0.1109
   56MOL    H5913369   2.465   6.764   7.768 -0.1588 -0.5081  0.2683
   56MOL    H6013370   2.612   6.422   7.769  1.0582  1.6309 -0.1758
   56MOL    H6113371   2.622   6.574   7.676 -0.0479  1.0991  0.8091
   56MOL    O6213372   2.485   6.495   7.485 -0.1922 -0.5430 -0.5087
   56MOL    C6313373   2.437   6.433   7.368  0.0835  0.4180  1.0742
   56MOL    C6413374   2.327   6.526   7.311 -0.6467 -0.2476  0.6762
   56MOL    C6513375   2.551   6.414   7.261  0.3108  0.6110 -0.2511
   56MOL    C6613376   2.678   6.356   7.313  0.1587  0.2366  0.3679
   56MOL    O6713377   2.692   6.237   7.328  0.1587  0.4818  0.4334
   56MOL    H6813378   2.386   6.341   7.395  0.4397  0.6068  2.4455
   56MOL    H6913379   2.323   6.527   7.202 -3.4436 -2.6865  0.7073
   56MOL    H7013380   2.356   6.629   7.333 -1.7996  0.3361 -0.5203
   56MOL    H7113381   2.224   6.513   7.342 -0.5210 -1.5812  0.5613
   56MOL    H7213382   2.574   6.516   7.233  0.3411  0.0906 -2.1831
   56MOL    H7313383   2.526   6.356   7.172 -0.2835  1.0325 -0.3609
   56MOL    O7413384   2.771   6.446   7.332  0.1946  0.0307  0.2352
   56MOL    C7513385   2.894   6.412   7.392 -0.0704  0.1254 -0.6971
   56MOL    C7613386   2.989   6.412   7.271  0.5615 -0.9974 -0.0245
   56MOL    C7713387   2.923   6.500   7.514  0.5449 -0.0614 -0.9631
   56MOL    C7813388   3.017   6.430   7.612 -0.2202 -0.3546  0.1539
   56MOL    O7913389   2.978   6.379   7.719  0.7677  0.3890 -1.0595
   56MOL    H8013390   2.893   6.311   7.433 -0.8580 -0.1640 -1.4188
   56MOL    H8113391   3.096   6.406   7.293  0.2770 -1.2883  1.3353
   56MOL    H8213392   2.962   6.497   7.208  0.4645 -0.4436  0.7504
   56MOL    H8313393   2.981   6.323   7.208  0.7786  0.0111 -1.5114
   56MOL    H8413394   2.823   6.505   7.558  0.0648 -0.0526 -2.0587
   56MOL    H8513395   2.944   6.606   7.495 -0.6550  0.8215  2.2064
   56MOL    O8613396   3.153   6.442   7.577  0.1696  0.1782  0.7319
   56MOL    C8713397   3.256   6.385   7.656  0.5501  0.3618 -0.2182
   56MOL    C8813398   3.362   6.363   7.548  0.6843  0.4873 -0.4125
   56MOL    C8913399   3.309   6.475   7.770 -0.7337 -0.1302  0.1052
   56MOL    C9013400   3.403   6.394   7.862 -0.5264  0.3133 -0.7424
   56MOL    O9113401   3.509   6.453   7.894  0.2043  0.4163  0.4012
   56MOL    H9213402   3.214   6.288   7.683 -0.6010  1.7071  3.0181
   56MOL    H9313403   3.390   6.456   7.498 -1.9119  2.0926  1.0243
   56MOL    H9413404   3.340   6.295   7.465  1.8747 -0.2020 -0.1762
   56MOL    H9513405   3.455   6.328   7.592  0.7956  1.2560 -0.0353
   56MOL    H9613406   3.227   6.519   7.826  1.3699  0.0453  3.1731
   56MOL    H9713407   3.360   6.560   7.725 -0.6947 -0.9291 -1.3919
   56MOL    O9813408   3.362   6.262   7.891 -0.2970  0.8063 -0.4523
   56MOL    C9913409   3.455   6.182   7.956 -0.4556  0.9001  0.7602
   56MOL   C10013410   3.412   6.175   0.124 -0.5023 -0.0251  0.5204
   56MOL   C10113411   3.451   6.042   7.886 -0.2346  0.2733 -0.5566
   56MOL   C10213412   3.529   6.020   7.748  0.2712 -0.0215  0.1764
   56MOL   O10313413   3.572   6.117   7.682 -0.5685 -0.5079  0.3924
   56MOL   H10413414   3.559   6.215   7.948 -0.0420 -0.5540 -0.0418
   56MOL   H10513415   3.475   6.114   0.189 -1.0422  0.5631  1.6154
   56MOL   H10613416   3.310   6.140   0.133 -0.8465  0.9303  0.4285
   56MOL   H10713417   3.405   6.279   0.156  0.7475  0.0528  0.5659
   56MOL   H10813418   3.353   5.995   7.875  0.1207 -0.3425 -1.1331
   56MOL   H10913419   3.494   5.967   7.953 -0.2991 -1.5565 -2.5057
   56MOL   O11013420   3.541   5.890   7.721  0.4554 -0.0328  0.5947
   56MOL   C11113421   3.630   5.857   7.612  0.7620  0.2087 -0.0596
   56MOL   C11213422   3.759   5.792   7.666 -0.3760  0.0418 -0.1839
   56MOL   C11313423   3.561   5.774   7.510 -0.5400 -0.0853 -0.7572
   56MOL   C11413424   3.627   5.774   7.374  0.1734  0.0024 -0.5827
   56MOL   O11513425   3.717   5.694   7.342 -0.2561  0.5332 -0.0428
   56MOL   H11613426   3.660   5.949   7.562 -4.2425  2.2081  0.3185
   56MOL   H11713427   3.737   5.698   7.716  0.0410  0.7710  1.4008
   56MOL   H11813428   3.807   5.852   7.743 -1.1536  1.9182 -1.1255
   56MOL   H11913429   3.838   5.780   7.593 -0.0677 -1.1573  0.3423
   56MOL   H12013430   3.455   5.798   7.504 -0.6846 -0.6411 -0.3810
   56MOL   H12113431   3.563   5.670   7.540 -3.4519 -1.1613 -3.9168
   56MOL   O12213432   3.580   5.878   7.301 -0.1457  0.4574 -0.2284
   56MOL   C12313433   3.637   5.902   7.171 -0.1491 -0.1479 -0.2386
   56MOL   C12413434   3.534   5.973   7.083  0.4287  0.0236  0.7497
   56MOL   C12513435   3.771   5.980   7.177  0.0919  0.2677 -0.1643
   56MOL   C12613436   3.762   6.131   7.222 -0.0872 -0.0272 -0.3604
   56MOL   O12713437   3.796   6.167   7.336  0.3858  0.1899  0.0513
   56MOL   H12813438   3.668   5.808   7.124  1.5793  0.1026  0.3493
   56MOL   H12913439   3.573   6.003   6.985  0.0060 -1.2345  0.1758
   56MOL   H13013440   3.500   6.063   7.133 -0.7231  0.1029 -0.1476
   56MOL   H13113441   3.442   5.915   7.077 -0.8027  1.8049  2.1932
   56MOL   H13213442   3.810   5.986   7.075  1.7501 -1.6087  0.3185
   56MOL   H13313443   3.854   5.931   7.228 -0.5832  1.6929  2.3821
   56MOL   O13413444   3.713   6.212   7.127  0.7669  0.4525  0.2645
   56MOL   C13513445   3.694   6.351   7.139 -0.0574 -0.1307 -0.5616
   56MOL   C13613446   3.700   6.396   6.987  0.3262  0.0063 -0.3239
   56MOL   C13713447   3.564   6.381   7.213  0.3426 -0.3276 -0.6528
   56MOL   C13813448   3.505   6.526   7.197  0.1968  0.4182 -0.3500
   56MOL   O13913449   3.440   6.554   7.098  0.4881 -0.5096 -0.4877
   56MOL   H14013450   3.787   6.382   7.188 -0.6881  1.3170 -0.2690
   56MOL   H14113451   3.794   6.368   6.939  2.1232  1.2370  2.3348
   56MOL   H14213452   3.696   6.504   6.974  0.7516  0.0990  0.2666
   56MOL   H14313453   3.615   6.350   6.937 -0.7365  0.2949  1.1712
   56MOL   H14413454   3.591   6.380   7.319  0.4309  0.2929 -0.6691
   56MOL   H14513455   3.489   6.304   7.192  1.4868 -1.0102 -2.2697
   56MOL   O14613456   3.526   6.610   7.299 -0.6632 -0.8074 -0.3603
   56MOL   C14713457   3.471   6.738   7.307  0.3857 -0.1722 -0.7015
   56MOL   C14813458   3.349   6.731   7.406  0.5350  0.1826  0.0179
   56MOL   C14913459   3.575   6.846   7.352  0.4186  0.3796 -0.0646
   56MOL   C15013460   3.648   6.827   7.489  0.3546 -0.1919 -0.9597
   56MOL   O15113461   3.630   6.904   7.582 -0.2192 -0.1027  0.2984
   56MOL   H15213462   3.428   6.775   7.214 -0.5319  0.9822  0.1603
   56MOL   H15313463   3.380   6.703   7.507  1.0419  1.0565  0.1027
   56MOL   H15413464   3.281   6.657   7.364  0.8259  0.0619 -0.2442
   56MOL   H15513465   3.297   6.825   7.424 -3.3757 -1.8069 -0.3813
   56MOL   H15613466   3.527   6.943   7.361 -4.1772 -1.6735 -0.9904
   56MOL   H15713467   3.648   6.858   7.273 -0.4395  1.8540 -0.6429
   56MOL   O15813468   3.739   6.724   7.485  0.2584  0.3278 -0.3940
   56MOL   C15913469   3.806   6.674   7.600 -0.5333 -0.2609  0.3586
   56MOL   C16013470   3.723   6.559   7.665  0.3728 -0.4285 -0.5393
   56MOL   C16113471   3.940   6.618   7.566 -0.6818 -0.4754 -0.7533
   56MOL   C16213472   4.043   6.722   7.539 -0.2562 -0.1349  0.1650
   56MOL   O16313473   4.080   6.739   7.421  0.2909  0.3268 -0.2215
   56MOL   H16413474   3.807   6.754   7.674 -0.2185  0.0351  0.0303
   56MOL   H16513475   3.694   6.480   7.595 -1.1074  2.3415 -3.1776
   56MOL   H16613476   3.629   6.594   7.708  1.0701  0.2893  0.4005
   56MOL   H16713477   3.783   6.505   7.739  4.0707  3.5285 -0.4936
   56MOL   H16813478   3.930   6.549   7.482  0.0915 -2.7934  1.0229
   56MOL   H16913479   3.971   6.556   7.650  1.7575  0.8344 -0.6582
   56MOL   O17013480   4.081   6.797   7.644 -0.5150  0.2410 -0.7461
   56MOL   C17113481   4.160   6.916   7.621 -0.1735  0.6101  0.0521
   56MOL   C17213482   4.065   7.034   7.581  0.5187  0.1672  0.1744
   56MOL   C17313483   4.252   6.941   7.741 -0.0248  0.6181  0.6333
   56MOL   C17413484   4.346   7.057   7.725 -0.7621 -0.8005  0.2620
   56MOL   O17513485   4.349   7.145   7.811  0.4155  0.1649  0.6123
   56MOL   H17613486   4.229   6.890   7.540  0.5249 -0.4718  0.9872
   56MOL   H17713487   3.988   7.035   7.658 -0.6050  0.2404 -0.9463
   56MOL   H17813488   4.021   7.024   7.482 -2.1971 -0.6761  1.4271
   56MOL   H17913489   4.119   7.128   7.592 -0.0568  0.2823  2.2481
   56MOL   H18013490   4.314   6.852   7.755 -0.6520  0.3386  1.6951
   56MOL   H18113491   4.197   6.945   7.835 -1.2000  0.6014 -0.0502
   56MOL   O18213492   4.432   7.054   7.614  0.1003  0.1961 -0.5239
   56MOL   C18313493   4.520   7.162   7.580 -0.2861 -0.0914 -0.2195
   56MOL   C18413494   4.663   7.112   7.618  0.2484 -0.2981 -0.8286
   56MOL   C18513495   4.494   7.206   7.437  0.0510  0.7675 -0.1084
   56MOL   C18613496   4.373   7.297   7.434 -0.2173 -0.1403 -0.2068
   56MOL   O18713497   4.270   7.257   7.390  0.4782  0.2457 -0.3369
   56MOL   H18813498   4.504   7.249   7.645 -0.6263 -0.7238  0.5563
   56MOL   H18913499   4.691   7.028   7.555  2.8189 -0.1046 -0.0136
   56MOL   H19013500   4.666   7.076   7.721  0.1187  0.9775 -0.3723
   56MOL   H19113501   4.739   7.190   7.614 -0.6873  0.6222 -0.8080
   56MOL   H19213502   4.474   7.125   7.367  0.6633  1.7819 -1.4879
   56MOL   H19313503   4.583   7.260   7.402  1.6461  0.5475  3.3844
   56MOL   O19413504   4.398   7.418   7.492 -0.1166  1.1836  0.3147
   56MOL   C19513505   4.315   7.525   7.491 -0.0596  0.6096 -0.2895
   56MOL   C19613506   4.305   7.588   7.632  0.0071 -0.2092  0.0749
   56MOL   C19713507   4.386   7.620   7.389  0.0505  0.6367  0.1456
   56MOL   C19813508   4.286   7.728   7.338 -0.4739  0.1211  0.0040
   56MOL   O19913509   4.286   7.844   7.375  0.3849 -1.0378  0.0724
   56MOL   H20013510   4.217   7.492   7.458  0.0819 -1.4581  1.2942
   56MOL   H20113511   4.399   7.632   7.666  0.3594 -1.1525  0.3506
   56MOL   H20213512   4.258   7.512   7.694 -0.1400  0.4434  0.7692
   56MOL   H20313513   4.239   7.673   7.644  0.7428  0.5994 -1.4166
   56MOL   H20413514   4.414   7.562   7.301  0.0139  1.1564 -0.2062
   56MOL   H20513515   4.473   7.666   7.437 -0.6090  0.6088  1.3784
   56MOL   O20613516   4.188   7.666   7.266  0.3162 -0.5069  0.5574
   56MOL   C20713517   4.079   7.741   7.199  0.1319 -0.4795 -0.2822
   56MOL   C20813518   4.093   7.718   7.050 -0.3748 -0.3365  0.6309
   56MOL   C20913519   3.942   7.688   7.244  0.1249  0.0210  0.4855
   56MOL   C21013520   3.926   7.705   7.393 -0.3403  0.3075  0.6764
   56MOL   O21113521   3.936   7.611   7.469 -0.2576  0.3712 -0.2962
   56MOL   H21213522   4.070   7.846   7.225 -0.2294 -0.6598  0.3387
   56MOL   H21313523   4.182   7.750   6.997 -0.3732 -2.1579 -0.5004
   56MOL   H21413524   4.003   7.753   6.999  0.4493  4.0716  1.9577
   56MOL   H21513525   4.105   7.610   7.043  2.9413 -0.0174  0.7121
   56MOL   H21613526   3.913   7.587   7.215 -1.9606  0.6036  0.4524
   56MOL   H21713527   3.867   7.755   7.203 -0.5851 -1.3286 -0.4735
   56MOL   O21813528   3.911   7.830   7.427 -0.1972  0.2007 -0.5297
   56MOL   C21913529   3.904   7.885   7.564 -0.9269 -0.2422 -0.1775
   56MOL   C22013530   3.999   0.028   7.558 -0.1700 -0.2669  0.4166
   56MOL   C22113531   3.756   7.911   7.598 -0.3508  0.6090  0.4991
   56MOL   C22213532   3.749   7.970   7.742 -0.3265  0.4519  0.7149
   56MOL   O22313533   3.810   7.916   7.829  0.2412  0.1967 -0.6075
   56MOL   H22413534   3.944   7.811   7.634  0.4222  0.6123 -0.0504
   56MOL   H22513535   4.096   7.978   7.520 -1.0992 -3.2707  0.2741
   56MOL   H22613536   4.017   0.072   7.656  0.1807  3.2847 -1.1439
   56MOL   H22713537   3.970   0.109   7.491  0.1159 -0.4605  0.0569
   56MOL   H22813538   3.691   7.827   7.575 -1.1195  2.2294 -3.7789
   56MOL   H22913539   3.729   0.015   7.533 -0.4822  1.3949  1.5599
   56MOL   O23013540   3.668   0.099   7.742  0.2978 -0.4555  0.2813
   56MOL   C23113541   3.642   0.176   7.860 -0.3944 -0.3253 -0.0387
   56MOL   C23213542   3.597   0.309   7.794 -0.0777 -0.3621 -0.4480
   56MOL   C23313543   3.523   0.122   7.943 -0.2797  0.7828 -0.0738
   56MOL   C23413544   3.556   0.007   0.049  0.0779 -0.0386 -0.0689
   56MOL   O23513545   3.577   0.014   0.168 -0.7063 -0.2963 -0.1304
   56MOL   H23613546   3.741   0.184   7.904 -0.4611 -1.1055  0.2712
   56MOL   H23713547   3.536   0.295   7.705 -1.4283 -0.8205  0.5335
   56MOL   H23813548   3.690   0.361   7.771 -0.1036  0.2622  0.8150
   56MOL   H23913549   3.530   0.367   7.858 -1.3815 -1.1367 -1.1048
   56MOL   H24013550   3.424   0.115   7.899  0.3911  3.2567 -2.1069
   56MOL   H24113551   3.491   0.198   0.035  0.1130  0.3303  0.5873
   56MOL   H24213552   3.558   7.894   7.971  2.2734  0.2589 -0.5264
   57MOL     O113553   0.174   1.988   5.164  0.4437  1.0753 -0.6261
   57MOL     C213554   0.147   1.893   5.265 -0.6607  0.3247 -0.5455
   57MOL     C313555   0.114   1.752   5.201 -0.3194 -0.2153 -1.2456
   57MOL     C413556   0.261   1.890   5.375  0.1874 -0.4380  0.1624
   57MOL     C513557   0.217   1.822   5.503 -0.8252  0.4145 -0.0594
   57MOL     O613558   0.099   1.779   5.523  0.2133  0.5305  0.7663
   57MOL     H713559   0.056   1.923   5.316 -1.0386 -0.3704 -0.8078
   57MOL     H813560   0.095   1.672   5.272  0.7826  0.3074 -0.3570
   57MOL     H913561   0.197   1.707   5.146 -1.1127  0.4916 -3.0604
   57MOL    H1013562   0.034   1.765   5.128 -1.7745  0.8255  0.4909
   57MOL    H1113563   0.296   1.981   5.424  0.1213 -1.4827  2.2061
   57MOL    H1213564   0.349   1.836   5.340  0.1973  0.2923 -0.9538
   57MOL    H1313565   0.191   2.072   5.204  0.8381  1.1971 -1.0525
   57MOL    O1413566   0.311   1.818   5.597 -0.0497  0.0100 -0.9425
   57MOL    C1513567   0.283   1.795   5.730  0.7033 -0.1167 -0.8757
   57MOL    C1613568   0.324   1.646   5.741 -0.0135  0.7899 -0.2342
   57MOL    C1713569   0.360   1.895   5.824  0.5206  0.2159 -0.0965
   57MOL    C1813570   0.328   2.037   5.799  0.8066  0.0091 -0.1772
   57MOL    O1913571   0.412   2.120   5.770  0.2703 -0.1569 -0.1436
   57MOL    H2013572   0.175   1.808   5.737  0.6530  0.1141 -1.9953
   57MOL    H2113573   0.313   1.580   5.654 -0.2144 -0.8532  1.0156
   57MOL    H2213574   0.298   1.591   5.831  0.1571 -0.1154 -0.7209
   57MOL    H2313575   0.433   1.647   5.740 -0.0153  2.3474  0.1843
   57MOL    H2413576   0.468   1.883   5.822  0.9593  3.6957 -1.0762
   57MOL    H2513577   0.315   1.874   5.921 -0.3953 -1.3808 -0.8501
   57MOL    O2613578   0.192   2.056   5.807  0.3077 -0.4853  0.1863
   57MOL    C2713579   0.138   2.192   5.811  0.2382  0.2945 -0.8790
   57MOL    C2813580   0.069   2.223   5.684  0.5784  0.4999 -0.6900
   57MOL    C2913581   0.048   2.178   5.934 -0.3982 -0.4077 -0.2640
   57MOL    C3013582   0.119   2.215   6.064  0.7470  0.0642 -0.3347
   57MOL    O3113583   0.094   2.322   6.124  0.1623  0.0691  0.4178
   57MOL    H3213584   0.210   2.272   5.826 -0.2768  0.7276 -0.6649
   57MOL    H3313585   0.047   2.328   5.666  0.6175  0.5020 -0.7256
   57MOL    H3413586   7.953   2.171   5.680 -0.6940  2.5252  2.1908
   57MOL    H3513587   0.131   2.203   5.596  1.2594  2.0544 -0.5806
   57MOL    H3613588   0.004   2.079   5.945 -0.1420 -0.3345  1.4634
   57MOL    H3713589   7.946   2.249   5.920 -0.3903  0.0030  1.6355
   57MOL    O3813590   0.209   2.113   6.105  0.3392  0.0168  0.2256
   57MOL    C3913591   0.265   2.118   6.237  0.3070 -0.4225 -0.0514
   57MOL    C4013592   0.162   2.065   6.343 -0.5927 -0.9847  0.4409
   57MOL    C4113593   0.401   2.044   6.244  0.5518 -0.2549 -0.0067
   57MOL    C4213594   0.508   2.106   6.149  0.1516 -0.3523  0.3572
   57MOL    O4313595   0.586   2.037   6.086 -0.1388  0.1856 -0.4436
   57MOL    H4413596   0.284   2.223   6.257 -0.4911  0.9366 -5.4823
   57MOL    H4513597   0.067   2.118   6.343  0.1018  0.2882  1.8605
   57MOL    H4613598   0.206   2.078   6.442  1.8908  0.0296 -0.7438
   57MOL    H4713599   0.141   1.958   6.337  0.6362 -1.1082 -2.3614
   57MOL    H4813600   0.394   1.937   6.226  0.7381 -0.4145  0.8375
   57MOL    H4913601   0.430   2.045   6.349  1.7138  1.7351 -0.3335
   57MOL    O5013602   0.503   2.241   6.143  0.5751  0.1789 -0.0020
   57MOL    C5113603   0.578   2.322   6.046 -0.1116 -0.1397  0.0771
   57MOL    C5213604   0.498   2.433   5.980 -0.5945 -0.1660 -0.7627
   57MOL    C5313605   0.711   2.373   6.113 -0.1434 -0.1999  0.4065
   57MOL    C5413606   0.694   2.454   6.247  0.5296  0.5092  0.0535
   57MOL    O5513607   0.693   2.390   6.352 -0.0287 -0.0204 -0.0993
   57MOL    H5613608   0.601   2.252   5.966 -0.6057  2.5033 -2.4741
   57MOL    H5713609   0.557   2.467   5.895 -0.1110 -1.5425 -0.9872
   57MOL    H5813610   0.480   2.515   6.050 -0.8094 -1.7119  1.0372
   57MOL    H5913611   0.395   2.409   5.952 -1.4499  1.6905  0.6804
   57MOL    H6013612   0.776   2.425   6.042 -1.7578  1.0887 -0.1676
   57MOL    H6113613   0.757   2.280   6.145 -1.5359 -1.3200 -0.7703
   57MOL    O6213614   0.682   2.589   6.239 -0.4645 -0.5456  0.0749
   57MOL    C6313615   0.651   2.668   6.356  0.3675  0.3927 -0.3543
   57MOL    C6413616   0.782   2.702   6.434  0.8467  0.0477  0.3140
   57MOL    C6513617   0.576   2.790   6.306 -0.3157  0.1848  0.1112
   57MOL    C6613618   0.648   2.879   6.200  0.2928 -0.7942  0.0257
   57MOL    O6713619   0.692   2.990   6.224 -0.2231  0.4420 -0.2213
   57MOL    H6813620   0.583   2.617   6.425  0.9241 -0.1095 -0.1711
   57MOL    H6913621   0.771   2.788   6.500  2.6240 -0.0519  0.7750
   57MOL    H7013622   0.857   2.725   6.358  0.0514  1.4139 -0.0700
   57MOL    H7113623   0.802   2.617   6.500 -0.2425 -0.9043 -0.5699
   57MOL    H7213624   0.536   2.842   6.393 -0.2970  0.5616 -0.1031
   57MOL    H7313625   0.489   2.770   6.243 -0.1468  1.6894 -0.6088
   57MOL    O7413626   0.636   2.826   6.077 -1.3852 -0.0685 -0.0404
   57MOL    C7513627   0.678   2.888   5.955  0.5452 -0.2635 -0.2344
   57MOL    C7613628   0.746   2.778   5.865  0.5205  0.0022  0.3805
   57MOL    C7713629   0.555   2.938   5.874  1.0139  1.0391  0.7360
   57MOL    C7813630   0.522   3.080   5.917  0.7100 -0.4947  0.0535
   57MOL    O7913631   0.403   3.118   5.948 -0.6916  0.1106 -0.0411
   57MOL    H8013632   0.751   2.965   5.981 -1.5369  2.0304 -0.9448
   57MOL    H8113633   0.673   2.706   5.828  0.2397  1.0508 -1.1168
   57MOL    H8213634   0.828   2.728   5.915  1.2366  0.9520  0.1778
   57MOL    H8313635   0.781   2.836   5.780 -2.2977  0.6273 -0.4303
   57MOL    H8413636   0.463   2.882   5.888  0.7596  1.1087 -0.6096
   57MOL    H8513637   0.577   2.942   5.767  2.4525  2.3531  1.0637
   57MOL    O8613638   0.627   3.160   5.928  0.3061 -0.3746  0.5339
   57MOL    C8713639   0.611   3.292   5.977 -0.3642 -0.2672  0.6759
   57MOL    C8813640   0.719   3.302   6.085  0.3410  0.5996 -0.5500
   57MOL    C8913641   0.619   3.401   5.865 -0.1517 -0.4887  0.0910
   57MOL    C9013642   0.744   3.392   5.777 -0.0724  0.1905 -0.3094
   57MOL    O9113643   0.837   3.470   5.793 -0.5243  0.0998  0.3311
   57MOL    H9213644   0.511   3.299   6.020 -0.8039  0.1377 -0.3938
   57MOL    H9313645   0.700   3.384   6.155 -1.9569 -0.2524 -0.1296
   57MOL    H9413646   0.813   3.314   6.030 -0.2067 -1.9172 -2.0979
   57MOL    H9513647   0.722   3.215   6.151 -0.6462  3.1215  3.0047
   57MOL    H9613648   0.619   3.505   5.897  1.4740 -0.6421  0.6201
   57MOL    H9713649   0.531   3.387   5.801  0.1301  1.9357 -0.8583
   57MOL    O9813650   0.746   3.281   5.695 -0.0604 -0.2731  0.1816
   57MOL    C9913651   0.869   3.245   5.623  0.0765  0.3150  0.0593
   57MOL   C10013652   0.898   3.097   5.662 -0.1794 -0.4082 -0.1907
   57MOL   C10113653   0.879   3.278   5.466 -0.0660 -0.3611  0.0736
   57MOL   C10213654   0.792   3.181   5.381 -0.6645  0.5378 -0.3215
   57MOL   O10313655   0.676   3.204   5.350  0.3706  0.2597 -0.6546
   57MOL   H10413656   0.953   3.293   5.672  0.5743 -0.5026  0.0019
   57MOL   H10513657   0.815   3.031   5.638 -1.2637  0.4630  1.1208
   57MOL   H10613658   0.911   3.074   5.768 -1.1831 -3.2884 -0.6369
   57MOL   H10713659   0.988   3.057   5.615  1.0334  1.5792  0.3838
   57MOL   H10813660   0.984   3.271   5.436  0.9517  1.5856  2.9220
   57MOL   H10913661   0.853   3.382   5.452 -0.2956 -0.4245  0.0372
   57MOL   O11013662   0.859   3.074   5.325 -0.0530  0.0749  0.3052
   57MOL   C11113663   0.799   2.984   5.234  0.1664  0.7992  0.2510
   57MOL   C11213664   0.887   2.977   5.115 -0.4543 -0.1996  0.0469
   57MOL   C11313665   0.784   2.851   5.314 -0.5010  0.4529  0.1164
   57MOL   C11413666   0.652   2.856   5.397  0.2235  0.1244 -0.1503
   57MOL   O11513667   0.649   2.840   5.515  0.4453 -0.0860 -0.1181
   57MOL   H11613668   0.702   3.015   5.195 -2.0514 -1.7471  3.4300
   57MOL   H11713669   0.902   3.071   5.063 -0.5292  0.2860  0.9019
   57MOL   H11813670   0.845   2.909   5.040  0.0058 -0.7270  0.2674
   57MOL   H11913671   0.981   2.928   5.140 -1.5556 -1.5976  1.5822
   57MOL   H12013672   0.870   2.843   5.380 -0.8063  1.7780  0.6909
   57MOL   H12113673   0.786   2.760   5.253  1.9138 -0.8494  2.0617
   57MOL   O12213674   0.548   2.897   5.325 -0.6106  0.0704  0.5695
   57MOL   C12313675   0.416   2.908   5.385  0.1447  0.9521  0.1138
   57MOL   C12413676   0.391   3.049   5.440  1.0313 -0.4548 -0.5268
   57MOL   C12513677   0.322   2.861   5.270  0.4065 -0.6521  0.3988
   57MOL   C12613678   0.310   2.965   5.153  0.5325 -0.2553 -0.2012
   57MOL   O12713679   0.207   3.037   5.133 -0.4506  0.2546 -0.1352
   57MOL   H12813680   0.401   2.836   5.466  0.4594  0.6326 -0.1088
   57MOL   H12913681   0.410   3.127   5.366 -1.0056 -1.1197 -1.7932
   57MOL   H13013682   0.459   3.064   5.524  2.0467 -0.8310 -1.2726
   57MOL   H13113683   0.287   3.058   5.471  1.2114 -0.9414  0.2253
   57MOL   H13213684   0.224   2.848   5.316  0.1503 -0.2394 -0.0274
   57MOL   H13313685   0.352   2.764   5.229  3.3639 -0.2715  1.5075
   57MOL   O13413686   0.416   2.962   5.072 -0.9548  0.1712 -0.5007
   57MOL   C13513687   0.423   3.038   4.955 -0.3159  0.1943 -0.3648
   57MOL   C13613688   0.449   3.178   5.010  0.2078 -0.4934 -0.1676
   57MOL   C13713689   0.536   2.982   4.859  0.0051  0.2572  0.4458
   57MOL   C13813690   0.514   2.835   4.825  0.0296  0.8786  0.3635
   57MOL   O13913691   0.502   2.798   4.709  0.0091  0.7798 -0.1629
   57MOL   H14013692   0.329   3.036   4.899 -0.5783 -0.3431  0.1002
   57MOL   H14113693   0.539   3.171   5.071  0.2839 -0.5793 -0.2868
   57MOL   H14213694   0.363   3.219   5.061  0.9800  3.1028 -1.6176
   57MOL   H14313695   0.464   3.238   4.920  0.9742 -0.9078 -0.3262
   57MOL   H14413696   0.634   3.010   4.899  0.2384 -0.2704  0.2556
   57MOL   H14513697   0.539   3.047   4.772 -1.0876  0.3412  0.4663
   57MOL   O14613698   0.533   2.752   4.933  0.5523 -0.4073  0.0618
   57MOL   C14713699   0.552   2.613   4.912  0.2390 -0.0565  0.7999
   57MOL   C14813700   0.694   2.566   4.942 -0.4635  0.6115  0.4451
   57MOL   C14913701   0.459   2.527   5.003  0.0044  1.3455  0.7459
   57MOL   C15013702   0.319   2.507   4.941  0.7992 -0.6711 -0.3573
   57MOL   O15113703   0.275   2.395   4.913  0.2661 -0.3250  0.1366
   57MOL   H15213704   0.536   2.584   4.808  0.7438 -1.0799  0.9975
   57MOL   H15313705   0.707   2.460   4.922  2.5974  1.1481 -0.6752
   57MOL   H15413706   0.710   2.600   5.044 -1.8779 -0.2023  0.9534
   57MOL   H15513707   0.765   2.621   4.880 -0.5982  1.9455  1.4454
   57MOL   H15613708   0.450   2.567   5.104 -0.4038  0.5683  1.0211
   57MOL   H15713709   0.505   2.429   5.016  0.1905  1.4543  0.9190
   57MOL   O15813710   0.257   2.622   4.922 -0.2042 -0.2009  0.0167
   57MOL   C15913711   0.131   2.638   4.856  0.0293  0.7059 -0.0155
   57MOL   C16013712   0.061   2.746   4.932 -0.4000 -0.1895 -0.2759
   57MOL   C16113713   0.155   2.673   4.708  0.2102  0.3756 -0.3239
   57MOL   C16213714   0.191   2.561   4.620  0.4305 -0.6192 -0.4935
   57MOL   O16313715   0.242   2.585   4.510 -0.2067  0.2663 -0.2271
   57MOL   H16413716   0.063   2.553   4.864  1.3388 -0.3365  0.1922
   57MOL   H16513717   7.952   2.783   4.881 -0.1056  0.2319 -0.4888
   57MOL   H16613718   0.121   2.833   4.960  0.7190 -1.2652  0.7344
   57MOL   H16713719   0.024   2.695   5.020 -0.5582 -1.1534 -0.8906
   57MOL   H16813720   0.218   2.759   4.684 -1.7824  1.4362 -1.8877
   57MOL   H16913721   0.054   2.700   4.679 -0.0597  0.6695  0.8513
   57MOL   O17013722   0.146   2.441   4.657  0.4699 -0.7241  0.3180
   57MOL   C17113723   0.157   2.332   4.566 -0.6053 -0.3325  0.3268
   57MOL   C17213724   0.263   2.229   4.617  0.2810  0.4632  0.5963
   57MOL   C17313725   0.018   2.280   4.535 -0.7003  0.5631 -0.1192
   57MOL   C17413726   7.923   2.354   4.429 -0.2811  0.2208 -0.4974
   57MOL   O17513727   7.877   2.302   4.327 -0.1456 -0.0558  0.4136
   57MOL   H17613728   0.196   2.360   4.468 -2.3269  0.3336 -0.1932
   57MOL   H17713729   0.366   2.262   4.629  0.8418 -0.9318 -0.2816
   57MOL   H17813730   0.266   2.151   4.542 -0.5454  0.1196  0.9105
   57MOL   H17913731   0.232   2.184   4.712 -1.6303 -1.3448 -0.8461
   57MOL   H18013732   7.931   2.281   4.622 -0.1920 -1.7582  0.3293
   57MOL   H18113733   0.028   2.178   4.497  0.2838  0.2974  0.8395
   57MOL   O18213734   7.916   2.481   4.454 -0.5151 -0.2248  0.3190
   57MOL   C18313735   7.837   2.569   4.376  0.3352 -0.2296  0.0273
   57MOL   C18413736   7.728   2.617   4.475  0.2331  0.4301 -0.2466
   57MOL   C18513737   7.922   2.686   4.333 -0.7895  0.5772 -0.2516
   57MOL   C18613738   0.036   2.651   4.216 -0.3715 -0.5064  0.3815
   57MOL   O18713739   0.024   2.547   4.152 -0.3559  0.3754 -0.2928
   57MOL   H18813740   7.787   2.517   4.293  1.8017  0.6254 -1.4135
   57MOL   H18913741   7.647   2.681   4.441  0.3931  1.5435  1.4098
   57MOL   H19013742   7.766   2.669   4.563  0.0756  1.2571 -0.6597
   57MOL   H19113743   7.677   2.529   4.514 -1.7137  0.6200 -2.2999
   57MOL   H19213744   0.003   2.720   4.417 -0.8092  0.4755 -0.1970
   57MOL   H19313745   7.853   2.768   4.309 -0.7314 -0.1317 -3.0484
   57MOL   O19413746   0.143   2.735   4.227  0.2787 -0.1111 -0.5560
   57MOL   C19513747   0.258   2.721   4.150  0.2058 -0.5227 -0.3084
   57MOL   C19613748   0.269   2.825   4.036 -0.7487 -0.2709  0.6123
   57MOL   C19713749   0.384   2.698   4.243  0.0516 -0.1591 -0.6929
   57MOL   C19813750   0.433   2.823   4.317 -0.2475 -0.3540  0.5388
   57MOL   O19913751   0.557   2.840   4.332  0.3273 -0.1936 -0.5965
   57MOL   H20013752   0.241   2.626   4.100 -0.3483 -0.5489 -0.0688
   57MOL   H20113753   0.177   2.819   3.977  0.1655 -5.0042 -0.5930
   57MOL   H20213754   0.347   2.803   3.963 -2.2389 -0.6804 -0.9116
   57MOL   H20313755   0.273   2.932   4.055 -0.7027 -0.2110  0.2641
   57MOL   H20413756   0.456   2.652   4.176  0.1984 -1.7684  0.5606
   57MOL   H20513757   0.355   2.614   4.306 -0.0052  0.3393 -0.0478
   57MOL   O20613758   0.337   2.900   4.360  0.6236 -0.0889 -0.1443
   57MOL   C20713759   0.363   3.022   4.437  0.1383  0.4226  0.1787
   57MOL   C20813760   0.388   3.143   4.350 -0.5109  0.4768 -0.3686
   57MOL   C20913761   0.242   3.051   4.525  0.0070  0.8106  0.2103
   57MOL   C21013762   0.249   3.170   4.619  0.5674  0.4230  0.0230
   57MOL   O21113763   0.325   3.177   4.714 -0.1479  0.3032  0.5422
   57MOL   H21213764   0.449   3.006   4.501 -0.0380 -2.4363 -0.2410
   57MOL   H21313765   0.480   3.129   4.294  0.4419  0.6010  1.1184
   57MOL   H21413766   0.408   3.236   4.403 -0.2536  0.4957 -0.5013
   57MOL   H21513767   0.303   3.144   4.282 -0.9296 -0.6136  0.1230
   57MOL   H21613768   0.219   2.966   4.589 -0.6287  0.3892 -0.5654
   57MOL   H21713769   0.152   3.061   4.465  0.3996  0.4487 -0.4397
   57MOL   O21813770   0.166   3.266   4.586 -0.6224  0.2809 -0.1887
   57MOL   C21913771   0.169   3.392   4.650 -0.8852 -0.8104  0.5414
   57MOL   C22013772   0.225   3.493   4.547 -0.0229 -0.0267  0.0369
   57MOL   C22113773   0.037   3.442   4.716  0.3680 -0.0842  0.2375
   57MOL   C22213774   7.905   3.460   4.619  0.5661 -0.1535  0.7479
   57MOL   O22313775   7.804   3.390   4.626  0.2705 -0.2713  0.5962
   57MOL   H22413776   0.240   3.397   4.733 -1.3860  2.4553  0.8186
   57MOL   H22513777   0.179   3.473   4.450  1.8567 -0.7383 -0.7235
   57MOL   H22613778   0.331   3.468   4.538 -0.1381 -0.4741 -0.0570
   57MOL   H22713779   0.209   3.595   4.582 -1.4487 -0.7321  1.4977
   57MOL   H22813780   0.036   3.538   4.768 -1.2162  0.5293 -0.8845
   57MOL   H22913781   0.021   3.362   4.790 -0.6840  0.5801  0.7473
   57MOL   O23013782   7.920   3.565   4.528 -0.0704 -0.4357  0.4218
   57MOL   C23113783   7.812   3.615   4.451 -0.1194  0.2544  0.1963
   57MOL   C23213784   7.748   3.722   4.546  0.5626 -0.4970 -0.6057
   57MOL   C23313785   7.853   3.676   4.317  0.1191  0.0284  0.5420
   57MOL   C23413786   7.738   3.740   4.232  0.2077 -0.2167 -0.2614
   57MOL   O23513787   7.769   3.757   4.111  0.0772  0.5825 -0.1199
   57MOL   H23613788   7.742   3.532   4.440  1.1554 -0.7336 -0.6097
   57MOL   H23713789   7.820   3.795   4.584  1.3567  0.3121 -3.5172
   57MOL   H23813790   7.700   3.679   4.633 -1.0843 -0.0589 -1.2858
   57MOL   H23913791   7.672   3.777   4.491  0.5992 -0.6974 -0.8614
   57MOL   H24013792   7.894   3.587   4.268 -0.5615 -0.1421  0.2658
   57MOL   H24113793   7.939   3.742   4.327  1.3639 -1.7529  1.9347
   57MOL   H24213794   7.646   3.769   4.283 -0.3508 -4.4614  1.3979
   58MOL     O113795   5.862   1.156   1.502 -0.6069  0.5492  0.3701
   58MOL     C213796   5.998   1.105   1.498  0.6587 -0.1206  0.5071
   58MOL     C313797   5.971   0.961   1.468  1.0016  0.4233  0.1937
   58MOL     C413798   6.054   1.193   1.388  0.1748 -0.1531 -0.2520
   58MOL     C513799   6.207   1.180   1.361 -0.5501 -0.0929  0.0634
   58MOL     O613800   6.297   1.247   1.414  0.0415  0.4695 -0.0797
   58MOL     H713801   6.055   1.110   1.590 -0.5708  2.4551  1.1942
   58MOL     H813802   5.911   0.916   1.547 -0.8246  1.0956 -0.7911
   58MOL     H913803   6.067   0.909   1.455  1.8803  2.1423 -0.2907
   58MOL    H1013804   5.917   0.939   1.376  1.5513 -0.4139  0.0646
   58MOL    H1113805   6.035   1.297   1.413 -2.8996 -0.8835  0.6014
   58MOL    H1213806   5.999   1.173   1.296  1.0927 -0.1351 -0.8141
   58MOL    H1313807   5.841   1.169   1.594 -0.1711  1.6518  0.3207
   58MOL    O1413808   6.225   1.074   1.273  0.3922  0.2798  0.1788
   58MOL    C1513809   6.348   1.022   1.247  0.0280 -0.4075  0.2042
   58MOL    C1613810   6.344   0.873   1.265  0.2481 -0.0388  0.0271
   58MOL    C1713811   6.400   1.066   1.110 -0.1221  0.1541 -0.0231
   58MOL    C1813812   6.301   1.023   0.998 -0.3501 -0.4132 -0.0056
   58MOL    O1913813   6.329   0.942   0.911  0.0811 -0.3675 -0.0197
   58MOL    H2013814   6.420   1.069   1.313  1.0009 -0.2559 -0.9430
   58MOL    H2113815   6.269   0.845   1.339  0.3135  0.4256  0.2689
   58MOL    H2213816   6.449   0.845   1.274  0.4684  0.4329 -0.9990
   58MOL    H2313817   6.305   0.817   1.180  0.2986  0.3911 -0.2777
   58MOL    H2413818   6.497   1.019   1.092  0.0463  0.8574 -0.9870
   58MOL    H2513819   6.404   1.175   1.107 -1.4194  0.1705 -1.4430
   58MOL    O2613820   6.188   1.092   0.997  0.4390 -0.8071  0.3600
   58MOL    C2713821   6.085   1.058   0.903  0.1019  0.3718  0.1282
   58MOL    C2813822   5.957   1.061   0.977 -0.6447 -0.1718  0.2115
   58MOL    C2913823   6.086   1.161   0.792  0.3801  0.0185 -0.1084
   58MOL    C3013824   6.066   1.110   0.654  0.8005 -0.8444  0.8312
   58MOL    O3113825   5.945   1.092   0.618  0.1336  0.4693 -0.0445
   58MOL    H3213826   6.100   0.957   0.863  0.5533  0.4601  0.0756
   58MOL    H3313827   5.876   1.032   0.910  0.6481  2.4994 -2.6067
   58MOL    H3413828   5.925   1.156   1.021 -0.9675 -0.9178  1.6353
   58MOL    H3513829   5.946   0.976   1.045 -2.6941 -0.3291 -0.2826
   58MOL    H3613830   6.183   1.210   0.781 -0.1011  0.4907 -2.7368
   58MOL    H3713831   6.022   1.246   0.815  2.2596  1.0138  1.5816
   58MOL    O3813832   6.175   1.101   0.573 -0.4250  0.0189  0.5714
   58MOL    C3913833   6.186   1.021   0.453  0.1452  0.2288 -0.2599
   58MOL    C4013834   6.212   1.108   0.323 -0.3944  0.3871 -0.2006
   58MOL    C4113835   6.273   0.901   0.481  0.3508 -0.2146 -0.8893
   58MOL    C4213836   6.425   0.919   0.486 -0.6692 -0.5066 -0.0390
   58MOL    O4313837   6.497   0.847   0.420 -0.2158  0.1190 -0.0464
   58MOL    H4413838   6.088   0.975   0.448  0.3950 -0.4307  0.8942
   58MOL    H4513839   6.146   1.195   0.325  0.0873  0.7598 -0.3522
   58MOL    H4613840   6.190   1.050   0.233 -1.3482 -1.0926  0.9675
   58MOL    H4713841   6.310   1.154   0.315  0.6083 -1.6856 -0.1029
   58MOL    H4813842   6.265   0.840   0.391 -1.6779  1.0450 -1.5763
   58MOL    H4913843   6.249   0.836   0.565  3.2638 -0.1101  0.0961
   58MOL    O5013844   6.466   1.016   0.570 -0.4727  0.4207  0.0594
   58MOL    C5113845   6.604   1.045   0.586  0.2936 -0.2684  0.2633
   58MOL    C5213846   6.637   1.181   0.529 -0.0803 -0.0326  0.1889
   58MOL    C5313847   6.649   1.042   0.739  0.8640  0.5357 -0.1813
   58MOL    C5413848   6.804   1.024   0.762 -0.2798  0.7907 -0.4687
   58MOL    O5513849   6.890   1.115   0.747 -0.6559  0.2908 -0.4414
   58MOL    H5613850   6.672   0.973   0.542  0.5290 -0.6534  1.2392
   58MOL    H5713851   6.744   1.191   0.543 -0.2530 -0.4474  1.8954
   58MOL    H5813852   6.580   1.268   0.563  0.9332  0.5549  0.3931
   58MOL    H5913853   6.605   1.164   0.426 -0.1551  2.2303 -0.1971
   58MOL    H6013854   6.581   0.979   0.796 -0.7465  0.0704 -2.5678
   58MOL    H6113855   6.618   1.135   0.787  1.6299 -0.1740  1.7689
   58MOL    O6213856   6.829   0.893   0.791 -0.6861  0.4791  0.1142
   58MOL    C6313857   6.953   0.828   0.758 -0.2026  0.3050 -0.1508
   58MOL    C6413858   7.024   0.784   0.886  0.0696 -0.7617 -0.4961
   58MOL    C6513859   6.932   0.708   0.659 -0.2131 -0.3675  0.3237
   58MOL    C6613860   7.059   0.656   0.602 -0.3735  0.7341 -0.1407
   58MOL    O6713861   7.099   0.542   0.622 -0.1071  0.3829  0.1658
   58MOL    H6813862   7.012   0.904   0.706  0.4245  1.8356  2.6986
   58MOL    H6913863   6.968   0.702   0.932 -1.9915  0.9375  0.0755
   58MOL    H7013864   7.021   0.873   0.948  0.4385  0.8222 -2.6874
   58MOL    H7113865   7.128   0.755   0.872 -0.4759 -3.6390  0.9503
   58MOL    H7213866   6.878   0.748   0.573 -0.0911 -1.1797 -0.1356
   58MOL    H7313867   6.867   0.630   0.697  0.1664  0.6966  3.2740
   58MOL    O7413868   7.130   0.736   0.519 -0.1229  0.6399  0.0091
   58MOL    C7513869   7.248   0.685   0.458  0.9328  0.3963  0.2588
   58MOL    C7613870   7.224   0.636   0.314 -0.1515 -0.7213  0.1482
   58MOL    C7713871   7.356   0.792   0.477  0.2222 -0.0962 -0.3165
   58MOL    C7813872   7.407   0.799   0.618  0.1039 -0.3286 -0.2389
   58MOL    O7913873   7.336   0.779   0.717 -0.1432 -0.1927  0.5300
   58MOL    H8013874   7.283   0.592   0.504  1.3288 -0.1405 -1.0957
   58MOL    H8113875   7.146   0.560   0.310 -0.0823 -0.7986  0.2714
   58MOL    H8213876   7.317   0.583   0.293 -0.1748  0.0750 -2.0858
   58MOL    H8313877   7.217   0.714   0.238 -1.8772 -0.1437  0.8720
   58MOL    H8413878   7.325   0.891   0.443 -0.6948  0.3542  1.7752
   58MOL    H8513879   7.443   0.762   0.417 -0.6215 -2.0791 -0.5728
   58MOL    O8613880   7.534   0.834   0.628 -0.6302  0.0015  0.0931
   58MOL    C8713881   7.598   0.856   0.756  0.0594  0.4157  0.1581
   58MOL    C8813882   7.739   0.806   0.743 -0.2657  0.9800  0.2715
   58MOL    C8913883   7.576   0.999   0.800 -0.1842 -0.2150  0.4572
   58MOL    C9013884   7.629   1.114   0.703  0.3512 -0.6081  0.5803
   58MOL    O9113885   7.561   1.196   0.639  0.4194 -0.0153 -0.3432
   58MOL    H9213886   7.561   0.789   0.834 -1.2545  0.9899  0.0448
   58MOL    H9313887   7.752   0.699   0.730  0.2527  1.0266  0.3755
   58MOL    H9413888   7.786   0.833   0.838  1.8442  0.8578 -0.7034
   58MOL    H9513889   7.802   0.860   0.672  2.5062 -0.2649  1.6898
   58MOL    H9613890   7.617   1.009   0.901  0.2938  0.7193  0.1777
   58MOL    H9713891   7.471   1.021   0.819 -0.5095 -2.0910  0.8673
   58MOL    O9813892   7.762   1.118   0.717 -0.3577 -0.0869  0.0260
   58MOL    C9913893   7.843   1.204   0.637 -0.0249  0.6363  0.3214
   58MOL   C10013894   7.878   1.330   0.709 -0.6914 -0.0701 -0.4653
   58MOL   C10113895   7.973   1.126   0.598  0.1819 -0.4723 -0.3890
   58MOL   C10213896   7.955   1.038   0.474  0.4927  0.0417 -0.1054
   58MOL   O10313897   7.938   1.087   0.359 -0.2029 -0.7485  0.2121
   58MOL   H10413898   7.792   1.225   0.543  0.2501 -0.4223 -0.0725
   58MOL   H10513899   7.929   1.294   0.798 -1.3152 -1.7017 -0.7538
   58MOL   H10613900   7.786   1.386   0.728 -0.6294  0.3610 -1.3964
   58MOL   H10713901   7.952   1.396   0.663 -1.1680  0.9899  0.2734
   58MOL   H10813902   0.024   1.072   0.687 -2.1531 -0.9393  0.1798
   58MOL   H10913903   0.071   1.198   0.572 -0.6327  0.1546 -1.1161
   58MOL   O11013904   7.968   0.901   0.493 -0.2876 -0.1093 -1.0357
   58MOL   C11113905   7.962   0.802   0.393  1.1275 -0.9240 -0.2005
   58MOL   C11213906   0.073   0.689   0.429  0.4455 -0.2121 -0.7063
   58MOL   C11313907   7.813   0.780   0.377 -0.1200  0.6229  0.4793
   58MOL   C11413908   7.786   0.699   0.255 -0.0870 -0.8385 -0.8060
   58MOL   O11513909   7.833   0.717   0.143  0.2889 -0.2940 -0.3006
   58MOL   H11613910   0.026   0.842   0.302  1.5410  0.2438  0.5074
   58MOL   H11713911   0.076   0.598   0.370  0.4104 -1.1906  0.7622
   58MOL   H11813912   0.043   0.660   0.530  0.6151 -0.8214 -0.8336
   58MOL   H11913913   0.175   0.727   0.440 -0.3931  1.1326  3.1851
   58MOL   H12013914   7.762   0.876   0.368 -1.9702 -0.1746  1.9747
   58MOL   H12113915   7.769   0.733   0.465  1.4656  1.0224  1.5068
   58MOL   O12213916   7.708   0.597   0.284  0.3964 -0.8983 -0.2356
   58MOL   C12313917   7.688   0.486   0.199 -0.3827 -0.4599  0.1011
   58MOL   C12413918   7.815   0.396   0.203 -0.0361  0.5634 -0.2712
   58MOL   C12513919   7.568   0.419   0.259 -0.0267  0.3015  0.2168
   58MOL   C12613920   7.514   0.298   0.176  0.2723 -0.2794  0.2246
   58MOL   O12713921   7.564   0.271   0.070  0.2933  0.1074 -0.4417
   58MOL   H12813922   7.650   0.518   0.101 -0.7351  0.4901  0.5374
   58MOL   H12913923   7.804   0.315   0.130  1.2886 -0.6927  0.8922
   58MOL   H13013924   7.822   0.342   0.297  0.1639 -2.1087 -1.7539
   58MOL   H13113925   7.904   0.456   0.182  0.6788 -0.6770 -0.8989
   58MOL   H13213926   7.485   0.486   0.280 -0.5059 -0.5012  0.9457
   58MOL   H13313927   7.597   0.392   0.361  0.8999 -0.6276 -0.2846
   58MOL   O13413928   7.421   0.219   0.245 -0.3261  0.2727 -0.5876
   58MOL   C13513929   7.362   0.112   0.168  0.2067 -0.0824 -0.8007
   58MOL   C13613930   7.336   7.976   0.264 -0.8368  0.5068  0.1007
   58MOL   C13713931   7.236   0.157   0.098  0.0973 -0.0612  0.3783
   58MOL   C13813932   7.105   0.179   0.177 -0.1128 -0.5981 -0.0550
   58MOL   O13913933   7.081   0.289   0.224 -0.0144 -0.0498 -0.1491
   58MOL   H14013934   7.423   0.062   0.092  0.7869 -1.2099  0.3986
   58MOL   H14113935   7.285   7.899   0.205  0.0675  1.1005 -1.4766
   58MOL   H14213936   7.283   0.023   0.355 -0.3980 -0.3120  0.6070
   58MOL   H14313937   7.434   7.935   0.288 -0.1823  0.8054 -1.9677
   58MOL   H14413938   7.207   0.084   0.023 -0.9059  2.8885 -2.2343
   58MOL   H14513939   7.255   0.253   0.050 -0.8207  1.7232  3.4354
   58MOL   O14613940   7.018   0.068   0.173  0.3917  0.0059 -0.6572
   58MOL   C14713941   6.880   0.091   0.208  0.4067 -0.6176 -0.1858
   58MOL   C14813942   6.812   0.139   0.075  0.4156 -0.3551 -0.0797
   58MOL   C14913943   6.808   7.938   0.240 -0.5679  0.2243 -0.8789
   58MOL   C15013944   6.855   7.869   0.369 -0.3038 -0.1705  0.0551
   58MOL   O15113945   6.973   7.862   0.405  0.2731  0.3991  0.1906
   58MOL   H15213946   6.871   0.171   0.281  4.4740  0.2224 -0.4781
   58MOL   H15313947   6.840   0.241   0.051 -0.3564  0.5981  2.8141
   58MOL   H15413948   6.706   0.155   0.094  0.5502  0.0518  0.3523
   58MOL   H15513949   6.832   0.071   7.972  1.1113 -0.5253  0.2194
   58MOL   H15613950   6.817   7.867   0.157  0.0055 -1.7342  0.8323
   58MOL   H15713951   6.702   7.954   0.256 -0.4239 -0.5845  0.8838
   58MOL   O15813952   6.759   7.822   0.436 -0.1866 -0.3624  1.1895
   58MOL   C15913953   6.782   7.759   0.559 -0.1771 -0.2270 -0.9837
   58MOL   C16013954   6.724   7.843   0.673  0.1988  0.0172  0.7422
   58MOL   C16113955   6.716   7.621   0.552 -0.2358  0.4205 -0.3141
   58MOL   C16213956   6.814   7.515   0.503  0.7465 -0.2091 -0.7781
   58MOL   O16313957   6.802   7.454   0.394 -0.3506 -0.4594 -0.6291
   58MOL   H16413958   6.890   7.751   0.574 -0.3454  0.7667  0.8616
   58MOL   H16513959   6.782   7.935   0.678 -0.1861  0.3408 -0.5829
   58MOL   H16613960   6.750   7.785   0.762 -0.9562 -0.4639  0.7826
   58MOL   H16713961   6.616   7.860   0.665  0.4278  1.6795  0.9982
   58MOL   H16813962   6.622   7.622   0.498 -1.0408 -0.2686  1.0336
   58MOL   H16913963   6.685   7.588   0.652 -2.1921  2.3607 -0.2560
   58MOL   O17013964   6.910   7.491   0.596 -0.5763 -0.3526  0.1729
   58MOL   C17113965   7.017   7.396   0.567  0.3384  0.1823  0.2367
   58MOL   C17213966   7.148   7.476   0.580  0.3480 -0.3432  0.2602
   58MOL   C17313967   7.018   7.280   0.665 -0.6169 -0.9105  0.4243
   58MOL   C17413968   7.106   7.166   0.627 -0.6952 -0.4952  0.0835
   58MOL   O17513969   7.226   7.162   0.667  0.2465 -0.3307 -0.5342
   58MOL   H17613970   7.010   7.357   0.465  0.9192 -0.5476  0.4730
   58MOL   H17713971   7.235   7.422   0.543  0.4418  0.7239 -1.1397
   58MOL   H17813972   7.170   7.485   0.686 -0.7307 -0.0977  0.4731
   58MOL   H17913973   7.138   7.568   0.521  1.0230  0.2695  1.0952
   58MOL   H18013974   6.916   7.242   0.669  0.1873 -3.3102 -0.8526
   58MOL   H18113975   7.033   7.311   0.769 -2.6838 -2.2601  1.1664
   58MOL   O18213976   7.033   7.081   0.557  0.2596  0.1958 -0.4665
   58MOL   C18313977   7.094   6.964   0.499 -0.2055  0.4652 -0.3768
   58MOL   C18413978   7.105   6.839   0.593 -0.2770 -0.1503  0.7645
   58MOL   C18513979   7.029   6.919   0.363 -0.0099  0.2092 -0.8265
   58MOL   C18613980   7.119   6.841   0.269 -0.1136  0.2701 -0.3134
   58MOL   O18713981   7.217   6.781   0.318 -0.1992  0.3779  0.2723
   58MOL   H18813982   7.192   7.008   0.478  0.4293 -0.6216  0.2570
   58MOL   H18913983   7.000   6.817   0.614 -0.3537 -0.2942  0.2515
   58MOL   H19013984   7.150   6.865   0.688  1.6214 -1.9643  0.4088
   58MOL   H19113985   7.153   6.753   0.545  0.4274  0.5876  0.1305
   58MOL   H19213986   6.977   6.995   0.305 -1.1025  0.6705  0.7283
   58MOL   H19313987   6.944   6.855   0.388 -0.2680  0.6677 -0.5357
   58MOL   O19413988   7.076   6.824   0.147  0.2358 -0.0383 -0.1141
   58MOL   C19513989   7.151   6.749   0.045  0.3120 -0.1319  0.6869
   58MOL   C19613990   7.048   6.644   7.948 -0.4944  0.4675 -0.1772
   58MOL   C19713991   7.229   6.850   7.942 -0.3825  0.8471 -0.4242
   58MOL   C19813992   7.302   6.788   7.823 -0.7224 -0.6075 -0.1103
   58MOL   O19913993   7.421   6.757   7.842 -0.2367 -0.3964 -0.4591
   58MOL   H20013994   7.219   6.683   0.100  0.8548  1.0121  1.4211
   58MOL   H20113995   6.955   6.695   7.924  0.0562  2.3227  1.4601
   58MOL   H20213996   7.009   6.566   0.034 -1.0321 -1.8192 -3.1085
   58MOL   H20313997   7.103   6.603   7.863  1.6010 -0.3069  1.5048
   58MOL   H20413998   7.294   6.920   0.013 -1.1594  1.4260 -0.2198
   58MOL   H20513999   7.158   6.924   7.905  2.4777  3.5310 -0.7335
   58MOL   O20614000   7.226   6.761   7.713 -0.0220 -0.3083 -0.3784
   58MOL   C20714001   7.294   6.704   7.595 -0.5934 -0.0084  0.0648
   58MOL   C20814002   7.197   6.591   7.554  0.2889 -0.0544  0.2377
   58MOL   C20914003   7.309   6.803   7.480 -0.6428  0.3950  0.8634
   58MOL   C21014004   7.407   6.917   7.512 -0.4592 -1.0960 -0.5594
   58MOL   O21114005   7.364   7.035   7.523  1.0828 -0.8681  0.1152
   58MOL   H21214006   7.397   6.673   7.613 -0.5308  0.5552  0.7026
   58MOL   H21314007   7.214   6.564   7.449  5.1585 -1.0841  1.2106
   58MOL   H21414008   7.090   6.612   7.567  0.3669  0.3308  0.2668
   58MOL   H21514009   7.213   6.498   7.609  0.5584  0.8217  1.6371
   58MOL   H21614010   7.210   6.828   7.442 -0.3153 -1.3830 -1.2302
   58MOL   H21714011   7.356   6.750   7.398 -0.2440  0.8500  0.7956
   58MOL   O21814012   7.536   6.865   7.530 -0.2860 -0.3869  0.2987
   58MOL   C21914013   7.638   6.951   7.590 -0.2704 -0.6036  0.7836
   58MOL   C22014014   7.731   6.850   7.664  0.2109 -0.2963 -0.2013
   58MOL   C22114015   7.703   7.032   7.481  0.0944  0.2283  0.9180
   58MOL   C22214016   7.812   7.131   7.523 -0.3888  0.8860 -0.1906
   58MOL   O22314017   7.810   7.193   7.629  1.2453  0.4558  0.2182
   58MOL   H22414018   7.588   7.023   7.655  1.2699  2.4087 -1.2980
   58MOL   H22514019   7.787   6.789   7.592 -0.5999  0.8791 -1.8770
   58MOL   H22614020   7.683   6.789   7.740  1.6343 -0.0017  0.9630
   58MOL   H22714021   7.802   6.913   7.718 -0.5963  0.0858  0.4174
   58MOL   H22814022   7.616   7.087   7.444  0.4590  0.2404  0.0817
   58MOL   H22914023   7.732   6.966   7.399 -1.6263  0.6952 -0.0935
   58MOL   O23014024   7.903   7.150   7.433 -0.2835 -0.3922  0.2679
   58MOL   C23114025   0.033   7.239   7.461  0.0866 -0.6181  0.7138
   58MOL   C23214026   0.134   7.185   7.564 -0.3165  0.0559 -0.2365
   58MOL   C23314027   0.107   7.261   7.323 -0.3843 -0.7223  0.2802
   58MOL   C23414028   0.031   7.352   7.228 -0.4782  0.1749 -0.0174
   58MOL   O23514029   7.895   7.338   7.191  0.2091  0.3077  0.4668
   58MOL   H23614030   7.971   7.334   7.496  0.0875 -0.7588  1.0938
   58MOL   H23714031   0.179   7.274   7.608  0.1585 -0.2061 -0.1894
   58MOL   H23814032   0.215   7.120   7.531  1.2297  2.7880 -2.0044
   58MOL   H23914033   0.081   7.130   7.642 -2.3229 -0.3469 -1.8435
   58MOL   H24014034   0.124   7.161   7.284  1.6985  0.3523 -1.6735
   58MOL   H24114035   0.199   7.314   7.347  0.0747 -1.4988  0.2536
   58MOL   H24214036   0.100   7.429   7.192  1.1631 -0.8450  0.8846
   59MOL     O114037   5.909   3.197   5.610  0.1203  0.4359 -0.0431
   59MOL     C214038   5.999   3.223   5.716 -0.0410 -0.5077 -0.4914
   59MOL     C314039   6.135   3.186   5.658 -0.2063  0.3434  0.4251
   59MOL     C414040   5.998   3.367   5.738  0.0185 -0.3171 -0.0463
   59MOL     C514041   6.084   3.422   5.847  0.9041 -0.6854  0.0200
   59MOL     O614042   6.169   3.354   5.911  0.5516  0.3136  0.0691
   59MOL     H714043   5.976   3.179   5.813  2.5490  2.4162  1.5594
   59MOL     H814044   6.150   3.079   5.643 -0.1121 -0.1993  3.9984
   59MOL     H914045   6.219   3.223   5.717  0.4985  0.0784 -0.4001
   59MOL    H1014046   6.158   3.239   5.565 -1.7560  1.9651  0.9455
   59MOL    H1114047   5.896   3.406   5.732 -0.0967 -0.5696  0.2503
   59MOL    H1214048   6.036   3.411   5.646  0.0634  0.6862  0.4458
   59MOL    H1314049   5.899   3.104   5.596 -0.5748  0.6748 -1.2298
   59MOL    O1414050   6.067   3.547   5.861  0.3075  0.0441  0.4885
   59MOL    C1514051   6.160   3.623   5.936 -0.0825 -0.4677  0.3789
   59MOL    C1614052   6.269   3.674   5.844  0.0113 -0.8561  0.3828
   59MOL    C1714053   6.069   3.731   6.003  0.6713  0.0518  0.1257
   59MOL    C1814054   6.143   3.836   6.083  0.4231  0.0390  0.4842
   59MOL    O1914055   6.144   3.957   6.049  0.2263  0.5802  0.0070
   59MOL    H2014056   6.217   3.565   6.009  1.1097  0.7610  0.4339
   59MOL    H2114057   6.337   3.600   5.803  0.1127 -0.5435 -0.0265
   59MOL    H2214058   6.331   3.746   5.899  2.1487 -0.7311 -2.0577
   59MOL    H2314059   6.217   3.730   5.766 -0.0645 -0.4797  0.7008
   59MOL    H2414060   5.996   3.686   6.071 -1.4178  0.3703 -1.8488
   59MOL    H2514061   6.008   3.792   5.937  0.4315 -2.1074 -1.7047
   59MOL    O2614062   6.219   3.776   6.181  0.5612 -0.2438 -0.2415
   59MOL    C2714063   6.296   3.858   6.264  0.3875  0.5170  0.1593
   59MOL    C2814064   6.312   3.775   6.398  0.1171  0.0561  0.1039
   59MOL    C2914065   6.430   3.886   6.190  0.6115 -0.1407  0.3885
   59MOL    C3014066   6.537   3.948   6.277  0.0448 -0.1842  0.6158
   59MOL    O3114067   6.511   4.046   6.347  0.5027 -0.1859  0.2737
   59MOL    H3214068   6.237   3.946   6.288 -2.4123 -0.8087 -1.6119
   59MOL    H3314069   6.371   3.822   6.476 -1.3333 -0.1685  1.3417
   59MOL    H3414070   6.359   3.677   6.386  2.0496  0.9550  0.1874
   59MOL    H3514071   6.219   3.753   6.450  1.8082  0.6959  3.4866
   59MOL    H3614072   6.389   3.946   6.109 -0.1141 -0.5957  0.4109
   59MOL    H3714073   6.473   3.792   6.155 -3.0292 -2.3339  1.4272
   59MOL    O3814074   6.663   3.902   6.258  0.1870 -0.4714  0.3727
   59MOL    C3914075   6.774   3.941   6.335  0.8270 -0.3213  0.3400
   59MOL    C4014076   6.814   3.826   6.428  0.2535 -0.6642  0.0361
   59MOL    C4114077   6.873   3.983   6.226 -0.6461 -0.0108  0.5715
   59MOL    C4214078   7.009   4.052   6.271 -0.7082 -0.3415  0.0271
   59MOL    O4314079   7.111   4.023   6.215 -0.0957  0.2467 -0.0845
   59MOL    H4414080   6.750   4.026   6.400 -1.0350 -0.5185 -0.0589
   59MOL    H4514081   6.870   3.867   6.512  0.4276 -1.7908  0.4835
   59MOL    H4614082   6.864   3.751   6.367  0.7847 -0.6894  0.5022
   59MOL    H4714083   6.720   3.785   6.466 -1.1406  3.3707  1.2540
   59MOL    H4814084   6.834   4.061   6.161  0.4045 -0.1050 -0.1932
   59MOL    H4914085   6.898   3.899   6.161  0.1389  2.2905 -2.1907
   59MOL    O5014086   6.993   4.132   6.372  0.4969 -0.1853 -0.1231
   59MOL    C5114087   7.112   4.185   6.432  0.2024 -0.5393 -0.1097
   59MOL    C5214088   7.086   4.338   6.438 -1.0114 -0.2393  0.1983
   59MOL    C5314089   7.128   4.115   6.568  0.2448  0.2542  0.2773
   59MOL    C5414090   7.195   3.981   6.568 -0.0990  0.3587  0.0226
   59MOL    O5514091   7.140   3.889   6.629  0.9558 -0.0990 -0.2660
   59MOL    H5614092   7.206   4.169   6.378 -0.9575 -0.7672 -2.0723
   59MOL    H5714093   7.014   4.360   6.516 -0.3778  0.6784  0.5282
   59MOL    H5814094   7.047   4.367   6.340 -0.5282  1.7518  0.5683
   59MOL    H5914095   7.174   4.399   6.455 -0.0308 -1.7748  0.7566
   59MOL    H6014096   7.031   4.103   6.617  0.4688 -3.5670 -0.0678
   59MOL    H6114097   7.183   4.185   6.631 -4.6800  3.0954  1.6772
   59MOL    O6214098   7.318   3.977   6.522 -0.1287  0.1407 -0.4703
   59MOL    C6314099   7.403   3.867   6.556 -0.2208 -0.1999 -0.3784
   59MOL    C6414100   7.403   3.766   6.441 -0.6882  0.6771 -0.5016
   59MOL    C6514101   7.537   3.923   6.606 -0.7410 -0.3435 -0.0956
   59MOL    C6614102   7.618   4.010   6.504  0.6035  0.3491  0.7588
   59MOL    O6714103   7.615   3.996   6.379  0.3319  0.2107 -0.0090
   59MOL    H6814104   7.360   3.818   6.644  0.7232  2.2885  1.5217
   59MOL    H6914105   7.426   3.817   6.348  0.6782 -0.9458 -1.0816
   59MOL    H7014106   7.301   3.730   6.425  0.0919 -2.2286  0.6948
   59MOL    H7114107   7.457   3.673   6.458 -0.2832  1.1822  1.0867
   59MOL    H7214108   7.599   3.849   6.657  0.1161  0.5538  0.1600
   59MOL    H7314109   7.516   3.981   6.696 -2.0670  2.6543 -2.2618
   59MOL    O7414110   7.707   4.088   6.564  0.1698 -0.2998 -0.5740
   59MOL    C7514111   7.811   4.144   6.497  0.7560 -0.7972 -0.5632
   59MOL    C7614112   7.846   4.261   6.581 -0.0355 -0.6476 -0.3573
   59MOL    C7714113   7.930   4.053   6.484  0.4575  0.7950 -0.3571
   59MOL    C7814114   0.060   4.114   6.400  0.2042 -0.2709  0.6368
   59MOL    O7914115   0.032   4.183   6.301  0.6918 -0.2439 -0.2912
   59MOL    H8014116   7.779   4.183   6.401  3.1322  0.6507 -0.7975
   59MOL    H8114117   7.768   4.336   6.592 -1.1567 -1.9603  0.8465
   59MOL    H8214118   7.916   4.326   6.529  0.5700 -0.4769  0.6657
   59MOL    H8314119   7.898   4.230   6.672 -1.5504  1.4487  1.2915
   59MOL    H8414120   7.893   3.961   6.441  2.0059 -0.9644  1.9230
   59MOL    H8514121   7.975   4.041   6.583  1.0725  2.8839 -0.3471
   59MOL    O8614122   0.179   4.090   6.448  0.0119 -0.1631 -0.3544
   59MOL    C8714123   0.293   4.121   6.368  0.4824  0.0776 -0.3061
   59MOL    C8814124   0.326   4.266   6.405  0.2878  0.3925 -0.0749
   59MOL    C8914125   0.403   4.014   6.418  0.7755 -0.6002  0.0660
   59MOL    C9014126   0.539   4.047   6.365  0.7976 -0.3950  0.4533
   59MOL    O9114127   0.625   4.091   6.444 -0.2888  0.2803 -0.3982
   59MOL    H9214128   0.262   4.099   6.266 -0.2676  0.7332 -0.2227
   59MOL    H9314129   0.291   4.277   6.508 -4.1786  0.5416 -1.4634
   59MOL    H9414130   0.254   4.324   6.346 -0.6377 -2.3191 -1.6726
   59MOL    H9514131   0.432   4.280   6.389 -0.4205  2.6642 -3.2254
   59MOL    H9614132   0.378   3.916   6.376  1.4153  0.2250 -2.3121
   59MOL    H9714133   0.407   4.011   6.527 -1.0990  1.3211  0.2051
   59MOL    O9814134   0.549   4.025   6.233 -0.1924 -0.0033 -0.2642
   59MOL    C9914135   0.666   4.057   6.162 -0.0411  0.0741  0.1652
   59MOL   C10014136   0.753   3.930   6.169  0.3031  0.4006  0.4004
   59MOL   C10114137   0.625   4.094   6.016  0.5982  0.3128  0.4390
   59MOL   C10214138   0.543   4.221   6.001  0.3519  0.6124 -0.3690
   59MOL   O10314139   0.519   4.287   6.103  0.0201  0.3350 -0.0097
   59MOL   H10414140   0.720   4.138   6.210 -0.7815  0.5198  0.2654
   59MOL   H10514141   0.837   3.943   6.101 -0.1590 -0.4384 -0.3421
   59MOL   H10614142   0.699   3.845   6.128  0.8035  0.6051 -0.7042
   59MOL   H10714143   0.799   3.924   6.268 -0.5567  0.4168  0.8006
   59MOL   H10814144   0.575   4.012   5.965  1.3367 -1.1008  1.9324
   59MOL   H10914145   0.714   4.106   5.954 -0.3613 -3.0921 -1.7458
   59MOL   O11014146   0.513   4.244   5.880  0.7124  0.2113 -0.1130
   59MOL   C11114147   0.430   4.348   5.838  0.4421  0.6571  0.0429
   59MOL   C11214148   0.486   4.389   5.704 -0.2599 -0.9594 -0.1157
   59MOL   C11314149   0.279   4.306   5.826  0.3004 -0.0051  0.2440
   59MOL   C11414150   0.182   4.428   5.827  0.2057 -0.6169  0.2942
   59MOL   O11514151   0.213   4.538   5.784 -0.4677  0.5436 -0.4382
   59MOL   H11614152   0.434   4.430   5.910 -1.0315  0.3484  0.5061
   59MOL   H11714153   0.431   4.479   5.677  2.6199  0.6357 -0.9919
   59MOL   H11814154   0.476   4.318   5.622  0.7736 -2.5004  1.0555
   59MOL   H11914155   0.593   4.411   5.706 -0.5416  0.4800 -0.0152
   59MOL   H12014156   0.248   4.242   5.908  0.7552 -1.9497 -1.0596
   59MOL   H12114157   0.257   4.251   5.734 -1.8987  0.5934  0.3911
   59MOL   O12214158   0.064   4.395   5.890  0.2622 -0.8477 -0.2240
   59MOL   C12314159   7.949   4.496   5.912 -0.3828  0.7083 -0.4170
   59MOL   C12414160   7.833   4.456   5.814 -0.2888 -0.1732 -0.0791
   59MOL   C12514161   7.917   4.512   6.064  0.2840  0.2525  0.1516
   59MOL   C12614162   0.036   4.594   6.146  0.4565 -0.0281 -0.0926
   59MOL   O12714163   0.148   4.626   6.112 -0.4831 -0.8326  0.2373
   59MOL   H12814164   7.977   4.597   5.882 -0.2187  1.5545  2.4251
   59MOL   H12914165   7.811   4.349   5.820 -0.2817 -0.1914 -0.3590
   59MOL   H13014166   7.863   4.487   5.714  0.0221 -1.5972 -0.4340
   59MOL   H13114167   7.736   4.497   5.839  0.0388  1.0972 -0.8228
   59MOL   H13214168   7.903   4.412   6.105 -2.5759  0.3604 -0.4216
   59MOL   H13314169   7.823   4.567   6.060  0.7032  1.1414  2.0959
   59MOL   O13414170   7.960   4.622   6.261  0.3470 -0.4277  0.3264
   59MOL   C13514171   0.061   4.666   6.373  0.6232  0.0397 -0.7893
   59MOL   C13614172   7.977   4.789   6.436 -0.4005  0.3574  0.3536
   59MOL   C13714173   0.083   4.550   6.461  1.2062 -0.0472  0.4924
   59MOL   C13814174   0.190   4.550   6.564 -0.1075 -0.7051  0.2727
   59MOL   O13914175   0.184   4.485   6.671 -0.4011  0.9588  0.0759
   59MOL   H14014176   0.150   4.711   6.329  1.1628  0.8191  1.0637
   59MOL   H14114177   7.881   4.763   6.479 -0.3432 -0.5878 -0.0689
   59MOL   H14214178   0.002   4.869   6.362  2.8771  0.9265  1.0721
   59MOL   H14314179   0.072   4.822   6.509 -0.1479 -2.5948  1.4801
   59MOL   H14414180   0.108   4.468   6.393  0.7960  0.5226 -0.3491
   59MOL   H14514181   7.965   4.532   6.504  0.0523  0.9305 -1.6597
   59MOL   O14614182   0.273   4.633   6.529 -0.0893  0.3966  0.7000
   59MOL   C14714183   0.387   4.663   6.602  0.3070  0.0006  0.2031
   59MOL   C14814184   0.515   4.584   6.556 -0.5035 -0.0903  0.4721
   59MOL   C14914185   0.402   4.818   6.600 -0.4106 -0.2482 -0.3886
   59MOL   C15014186   0.314   4.895   6.698 -0.1288 -0.1694  0.0693
   59MOL   O15114187   0.217   4.849   6.756 -0.3428 -0.2954  1.0112
   59MOL   H15214188   0.382   4.628   6.705  1.1246  0.3588  0.3646
   59MOL   H15314189   0.594   4.585   6.631  0.5186 -0.9005 -0.5788
   59MOL   H15414190   0.560   4.638   6.473 -2.8437  1.3066  0.0705
   59MOL   H15514191   0.505   4.483   6.516  1.4316 -0.2192  0.2646
   59MOL   H15614192   0.386   4.854   6.499 -0.1827 -2.7514 -1.3593
   59MOL   H15714193   0.508   4.837   6.620 -0.5301  0.2886 -0.2602
   59MOL   O15814194   0.353   5.021   6.713 -0.2317 -0.7032 -0.1748
   59MOL   C15914195   0.308   5.110   6.814  1.1260  0.4120  0.0378
   59MOL   C16014196   0.413   5.127   6.925  0.1347 -0.2264 -0.2156
   59MOL   C16114197   0.259   5.248   6.766  0.0205  0.2761 -0.4308
   59MOL   C16214198   0.125   5.231   6.690  0.1782 -0.4969  0.9251
   59MOL   O16314199   0.112   5.258   6.573  0.1762  0.0005  0.1754
   59MOL   H16414200   0.227   5.060   6.868  2.4521 -0.9324  0.8124
   59MOL   H16514201   0.371   5.195   6.999 -2.4452 -2.9230  0.9159
   59MOL   H16614202   0.507   5.164   6.884 -0.0762  1.5072  0.7917
   59MOL   H16714203   0.427   5.032   6.975  0.6017 -0.1454 -0.1958
   59MOL   H16814204   0.329   5.293   6.696  1.4259 -1.5151 -0.2181
   59MOL   H16914205   0.250   5.323   6.844 -0.4756 -0.5289  0.2905
   59MOL   O17014206   0.018   5.188   6.773 -0.0734 -0.1284  0.1340
   59MOL   C17114207   7.866   5.164   6.723  0.6302 -0.1092 -0.0874
   59MOL   C17214208   7.840   5.015   6.739 -0.5758 -0.2238 -0.1394
   59MOL   C17314209   7.773   5.252   6.792  0.5066 -0.4156 -0.4813
   59MOL   C17414210   7.792   5.398   6.753 -0.3974  0.3276 -0.2714
   59MOL   O17514211   7.772   5.444   6.639 -0.1491 -0.0126 -0.1529
   59MOL   H17614212   7.865   5.190   6.617 -2.0689 -0.1509 -0.1130
   59MOL   H17714213   7.915   4.948   6.697  0.1544 -0.4183  1.4470
   59MOL   H17814214   7.745   4.975   6.703  0.3007 -2.4554 -0.0317
   59MOL   H17914215   7.856   4.996   6.845 -0.5611  0.9095  0.0642
   59MOL   H18014216   7.781   5.249   6.901 -0.6710  1.1190 -0.3305
   59MOL   H18114217   7.672   5.226   6.763  0.4709 -0.2912 -0.4692
   59MOL   O18214218   7.818   5.469   6.864 -0.3138  0.3336 -0.2868
   59MOL   C18314219   7.821   5.608   6.862 -0.0277  0.1428  0.2838
   59MOL   C18414220   7.740   5.677   6.982  0.2495 -0.3257 -0.8421
   59MOL   C18514221   7.972   5.653   6.848 -0.3866  0.0699  0.5839
   59MOL   C18614222   0.068   5.625   6.984 -0.3872  0.5045 -0.5980
   59MOL   O18714223   0.156   5.541   6.982 -0.2787 -0.0201 -0.8064
   59MOL   H18814224   7.759   5.638   6.777  0.1284 -1.1869 -0.3084
   59MOL   H18914225   7.752   5.637   7.082 -2.1379  2.0394  0.4241
   59MOL   H19014226   7.635   5.686   6.954 -0.1175  2.0918  1.2559
   59MOL   H19114227   7.775   5.777   7.004  1.3535 -0.9127  0.1482
   59MOL   H19214228   0.005   5.757   6.820  2.2506 -0.5076 -0.5197
   59MOL   H19314229   0.052   5.590   6.782 -0.1313  0.7259  0.1892
   59MOL   O19414230   0.032   5.701   7.091 -0.8685  0.4147 -0.1658
   59MOL   C19514231   0.073   5.673   7.225 -0.4582 -0.2035 -0.3272
   59MOL   C19614232   0.081   5.806   7.301 -0.4154 -0.1343 -0.6699
   59MOL   C19714233   7.959   5.572   7.299 -0.1027  0.6795  0.4366
   59MOL   C19814234   0.002   5.539   7.435  0.3662  0.0318 -0.0978
   59MOL   O19914235   0.103   5.578   7.494 -1.0016  0.0016 -0.1469
   59MOL   H20014236   0.170   5.624   7.223 -0.0370  0.6481 -1.2185
   59MOL   H20114237   7.961   5.848   7.312 -0.1060  0.1020  1.6594
   59MOL   H20214238   0.141   5.884   7.254 -1.4127  0.6373 -0.6785
   59MOL   H20314239   0.112   5.791   7.405 -1.4278  1.5881 -0.1000
   59MOL   H20414240   7.952   5.483   7.236  0.2113 -0.6629  2.2351
   59MOL   H20514241   7.855   5.606   7.296  0.4005  2.2933  0.8834
   59MOL   O20614242   7.897   5.450   7.489 -0.2057  0.3429 -0.7587
   59MOL   C20714243   7.919   5.410   7.623  0.6466  0.0064  0.5315
   59MOL   C20814244   7.791   5.432   7.711  0.0275 -0.1640 -0.0239
   59MOL   C20914245   7.973   5.266   7.609 -0.1029 -0.1086  0.6131
   59MOL   C21014246   0.041   5.220   7.752  0.3606  0.1143 -0.0727
   59MOL   O21114247   7.974   5.121   7.811 -0.3510 -0.0478 -0.1001
   59MOL   H21214248   0.016   5.469   7.674  4.2952 -0.8626 -3.6255
   59MOL   H21314249   7.823   5.417   7.814  2.5071  1.7347 -0.4698
   59MOL   H21414250   7.728   5.345   7.694 -2.2252  1.5750 -0.9021
   59MOL   H21514251   7.749   5.533   7.703 -1.3371 -0.6654  0.6655
   59MOL   H21614252   0.081   5.278   7.546 -0.4933 -0.5804 -0.0163
   59MOL   H21714253   7.893   5.208   7.563  0.5684  1.2222 -2.3167
   59MOL   O21814254   0.149   5.297   7.794  0.3253  0.5204  0.2509
   59MOL   C21914255   0.188   5.294   7.933  0.1403  0.5981  0.0595
   59MOL   C22014256   0.328   5.351   7.938  0.0732 -0.1886 -0.1703
   59MOL   C22114257   0.087   5.368   0.036  0.3282 -0.3993  0.1443
   59MOL   C22214258   0.126   5.357   0.186 -0.1493 -0.2064  0.5609
   59MOL   O22314259   0.148   5.246   0.240  0.1669 -0.5416 -0.0576
   59MOL   H22414260   0.183   5.191   7.969 -1.3716 -0.0468 -1.8910
   59MOL   H22514261   0.335   5.454   7.901  0.5667 -0.5430 -1.0745
   59MOL   H22614262   0.399   5.288   7.884 -1.8756 -1.6750 -1.0677
   59MOL   H22714263   0.369   5.355   0.059 -0.5260 -0.0942  0.0751
   59MOL   H22814264   7.965   5.331   0.020 -0.2565 -0.5157  3.5522
   59MOL   H22914265   0.092   5.475   0.014  1.1387 -0.0293  2.0140
   59MOL   O23014266   0.128   5.482   0.246 -0.2557  0.0295  0.1737
   59MOL   C23114267   0.159   5.481   0.384 -0.6818  0.1261 -0.5476
   59MOL   C23214268   0.260   5.598   0.409 -0.2021  0.5119  0.0855
   59MOL   C23314269   0.031   5.492   0.466  0.2614 -0.9165 -0.2977
   59MOL   C23414270   0.041   5.487   0.621  0.2748  0.2947  0.0902
   59MOL   O23514271   0.126   5.542   0.687 -0.4680 -0.0409 -0.1113
   59MOL   H23614272   0.211   5.390   0.416  1.3880  1.0520 -1.1781
   59MOL   H23714273   0.317   5.577   0.499  1.4380  1.2140 -0.7717
   59MOL   H23814274   0.217   5.696   0.428  2.6002  1.4874  1.6741
   59MOL   H23914275   0.328   5.615   0.326 -0.6206 -0.6273 -0.5096
   59MOL   H24014276   7.941   5.418   0.427 -0.8671 -0.2348  0.4047
   59MOL   H24114277   7.970   5.592   0.450  1.1445 -0.2578  1.3739
   59MOL   H24214278   7.942   5.427   0.667 -0.5408  2.4156  1.5318
   60MOL     O114279   5.456   1.131   5.142 -0.2470  0.3538 -0.1694
   60MOL     C214280   5.450   1.090   5.272  0.3434 -0.0203  0.0517
   60MOL     C314281   5.343   0.989   5.270 -0.3061 -0.8582  0.2407
   60MOL     C414282   5.591   1.037   5.307  0.9353 -0.1631 -0.1294
   60MOL     C514283   5.610   1.045   5.463 -0.1748 -1.2469  0.3795
   60MOL     O614284   5.619   0.945   5.532  0.4892 -0.1588  0.3422
   60MOL     H714285   5.417   1.176   5.331 -0.5689 -0.5464  0.3126
   60MOL     H814286   5.259   1.058   5.260  0.1758 -0.2768  0.1692
   60MOL     H914287   5.333   0.928   5.359 -1.7088  0.0619  0.7310
   60MOL    H1014288   5.335   0.912   5.194  1.1422 -1.2849  0.5011
   60MOL    H1114289   5.660   1.097   5.246 -0.2793  0.1649 -1.2179
   60MOL    H1214290   5.593   0.931   5.281  0.8985  0.0183 -0.8984
   60MOL    H1314291   5.387   1.087   5.095 -0.9546  2.0047 -0.7316
   60MOL    O1414292   5.595   1.169   5.504 -0.3905 -0.6580  0.3987
   60MOL    C1514293   5.607   1.195   5.648 -0.4624 -0.2980  0.1606
   60MOL    C1614294   5.661   1.337   5.675  0.0418 -0.2119  0.3402
   60MOL    C1714295   5.471   1.172   5.713  0.1477 -0.3546 -0.4893
   60MOL    C1814296   5.348   1.250   5.656 -0.4752  0.0584  0.1478
   60MOL    O1914297   5.292   1.203   5.556 -0.5217  0.1447  0.2393
   60MOL    H2014298   5.677   1.121   5.686 -0.4702  0.2120  1.1981
   60MOL    H2114299   5.598   1.418   5.639  0.0526  0.4438  1.7567
   60MOL    H2214300   5.761   1.345   5.634 -0.0027  0.6471  0.4047
   60MOL    H2314301   5.670   1.346   5.783 -0.1723  0.2247  0.3215
   60MOL    H2414302   5.494   1.191   5.818 -0.6742 -5.4957  0.7523
   60MOL    H2514303   5.437   1.068   5.712 -1.1899  0.0422  1.5655
   60MOL    O2614304   5.306   1.353   5.734  0.2054 -0.9587  0.3834
   60MOL    C2714305   5.192   1.421   5.712 -0.3372 -0.0222  0.0117
   60MOL    C2814306   5.100   1.372   5.821  0.8720  0.5501 -0.6396
   60MOL    C2914307   5.217   1.573   5.699  0.5265 -0.0608 -0.3879
   60MOL    C3014308   5.334   1.603   5.607 -0.2814  1.1870  0.3672
   60MOL    O3114309   5.439   1.656   5.649  0.0135  0.0583  0.1406
   60MOL    H3214310   5.149   1.389   5.618 -0.4738 -3.6579  1.2311
   60MOL    H3314311   4.999   1.412   5.810  0.4445 -0.5793 -0.9144
   60MOL    H3414312   5.126   1.405   5.922  0.4306  1.3183 -0.7749
   60MOL    H3514313   5.095   1.263   5.817  1.3226  0.5772 -2.4200
   60MOL    H3614314   5.244   1.613   5.797  3.0104 -0.1889 -0.9899
   60MOL    H3714315   5.124   1.622   5.669  0.1511 -1.1719 -1.0448
   60MOL    O3814316   5.322   1.553   5.476  0.1225 -0.9698  0.1586
   60MOL    C3914317   5.411   1.594   5.374  0.6060  0.3905  0.3920
   60MOL    C4014318   5.469   1.457   5.333 -0.7902  0.2521  0.2983
   60MOL    C4114319   5.328   1.660   5.250  0.4299  0.2469  0.0245
   60MOL    C4214320   5.245   1.779   5.289  0.1695  0.0568  0.1969
   60MOL    O4314321   5.296   1.877   5.343  0.3839 -0.0144  0.5139
   60MOL    H4414322   5.495   1.656   5.405  0.2447  0.9735  0.2113
   60MOL    H4514323   5.541   1.465   5.252 -0.5766  3.6173  0.7393
   60MOL    H4614324   5.392   1.384   5.310  0.2243  0.4923 -4.3724
   60MOL    H4714325   5.516   1.408   5.419 -1.5712 -0.5607  0.2682
   60MOL    H4814326   5.257   1.580   5.228  0.3056  0.6612 -1.1147
   60MOL    H4914327   5.382   1.673   5.156 -1.9392  1.4586 -1.2302
   60MOL    O5014328   5.111   1.779   5.255 -0.0906  0.0060  0.1791
   60MOL    C5114329   5.032   1.896   5.276 -0.2725 -0.1748 -0.1582
   60MOL    C5214330   5.018   1.967   5.142  0.3684 -0.2637 -0.5736
   60MOL    C5314331   4.893   1.873   5.346 -0.4934  0.2881  0.1336
   60MOL    C5414332   4.903   1.837   5.497 -0.9411 -0.2891  0.6272
   60MOL    O5514333   4.906   1.720   5.531  0.3056  0.5061  1.0021
   60MOL    H5614334   5.083   1.977   5.329 -0.1712  1.1893 -2.2867
   60MOL    H5714335   4.940   1.932   5.075 -0.5822 -1.8388  1.3041
   60MOL    H5814336   5.112   1.981   5.089 -1.4250 -1.4730 -4.2160
   60MOL    H5914337   4.981   2.069   5.156 -1.3830 -1.1008  1.2189
   60MOL    H6014338   4.838   1.793   5.296  3.7172 -2.3475 -0.5413
   60MOL    H6114339   4.832   1.963   5.339  0.3722  0.8835  0.1800
   60MOL    O6214340   4.901   1.944   5.586 -0.2695 -0.0419 -0.0255
   60MOL    C6314341   4.877   1.932   5.726 -0.3654  0.6873  0.4657
   60MOL    C6414342   5.004   2.002   5.781 -0.1838  0.1163  0.1813
   60MOL    C6514343   4.760   2.016   5.770  0.0241 -0.2683 -0.9139
   60MOL    C6614344   4.612   1.974   5.753  0.4119 -0.0880 -0.7937
   60MOL    O6714345   4.530   2.053   5.702 -0.9290  0.0639  0.0001
   60MOL    H6814346   4.880   1.827   5.753  0.6154  0.7615  0.6746
   60MOL    H6914347   5.003   2.109   5.758  0.2314  0.1548  0.3484
   60MOL    H7014348   5.096   1.963   5.737 -0.1017 -2.2220  2.3566
   60MOL    H7114349   5.018   2.001   5.889  0.7888 -0.0114  0.0588
   60MOL    H7214350   4.775   2.121   5.744  1.4759 -0.1375  0.3880
   60MOL    H7314351   4.770   2.019   5.878 -1.4511  1.6837 -0.7887
   60MOL    O7414352   4.588   1.849   5.794 -0.6144 -0.3240 -0.2334
   60MOL    C7514353   4.460   1.798   5.767  0.4033  0.8853  0.1597
   60MOL    C7614354   4.495   1.651   5.726  0.4285  1.0832  0.2641
   60MOL    C7714355   4.360   1.806   5.887  0.1863  0.7154 -0.1802
   60MOL    C7814356   4.296   1.940   5.908  0.0469 -0.9433  1.0665
   60MOL    O7914357   4.197   1.976   5.842  0.1969  0.1630 -0.3818
   60MOL    H8014358   4.417   1.848   5.680 -0.1744 -1.2603 -0.8261
   60MOL    H8114359   4.556   1.646   5.636 -1.7065  0.2039 -1.1756
   60MOL    H8214360   4.400   1.604   5.701  0.4690  0.2586  1.6232
   60MOL    H8314361   4.531   1.583   5.803  1.2206  0.4879 -0.6233
   60MOL    H8414362   4.402   1.752   5.972 -1.6383  0.1153  0.3563
   60MOL    H8514363   4.273   1.750   5.854  0.6236 -0.4504  0.6348
   60MOL    O8614364   4.358   2.007   5.996 -0.2351 -0.4271 -0.2095
   60MOL    C8714365   4.336   2.145   6.009 -1.0292  0.3819 -0.0031
   60MOL    C8814366   4.216   2.177   6.110 -0.0655  0.1450  0.6889
   60MOL    C8914367   4.472   2.195   6.062  0.0859 -0.2442 -0.3129
   60MOL    C9014368   4.494   2.343   6.080 -0.6703  0.5346  0.0291
   60MOL    O9114369   4.577   2.387   6.156  0.3732 -0.0031 -0.3677
   60MOL    H9214370   4.314   2.182   5.909 -2.2662 -0.8771 -0.2200
   60MOL    H9314371   4.130   2.128   6.065  1.1742 -1.2844 -0.1745
   60MOL    H9414372   4.201   2.284   6.122 -1.9288 -0.0463  0.1100
   60MOL    H9514373   4.248   2.139   6.207 -3.0559 -1.0382  1.2554
   60MOL    H9614374   4.556   2.148   6.012  2.3622  2.3527  1.0022
   60MOL    H9714375   4.483   2.167   6.167  0.2756  1.8723  0.2413
   60MOL    O9814376   4.419   2.412   5.987  0.0663  0.3997 -0.5767
   60MOL    C9914377   4.421   2.549   5.977  0.1115 -0.4922  0.4623
   60MOL   C10014378   4.539   2.583   5.886  0.2999 -0.2328 -0.1101
   60MOL   C10114379   4.286   2.598   5.921 -0.6762  0.0075  0.2181
   60MOL   C10214380   4.258   2.549   5.777  0.5434 -0.2529 -0.2516
   60MOL   O10314381   4.243   2.637   5.694 -0.5195  0.3739  0.0787
   60MOL   H10414382   4.430   2.585   6.080 -1.9647  0.3316  0.3842
   60MOL   H10514383   4.539   2.510   5.805 -1.0348 -1.4215  0.9249
   60MOL   H10614384   4.637   2.572   5.932  0.1250  0.2769  0.3935
   60MOL   H10714385   4.529   2.685   5.850 -0.7276 -0.1216  0.4726
   60MOL   H10814386   4.267   2.705   5.927  1.3497  0.4411 -0.5865
   60MOL   H10914387   4.214   2.541   5.979  0.5022 -0.2002  1.5029
   60MOL   O11014388   4.233   2.415   5.761  0.3344 -0.1407 -0.0043
   60MOL   C11114389   4.190   2.358   5.642  0.3255 -0.1351  0.4520
   60MOL   C11214390   4.310   2.284   5.579 -0.0773 -0.1515 -0.1327
   60MOL   C11314391   4.080   2.257   5.676  0.4951  0.6317  0.0839
   60MOL   C11414392   4.005   2.200   5.556 -0.0801  0.4836  0.2742
   60MOL   O11514393   4.028   2.229   5.438  1.5553 -0.4433 -0.3778
   60MOL   H11614394   4.145   2.433   5.578  2.3346  0.5955 -0.1549
   60MOL   H11714395   4.341   2.202   5.643 -0.2757  1.2188  1.7577
   60MOL   H11814396   4.400   2.342   5.562  0.9413 -2.0335 -1.4008
   60MOL   H11914397   4.274   2.257   5.480  0.6012 -0.8313 -0.1988
   60MOL   H12014398   4.002   2.314   5.727  1.3337  2.5144 -0.7099
   60MOL   H12114399   4.114   2.177   5.743 -1.9615  1.8290  2.8622
   60MOL   O12214400   3.922   2.099   5.596 -0.3928 -0.1161  0.1775
   60MOL   C12314401   3.835   2.034   5.505 -0.7020  0.0556 -0.3396
   60MOL   C12414402   3.842   1.886   5.544 -0.3437  0.1590 -0.2119
   60MOL   C12514403   3.698   2.089   5.512 -0.1973 -0.8926 -0.0029
   60MOL   C12614404   3.664   2.208   5.424  0.8852  0.5164  0.0140
   60MOL   O12714405   3.615   2.311   5.473 -0.1227  0.2295 -0.2549
   60MOL   H12814406   3.869   2.045   5.402 -0.4727 -0.3419 -0.3042
   60MOL   H12914407   3.794   1.835   5.461  0.9208 -1.3804 -0.0007
   60MOL   H13014408   3.800   1.856   5.640  2.0476 -2.3182  0.1183
   60MOL   H13114409   3.945   1.851   5.546 -0.6204 -0.6528 -0.0285
   60MOL   H13214410   3.683   2.118   5.616  0.6763 -0.1525 -0.0823
   60MOL   H13314411   3.638   2.005   5.478 -1.0608  0.2358 -1.3466
   60MOL   O13414412   3.702   2.186   5.300  0.5528  0.5152  0.4690
   60MOL   C13514413   3.723   2.294   5.205 -0.0917 -0.1392  0.0988
   60MOL   C13614414   3.851   2.258   5.141 -0.2650  0.2908 -0.0837
   60MOL   C13714415   3.596   2.295   5.108 -0.3004  0.1685 -0.2198
   60MOL   C13814416   3.498   2.415   5.128  0.2595  0.0519  0.0661
   60MOL   O13914417   3.376   2.392   5.148  0.4083 -0.2730  0.1753
   60MOL   H14014418   3.736   2.391   5.253 -1.6402  1.3824 -2.4309
   60MOL   H14114419   3.912   2.198   5.209  1.4940  0.5936 -1.3492
   60MOL   H14214420   3.913   2.345   5.120  0.3113 -0.0868  0.0353
   60MOL   H14314421   3.844   2.204   5.046  1.4768 -1.1432  0.5719
   60MOL   H14414422   3.528   2.210   5.109 -1.0316  0.7467  1.8199
   60MOL   H14514423   3.636   2.304   5.007  0.3746  3.7755  0.3049
   60MOL   O14614424   3.559   2.535   5.134 -0.4398 -0.1247  0.5327
   60MOL   C14714425   3.478   2.649   5.141 -0.4938 -0.4004 -0.0214
   60MOL   C14814426   3.483   2.695   5.285 -0.1779  0.1421 -0.5584
   60MOL   C14914427   3.535   2.754   5.039 -0.2603  0.3848  0.7614
   60MOL   C15014428   3.466   2.761   4.902 -0.4104 -0.0027  0.9404
   60MOL   O15114429   3.536   2.745   4.794 -0.7142  0.1132 -0.6128
   60MOL   H15214430   3.376   2.625   5.111 -1.3272  2.0034  0.7712
   60MOL   H15314431   3.422   2.784   5.296 -0.6049 -0.2735  0.4581
   60MOL   H15414432   3.586   2.724   5.306 -1.0713  2.7253  0.4384
   60MOL   H15514433   3.452   2.616   5.353  0.9024 -1.0607 -1.4485
   60MOL   H15614434   3.640   2.733   5.017  0.4763  2.3045  2.3494
   60MOL   H15714435   3.533   2.857   5.074 -2.1577  0.8233 -0.5302
   60MOL   O15814436   3.333   2.790   4.900  0.2196  0.1019 -0.2085
   60MOL   C15914437   3.257   2.785   4.787 -0.3457  0.6067  0.6434
   60MOL   C16014438   3.114   2.765   4.838 -0.4555  0.0913  0.1353
   60MOL   C16114439   3.277   2.916   4.715  0.3792  0.3856  0.2376
   60MOL   C16214440   3.203   2.923   4.580 -0.0580  0.6926 -0.5473
   60MOL   O16314441   3.120   2.839   4.545  0.5951 -0.6636  0.2570
   60MOL   H16414442   3.293   2.701   4.728 -1.7407  0.3227  0.1955
   60MOL   H16514443   3.108   2.684   4.911  2.8369  1.5187  2.1077
   60MOL   H16614444   3.049   2.730   4.758  0.7274 -0.5196 -0.5865
   60MOL   H16714445   3.070   2.854   4.883 -0.3453  0.6420 -0.8404
   60MOL   H16814446   3.383   2.935   4.699  1.1993 -2.5641  1.6932
   60MOL   H16914447   3.257   3.005   4.774  0.9452  0.4767  0.2982
   60MOL   O17014448   3.218   3.046   4.519  0.1585 -0.0067  0.2131
   60MOL   C17114449   3.152   3.072   4.388  0.3447  0.5190 -0.6298
   60MOL   C17214450   3.080   3.208   4.395 -0.2004  0.1349 -1.1031
   60MOL   C17314451   3.257   3.062   4.276  0.5809 -0.4674  0.3669
   60MOL   C17414452   3.204   3.081   4.128 -0.7424  0.0629 -0.4495
   60MOL   O17514453   3.177   2.988   4.055  0.4215 -0.0835 -0.0058
   60MOL   H17614454   3.080   2.992   4.372  0.7409  0.2038 -0.8366
   60MOL   H17714455   3.157   3.283   4.411  0.3875 -0.5459 -0.7101
   60MOL   H17814456   2.998   3.216   4.466 -0.4041 -0.9136 -1.2116
   60MOL   H17914457   3.044   3.251   4.302  0.6071  1.0792 -0.9902
   60MOL   H18014458   3.319   2.972   4.279  0.2843 -0.8119 -2.1170
   60MOL   H18114459   3.330   3.142   4.285 -1.1398  1.4635 -2.0363
   60MOL   O18214460   3.200   3.209   4.098 -0.2439 -0.5300  0.3542
   60MOL   C18314461   3.171   3.252   3.968  0.4364 -0.4095 -0.1713
   60MOL   C18414462   3.042   3.338   3.961 -0.1214 -0.2010 -1.0918
   60MOL   C18514463   3.292   3.328   3.916 -0.2415 -0.2199 -0.2943
   60MOL   C18614464   3.286   3.368   3.766  0.3568 -0.2164  0.2030
   60MOL   O18714465   3.379   3.343   3.702  0.0198  0.2310  0.0611
   60MOL   H18814466   3.162   3.167   3.901  1.2225 -0.5458 -0.1055
   60MOL   H18914467   2.966   3.302   4.030  2.7695 -1.3329  1.6539
   60MOL   H19014468   3.003   3.333   3.860 -0.1851 -0.4095 -1.0571
   60MOL   H19114469   3.059   3.444   3.981 -0.4350 -0.6033  1.5767
   60MOL   H19214470   3.382   3.266   3.922  0.3533  0.7389  0.7735
   60MOL   H19314471   3.309   3.421   3.969  0.3996 -0.3588 -0.2534
   60MOL   O19414472   3.186   3.438   3.733  0.7384  0.2953 -0.0830
   60MOL   C19514473   3.191   3.507   3.603 -1.0166  0.4143 -0.2653
   60MOL   C19614474   3.100   3.431   3.509  0.4632 -0.4478 -0.1248
   60MOL   C19714475   3.146   3.651   3.617  0.4811  1.0840  0.0418
   60MOL   C19814476   3.230   3.743   3.521  0.1900  0.2230 -0.1354
   60MOL   O19914477   3.267   3.715   3.408 -0.2555 -0.6055 -0.1268
   60MOL   H20014478   3.295   3.516   3.570 -0.3220  3.5873  2.4471
   60MOL   H20114479   3.002   3.430   3.558  0.0914  1.1951 -0.8050
   60MOL   H20214480   3.120   3.325   3.495  1.2001 -0.1753 -1.2316
   60MOL   H20314481   3.082   3.469   3.408  3.6534 -1.3144 -1.0793
   60MOL   H20414482   3.167   3.682   3.720  0.6769  1.7669 -0.1983
   60MOL   H20514483   3.042   3.657   3.587  0.4106  0.3220  0.1386
   60MOL   O20614484   3.253   3.862   3.584  0.0454  0.1504 -0.2711
   60MOL   C20714485   3.343   3.956   3.522 -0.1248  0.2388  0.0429
   60MOL   C20814486   3.262   4.054   3.433 -0.6801  0.4623  0.3318
   60MOL   C20914487   3.425   4.029   3.630 -0.2998 -0.3999 -0.2986
   60MOL   C21014488   3.526   3.946   3.712  0.0465  0.0438  0.3442
   60MOL   O21114489   3.642   3.941   3.678  0.1416 -0.3272  0.4984
   60MOL   H21214490   3.405   3.900   3.453 -0.8048 -1.0722  0.4669
   60MOL   H21314491   3.194   4.000   3.366 -1.2570  0.3848  0.9739
   60MOL   H21414492   3.330   4.115   3.373 -1.4044  0.6928 -0.2680
   60MOL   H21514493   3.213   4.132   3.491 -0.2684  0.2600  0.9483
   60MOL   H21614494   3.358   4.075   3.703  0.2579 -0.3154  0.1703
   60MOL   H21714495   3.476   4.109   3.576 -1.9590 -0.5077 -2.0451
   60MOL   O21814496   3.467   3.891   3.812 -0.0542  0.0512 -0.1312
   60MOL   C21914497   3.531   3.797   3.904  0.5474 -0.3513 -0.1571
   60MOL   C22014498   3.479   3.831   4.045  0.0479 -0.3916  0.5060
   60MOL   C22114499   3.487   3.654   3.873 -0.0408  0.2884 -0.8565
   60MOL   C22214500   3.564   3.597   3.752  0.1069  0.4674 -0.0321
   60MOL   O22314501   3.536   3.636   3.640  0.2341  0.4817 -0.1938
   60MOL   H22414502   3.638   3.813   3.904  0.1189  2.9922 -0.7432
   60MOL   H22514503   3.373   3.807   4.053 -0.0294  0.0293  0.7767
   60MOL   H22614504   3.493   3.938   4.060 -0.2492 -0.2280 -0.3700
   60MOL   H22714505   3.537   3.779   4.121 -0.2761 -0.9614  0.3696
   60MOL   H22814506   3.379   3.657   3.859 -0.2987 -1.3363  0.5593
   60MOL   H22914507   3.514   3.584   3.953  1.6645  2.0068  0.1190
   60MOL   O23014508   3.658   3.510   3.779 -0.2227  0.5950  0.1750
   60MOL   C23114509   3.717   3.440   3.676 -0.1610  0.1848 -0.5397
   60MOL   C23214510   3.858   3.492   3.650  0.2580 -0.2937 -0.3604
   60MOL   C23314511   3.718   3.290   3.727  0.1799  0.3302  0.1876
   60MOL   C23414512   3.753   3.184   3.621  0.0621  0.2267 -0.3093
   60MOL   O23514513   3.852   3.192   3.550  0.4221  0.1742  0.1120
   60MOL   H23614514   3.655   3.441   3.587  1.4813 -2.5771 -1.7698
   60MOL   H23714515   3.917   3.478   3.741 -0.2077  0.6007  0.0851
   60MOL   H23814516   3.848   3.598   3.625  1.2300 -0.4885 -1.6348
   60MOL   H23914517   3.901   3.432   3.570  1.0653  0.5814 -0.5874
   60MOL   H24014518   3.621   3.264   3.770  0.7930 -0.6735  0.9882
   60MOL   H24114519   3.785   3.277   3.812  2.4617  0.0885 -1.6292
   60MOL   H24214520   3.688   3.096   3.620  0.8646 -0.3660 -1.0648
   61MOL     O114521   4.838   4.851   5.996  0.5374  0.3168 -0.4032
   61MOL     C214522   4.778   4.960   5.931  0.1216 -0.1531 -0.2800
   61MOL     C314523   4.861   5.085   5.973  0.2686 -0.4775  0.2804
   61MOL     C414524   4.783   4.928   5.782  0.0093  0.4304 -0.1293
   61MOL     C514525   4.675   5.003   5.704  0.1255 -0.0811  0.0230
   61MOL     O614526   4.583   4.936   5.668 -0.0106  0.5620 -0.6167
   61MOL     H714527   4.675   4.967   5.968  0.1495 -1.7152  0.1325
   61MOL     H814528   4.833   5.130   6.068 -1.7783 -2.0054  0.4510
   61MOL     H914529   4.855   5.168   5.903  1.2611 -1.1699 -0.6371
   61MOL    H1014530   4.966   5.055   5.972  0.0091 -1.3996  0.0039
   61MOL    H1114531   4.758   4.824   5.761 -0.6358  1.1438 -3.0467
   61MOL    H1214532   4.883   4.955   5.749  1.3645 -1.6390  2.0810
   61MOL    H1314533   4.771   4.791   6.025 -0.7113  2.4523  1.3126
   61MOL    O1414534   4.686   5.137   5.699  0.7115 -0.4192 -0.4275
   61MOL    C1514535   4.599   5.208   5.623  0.3829 -0.3657 -0.2327
   61MOL    C1614536   4.562   5.328   5.707  0.2822 -0.3600  0.9232
   61MOL    C1714537   4.647   5.232   5.483 -0.6282 -0.9082 -0.6486
   61MOL    C1814538   4.765   5.331   5.472 -0.3503 -0.3738  0.5696
   61MOL    O1914539   4.791   5.394   5.368  0.3795  0.3079 -0.1068
   61MOL    H2014540   4.509   5.147   5.622  1.3188 -1.8335  1.4174
   61MOL    H2114541   4.517   5.300   5.803 -1.4208 -1.1545 -0.0670
   61MOL    H2214542   4.499   5.409   5.671  1.3243  0.1105  0.1777
   61MOL    H2314543   4.656   5.379   5.726  0.2118 -0.3247  1.1795
   61MOL    H2414544   4.574   5.294   5.431 -1.2832 -0.7114  0.4940
   61MOL    H2514545   4.671   5.137   5.436 -0.1877 -0.7995 -0.6485
   61MOL    O2614546   4.850   5.345   5.580  0.2713 -0.2858 -0.8743
   61MOL    C2714547   4.962   5.431   5.590  0.6738 -0.6839 -0.7244
   61MOL    C2814548   4.987   5.401   5.737  0.1163 -0.2389 -0.7276
   61MOL    C2914549   5.072   5.399   5.478 -0.6911 -0.5932 -0.3409
   61MOL    C3014550   5.218   5.404   5.525  0.4680  0.6599 -0.0477
   61MOL    O3114551   5.254   5.469   5.626 -0.8534  0.0496  0.0035
   61MOL    H3214552   4.927   5.534   5.586 -2.9991 -1.7524  1.4631
   61MOL    H3314553   4.904   5.432   5.801  0.1625 -0.9958 -0.3012
   61MOL    H3414554   5.066   5.466   5.776 -1.7524  1.3236  0.5419
   61MOL    H3514555   5.019   5.300   5.763  0.5400 -0.3020 -1.4769
   61MOL    H3614556   5.071   5.475   5.400  0.5295 -0.4158 -0.2030
   61MOL    H3714557   5.056   5.301   5.434 -2.0715 -0.0413 -1.0954
   61MOL    O3814558   5.294   5.342   5.432 -0.6196  0.3246 -0.6654
   61MOL    C3914559   5.435   5.357   5.455  0.2098 -0.8295  0.5130
   61MOL    C4014560   5.510   5.246   5.369  0.0293  0.1607 -0.0386
   61MOL    C4114561   5.487   5.501   5.434 -0.3228 -0.2218  0.1113
   61MOL    C4214562   5.457   5.562   5.293 -0.7726 -0.2875 -0.9816
   61MOL    O4314563   5.362   5.643   5.281 -0.0388  0.6856  0.3203
   61MOL    H4414564   5.460   5.343   5.560  2.0529  1.5400  0.4205
   61MOL    H4514565   5.612   5.274   5.345  0.2924 -0.6660  0.0755
   61MOL    H4614566   5.459   5.230   5.274 -0.3869 -1.5423  0.4412
   61MOL    H4714567   5.515   5.152   5.424  0.1110  0.1471 -0.0716
   61MOL    H4814568   5.594   5.490   5.445 -0.6311 -2.7778  0.9557
   61MOL    H4914569   5.456   5.576   5.507  2.3086  0.7779  0.2433
   61MOL    O5014570   5.527   5.509   5.197 -0.1802 -0.9162 -0.6422
   61MOL    C5114571   5.501   5.532   5.057  0.0296  0.3918 -0.2442
   61MOL    C5214572   5.613   5.465   4.971  0.8572 -0.1301 -0.2493
   61MOL    C5314573   5.363   5.472   5.020 -0.1445  0.0178 -0.3368
   61MOL    C5414574   5.310   5.516   4.887  0.5033  0.0490  0.1884
   61MOL    O5514575   5.355   5.477   4.780  0.1246 -0.5882 -0.3950
   61MOL    H5614576   5.507   5.639   5.036 -1.6551  0.3799 -0.8644
   61MOL    H5714577   5.626   5.360   4.995 -1.5723 -0.3415  0.1941
   61MOL    H5814578   5.710   5.516   4.980  0.3798  0.6940  0.3222
   61MOL    H5914579   5.585   5.478   4.866 -0.8404 -2.5339 -0.1101
   61MOL    H6014580   5.301   5.495   5.107 -0.1109 -1.9711  0.2248
   61MOL    H6114581   5.376   5.364   5.018  4.7083  0.4507  0.8505
   61MOL    O6214582   5.227   5.623   4.898  0.6692 -0.0212 -0.0102
   61MOL    C6314583   5.186   5.696   4.788 -0.2594  0.6479  1.0284
   61MOL    C6414584   5.040   5.647   4.764  0.4302  0.4279  0.8775
   61MOL    C6514585   5.198   5.848   4.822  0.5007  0.5976 -0.1570
   61MOL    C6614586   5.326   5.910   4.769 -0.1860 -0.0989  1.0311
   61MOL    O6714587   5.322   6.018   4.709 -0.4003 -0.0201 -0.1545
   61MOL    H6814588   5.256   5.678   4.706 -0.0215 -1.0986  1.6000
   61MOL    H6914589   5.027   5.542   4.741 -0.9769  0.9463 -0.7752
   61MOL    H7014590   5.008   5.697   4.672  0.7811  1.3444  1.2439
   61MOL    H7114591   4.963   5.675   4.836 -0.6778  1.3447 -0.6340
   61MOL    H7214592   5.180   5.862   4.929  0.2434  1.1340 -0.2645
   61MOL    H7314593   5.116   5.900   4.771  0.2114  0.1131 -0.1923
   61MOL    O7414594   5.445   5.850   4.816  0.3549  0.2562 -0.7194
   61MOL    C7514595   5.568   5.895   4.782 -0.0695  0.6073 -0.8521
   61MOL    C7614596   5.631   5.991   4.889  0.6030 -0.1044 -0.1568
   61MOL    C7714597   5.664   5.776   4.757  0.5798  0.1594  0.0814
   61MOL    C7814598   5.624   5.690   4.636  0.4090 -0.2162 -0.3314
   61MOL    O7914599   5.570   5.743   4.544  0.3280 -0.2516  0.1417
   61MOL    H8014600   5.558   5.949   4.688  0.8828 -0.7332 -1.7485
   61MOL    H8114601   5.583   6.087   4.912 -0.2660 -0.6920  0.5156
   61MOL    H8214602   5.736   6.001   4.861  1.0017 -0.4301  1.2199
   61MOL    H8314603   5.626   5.939   4.984  2.6115 -0.0407 -0.0080
   61MOL    H8414604   5.661   5.715   4.847 -1.2688  1.6485  1.0518
   61MOL    H8514605   5.764   5.814   4.738  0.7180 -0.1445  0.2047
   61MOL    O8614606   5.675   5.557   4.657  0.0640  0.2658  0.0308
   61MOL    C8714607   5.678   5.462   4.553 -0.5347  0.4069  0.3476
   61MOL    C8814608   5.819   5.403   4.547  0.1357 -0.0257 -0.0723
   61MOL    C8914609   5.574   5.346   4.577 -0.5051 -0.1903  0.1101
   61MOL    C9014610   5.568   5.243   4.469 -0.6941 -0.1733  0.2515
   61MOL    O9114611   5.596   5.127   4.493  0.1567  0.2750 -0.1177
   61MOL    H9214612   5.661   5.510   4.457  2.9155 -0.2073 -0.6609
   61MOL    H9314613   5.851   5.327   4.618  1.8486  0.1456 -0.6475
   61MOL    H9414614   5.886   5.487   4.564 -0.6557  0.8005 -0.9466
   61MOL    H9514615   5.842   5.364   4.448 -0.0966  1.9211 -0.9045
   61MOL    H9614616   5.482   5.405   4.565 -0.1031  0.3147 -0.5240
   61MOL    H9714617   5.562   5.301   4.675  0.7501 -0.7136  0.0285
   61MOL    O9814618   5.539   5.299   4.355  0.2982  0.0729  0.6960
   61MOL    C9914619   5.525   5.217   4.236  0.4377  0.0766  0.2236
   61MOL   C10014620   5.404   5.263   4.153 -0.7104 -0.0204  0.2047
   61MOL   C10114621   5.652   5.210   4.157 -0.5039  0.2213  0.5636
   61MOL   C10214622   5.700   5.327   4.091 -0.5485 -0.5251 -0.1650
   61MOL   O10314623   5.722   5.433   4.152 -0.2387 -0.9283  0.6527
   61MOL   H10414624   5.503   5.114   4.264  1.3419 -0.3196 -0.5021
   61MOL   H10514625   5.410   5.364   4.113 -1.4870 -1.0339 -2.5632
   61MOL   H10614626   5.310   5.264   4.208 -0.3667  0.3907  0.7774
   61MOL   H10714627   5.396   5.194   4.069  1.6665 -0.4726  0.3158
   61MOL   H10814628   5.636   5.130   4.084  1.5763  1.6370 -1.5329
   61MOL   H10914629   5.731   5.182   4.228  1.6095 -1.5455 -2.3556
   61MOL   O11014630   5.721   5.300   3.963 -0.4450 -0.5124  0.2241
   61MOL   C11114631   5.782   5.390   3.867 -0.6044  0.7848 -0.7108
   61MOL   C11214632   5.868   5.311   3.770  0.0843 -0.4102 -0.1166
   61MOL   C11314633   5.658   5.454   3.795 -0.7540  0.2549  0.6305
   61MOL   C11414634   5.603   5.572   3.870 -0.2981 -0.2418  0.2860
   61MOL   O11514635   5.488   5.576   3.912 -0.1857 -0.5105  0.0144
   61MOL   H11614636   5.832   5.468   3.925 -2.1695  1.1327  0.2184
   61MOL   H11714637   5.939   5.250   3.826 -3.1085 -2.4684  1.8782
   61MOL   H11814638   5.912   5.375   3.695  1.9908 -2.5576 -0.8743
   61MOL   H11914639   5.811   5.236   3.715 -1.0774 -0.7280  1.4565
   61MOL   H12014640   5.583   5.377   3.778  0.1950 -0.7112  0.7284
   61MOL   H12114641   5.700   5.489   3.700  2.3803  0.7572  2.1137
   61MOL   O12214642   5.692   5.675   3.888  0.3815  0.3200  0.2161
   61MOL   C12314643   5.676   5.771   3.991  0.3037 -0.1140 -0.0604
   61MOL   C12414644   5.823   5.802   4.035 -0.4953  0.0877 -0.1838
   61MOL   C12514645   5.581   5.890   3.946 -0.4014  0.2225 -0.0048
   61MOL   C12614646   5.530   5.976   4.056 -0.2336  0.6757 -0.0336
   61MOL   O12714647   5.565   5.960   4.173 -0.1150  0.0961 -0.0122
   61MOL   H12814648   5.622   5.722   4.072  1.0362  0.4954  0.8049
   61MOL   H12914649   5.884   5.838   3.952  0.6729 -0.8623  0.2597
   61MOL   H13014650   5.869   5.716   4.083 -0.1371  0.9610  1.0479
   61MOL   H13114651   5.828   5.872   4.118  1.9528 -0.2087 -0.0579
   61MOL   H13214652   5.500   5.835   3.899 -1.8980  0.3567  2.3419
   61MOL   H13314653   5.632   5.955   3.874  0.6194  0.6915  1.1089
   61MOL   O13414654   5.433   6.063   4.014 -0.2851 -0.7415 -0.4288
   61MOL   C13514655   5.389   6.168   4.107  0.6389 -0.1369 -0.1473
   61MOL   C13614656   5.326   6.290   4.037  0.4864  0.4297 -0.7940
   61MOL   C13714657   5.291   6.115   4.221 -0.2684  0.1278 -0.5583
   61MOL   C13814658   5.152   6.048   4.179 -0.4498  0.6621  0.0860
   61MOL   O13914659   5.045   6.098   4.212  0.3015 -0.5660 -0.0944
   61MOL   H14014660   5.476   6.209   4.158 -0.0083  1.4169 -0.2780
   61MOL   H14114661   5.244   6.261   3.971  0.4599 -3.4342  0.8067
   61MOL   H14214662   5.397   6.351   3.982  1.2453 -0.8878 -1.3006
   61MOL   H14314663   5.282   6.357   4.111  1.9162  0.9794 -0.4254
   61MOL   H14414664   5.279   6.187   4.302 -0.8655  1.4542 -1.8029
   61MOL   H14514665   5.344   6.037   4.276 -0.4199  1.3507  1.3602
   61MOL   O14614666   5.171   5.938   4.106 -0.5745  0.3002 -0.1184
   61MOL   C14714667   5.060   5.881   4.038  0.0396 -0.2769  0.3411
   61MOL   C14814668   5.124   5.814   3.923  0.5669 -0.1264 -0.4547
   61MOL   C14914669   4.980   5.784   4.139  0.3325 -0.2229 -0.0449
   61MOL   C15014670   5.054   5.660   4.185 -0.4764 -0.2000 -1.0231
   61MOL   O15114671   5.018   5.551   4.146 -0.1240  0.3904  0.2531
   61MOL   H15214672   4.989   5.954   3.998  0.4852 -1.4663 -2.7695
   61MOL   H15314673   5.148   5.891   3.849  0.4570  0.4076  0.0599
   61MOL   H15414674   5.061   5.747   3.865 -3.5314  2.7472  0.5068
   61MOL   H15514675   5.211   5.750   3.939  1.4103  1.4084  1.2732
   61MOL   H15614676   4.888   5.746   4.093 -0.7967  0.4035  1.6293
   61MOL   H15714677   4.949   5.844   4.225 -1.0846 -0.6773 -0.2258
   61MOL   O15814678   5.168   5.696   4.257  0.0391 -0.3132 -0.3169
   61MOL   C15914679   5.250   5.591   4.309 -0.1901  0.3764 -0.1175
   61MOL   C16014680   5.402   5.613   4.288  0.3338 -0.6471  0.1780
   61MOL   C16114681   5.220   5.555   4.455  0.4297  0.6382 -0.0095
   61MOL   C16214682   5.151   5.423   4.463 -0.2448 -0.6337  0.0184
   61MOL   O16314683   5.225   5.320   4.454 -0.7406  0.3913  0.2468
   61MOL   H16414684   5.228   5.498   4.256 -3.9098  0.8426  0.4782
   61MOL   H16514685   5.427   5.628   4.183 -0.3720  0.7098  0.1832
   61MOL   H16614686   5.460   5.533   4.332 -0.5207 -0.9632  0.7582
   61MOL   H16714687   5.422   5.704   4.345 -2.0475 -0.8412  1.4074
   61MOL   H16814688   5.149   5.625   4.499 -1.0418 -1.1025  0.4798
   61MOL   H16914689   5.307   5.541   4.519  0.0615  0.3337  0.4317
   61MOL   O17014690   5.016   5.426   4.473  0.3203  0.2682 -0.2367
   61MOL   C17114691   4.941   5.303   4.464  0.6789 -0.1515 -0.2211
   61MOL   C17214692   4.820   5.323   4.563 -0.1850 -0.7972  0.4706
   61MOL   C17314693   4.897   5.299   4.314  0.4075 -0.5858 -0.8279
   61MOL   C17414694   4.852   5.157   4.265 -0.2426  0.0086  0.4635
   61MOL   O17514695   4.931   5.059   4.250 -0.0005  0.4639 -0.1443
   61MOL   H17614696   4.990   5.213   4.498 -1.3502 -0.4783  1.9746
   61MOL   H17714697   4.778   5.222   4.566  0.5584 -1.0983  0.9237
   61MOL   H17814698   4.732   5.380   4.530  0.6492  0.4242  0.3169
   61MOL   H17914699   4.854   5.344   4.664  0.6602 -2.6388  0.5936
   61MOL   H18014700   4.980   5.332   4.251  1.5743 -1.4199  0.2450
   61MOL   H18114701   4.807   5.359   4.299  0.0330 -1.2126 -1.1153
   61MOL   O18214702   4.718   5.154   4.251 -0.0986  0.5077 -0.1643
   61MOL   C18314703   4.651   5.033   4.201  0.0902  0.1877  1.2327
   61MOL   C18414704   4.534   4.999   4.292 -0.1024 -0.1757 -0.4265
   61MOL   C18514705   4.610   5.045   4.056  0.3351  0.4778 -0.3263
   61MOL   C18614706   4.721   5.001   3.964  0.0826 -0.0389 -0.2739
   61MOL   O18714707   4.792   5.082   3.904  0.7950  0.1935  0.5339
   61MOL   H18814708   4.719   4.949   4.214  0.5808  0.4537  0.4616
   61MOL   H18914709   4.577   5.006   4.392  2.0989  0.7116 -1.4021
   61MOL   H19014710   4.481   4.906   4.272  0.5313 -1.1120  2.0028
   61MOL   H19114711   4.452   5.069   4.279 -0.2743 -0.5301 -1.2763
   61MOL   H19214712   4.579   5.149   4.045  1.3169  1.2216  3.1877
   61MOL   H19314713   4.524   4.981   4.038 -0.5644  1.8546 -1.0750
   61MOL   O19414714   4.750   4.873   3.972  0.1549  0.1532  0.1110
   61MOL   C19514715   4.864   4.819   3.908 -0.7572  0.3059  0.0682
   61MOL   C19614716   4.993   4.868   3.984  0.4220  0.3942 -0.2975
   61MOL   C19714717   4.847   4.666   3.909 -0.3300  0.2409 -0.5320
   61MOL   C19814718   4.949   4.604   3.815  0.9809  0.4451  0.0085
   61MOL   O19914719   4.911   4.571   3.698  0.8908  0.5362  0.3455
   61MOL   H20014720   4.865   4.846   3.803  1.3390  3.5544  0.8577
   61MOL   H20114721   4.998   4.837   4.088  2.4319  0.9971 -0.1870
   61MOL   H20214722   4.995   4.977   3.974 -0.1514  0.4476  0.1923
   61MOL   H20314723   5.091   4.836   3.947  1.0937 -0.3536  2.0462
   61MOL   H20414724   4.747   4.628   3.890  0.2833 -2.3292  1.1118
   61MOL   H20514725   4.880   4.626   4.005 -0.6134  1.2746  0.0121
   61MOL   O20614726   5.063   4.573   3.871  0.3528 -0.4673  0.0368
   61MOL   C20714727   5.175   4.527   3.797  0.4942 -0.3285 -0.2378
   61MOL   C20814728   5.307   4.585   3.845 -0.0979 -0.0434 -0.0419
   61MOL   C20914729   5.177   4.369   3.800 -0.1913 -0.0122 -0.2438
   61MOL   C21014730   5.252   4.305   3.685 -0.6698 -0.0417 -0.4138
   61MOL   O21114731   5.196   4.256   3.584  0.2451  0.2416  0.0430
   61MOL   H21214732   5.167   4.566   3.696  2.3999  0.7614  0.0009
   61MOL   H21314733   5.381   4.571   3.766 -0.9023  1.0914 -1.0170
   61MOL   H21414734   5.349   4.542   3.936  2.2259  0.4504 -0.8432
   61MOL   H21514735   5.296   4.693   3.855  1.7212  0.2408 -0.8565
   61MOL   H21614736   5.075   4.337   3.777 -0.7461  1.2793  0.3591
   61MOL   H21714737   5.199   4.329   3.899 -1.5682 -0.5825 -0.1507
   61MOL   O21814738   5.383   4.324   3.700  0.4287 -0.1693 -0.2403
   61MOL   C21914739   5.468   4.267   3.598 -0.2191 -0.4030  0.0603
   61MOL   C22014740   5.585   4.364   3.585 -0.1386  0.0489 -0.2645
   61MOL   C22114741   5.491   4.117   3.617 -0.7282 -0.5507  0.3309
   61MOL   C22214742   5.569   4.051   3.502 -0.4175 -0.5669 -0.3918
   61MOL   O22314743   5.675   3.996   3.522 -0.4133  0.1541 -0.4420
   61MOL   H22414744   5.428   4.288   3.500  1.0336  0.3221 -0.3106
   61MOL   H22514745   5.648   4.376   3.673 -0.0116  1.7352 -0.5752
   61MOL   H22614746   5.551   4.466   3.568  0.1657  0.2006  0.0184
   61MOL   H22714747   5.651   4.340   3.501 -0.2065  0.3540 -0.4048
   61MOL   H22814748   5.398   4.060   3.626 -0.9269  0.1031  2.9249
   61MOL   H22914749   5.556   4.105   3.704 -0.0327 -1.8360 -0.3458
   61MOL   O23014750   5.498   4.067   3.382  0.1826  0.2452 -0.3819
   61MOL   C23114751   5.558   4.022   3.259  0.1975  0.8451 -0.8805
   61MOL   C23214752   5.473   3.901   3.213  0.2481  0.6805 -0.5055
   61MOL   C23314753   5.569   4.131   3.154  0.3971  0.5518 -0.2408
   61MOL   C23414754   5.678   4.233   3.187  0.0824  0.4985 -0.2913
   61MOL   O23514755   5.793   4.196   3.214 -0.2357 -0.2623 -0.2328
   61MOL   H23614756   5.657   3.980   3.279  0.0070  1.2868  1.0778
   61MOL   H23714757   5.416   3.858   3.294 -1.0292  0.1141 -1.6877
   61MOL   H23814758   5.530   3.821   3.166 -2.2452 -1.2115 -0.4135
   61MOL   H23914759   5.390   3.924   3.146 -0.0836 -0.9661 -0.6648
   61MOL   H24014760   5.488   4.201   3.130 -0.2117 -0.9984 -2.8311
   61MOL   H24114761   5.589   4.078   3.062  0.3660  0.5044 -0.2201
   61MOL   H24214762   5.639   4.333   3.205 -0.8531 -0.1255  1.3049
   62MOL     O114763   5.652   7.224   3.367  0.4779 -0.2073  0.0683
   62MOL     C214764   5.589   7.127   3.446  0.2758  0.0083 -0.0649
   62MOL     C314765   5.609   7.156   3.597 -0.6056  0.1023  0.2002
   62MOL     C414766   5.442   7.110   3.403  0.0222  0.0365  0.0863
   62MOL     C514767   5.344   7.016   3.463 -0.4428 -0.0025 -0.1548
   62MOL     O614768   5.381   6.932   3.548  0.1849  0.2391  0.3201
   62MOL     H714769   5.637   7.036   3.410  1.8057  0.8233 -0.1216
   62MOL     H814770   5.716   7.154   3.617 -0.7446 -0.4467  0.9148
   62MOL     H914771   5.559   7.080   3.657  0.3829 -0.9417 -0.2878
   62MOL    H1014772   5.582   7.253   3.638  2.1906 -0.1830  2.9263
   62MOL    H1114773   5.456   7.092   3.297 -1.7134 -1.0963  0.0381
   62MOL    H1214774   5.392   7.207   3.400  0.2667  0.1611  0.0484
   62MOL    H1314775   5.721   7.182   3.318  0.0468 -0.5328 -0.2581
   62MOL    O1414776   5.222   7.046   3.418  0.1330  0.5139  0.0378
   62MOL    C1514777   5.101   6.992   3.470  0.1455  0.6122  0.7217
   62MOL    C1614778   4.995   7.097   3.513 -0.1608  0.3982 -0.1590
   62MOL    C1714779   5.041   6.883   3.376  0.2143  0.5555 -0.3737
   62MOL    C1814780   5.128   6.760   3.371  0.2961 -0.4069  0.3574
   62MOL    O1914781   5.095   6.663   3.443  0.5192 -0.9115 -0.2011
   62MOL    H2014782   5.122   6.948   3.567 -0.2241  2.7495  1.7924
   62MOL    H2114783   5.021   7.156   3.601 -2.0526 -0.4981  1.0449
   62MOL    H2214784   4.902   7.050   3.547  0.5690 -1.8090 -1.1201
   62MOL    H2314785   4.976   7.176   3.440 -0.1640 -1.2263 -1.9447
   62MOL    H2414786   5.032   6.920   3.274 -0.1848 -2.1733 -1.3862
   62MOL    H2514787   4.947   6.848   3.419  1.8351 -0.3488  2.5827
   62MOL    O2614788   5.238   6.766   3.294  0.5438 -0.6297  0.3698
   62MOL    C2714789   5.307   6.643   3.255  0.6647 -0.6699 -0.0946
   62MOL    C2814790   5.340   6.669   3.108  0.6213  0.3687 -0.0391
   62MOL    C2914791   5.415   6.599   3.354  1.0466  0.2086  0.4491
   62MOL    C3014792   5.533   6.690   3.378  0.1767  0.0847 -0.3892
   62MOL    O3114793   5.566   6.771   3.292  0.1917  0.3475  0.0616
   62MOL    H3214794   5.242   6.555   3.258  0.6457 -0.6922 -0.9206
   62MOL    H3314795   5.397   6.761   3.094  4.0525 -1.5511  0.8128
   62MOL    H3414796   5.252   6.682   3.044 -0.2300 -0.6847  0.8868
   62MOL    H3514797   5.398   6.586   3.069 -1.1653  0.3289 -2.7362
   62MOL    H3614798   5.455   6.509   3.306  0.3485  0.8108 -1.2689
   62MOL    H3714799   5.377   6.569   3.452 -0.8955 -1.4245 -0.7506
   62MOL    O3814800   5.591   6.672   3.493 -0.0297  0.3440  0.1302
   62MOL    C3914801   5.702   6.754   3.530 -0.0509 -0.8845  0.6423
   62MOL    C4014802   5.700   6.779   3.687 -0.0128  0.1877  0.2907
   62MOL    C4114803   5.833   6.680   3.490 -0.2235  0.0545 -0.4676
   62MOL    C4214804   5.880   6.715   3.347 -0.6512 -0.6076  0.0238
   62MOL    O4314805   5.957   6.815   3.324 -0.0964  0.3303  0.2533
   62MOL    H4414806   5.709   6.849   3.476  0.9973 -1.4640 -0.2617
   62MOL    H4514807   5.743   6.689   3.731  0.7828  1.2926  1.8081
   62MOL    H4614808   5.598   6.791   3.723 -0.0596  2.5780 -0.5482
   62MOL    H4714809   5.761   6.867   3.709  1.7393 -0.5879 -1.3048
   62MOL    H4814810   5.839   6.572   3.500  1.7531  0.3604  2.0294
   62MOL    H4914811   5.908   6.718   3.559 -0.5584 -2.3556  1.2743
   62MOL    O5014812   5.839   6.636   3.254  0.3484  0.2731  0.6075
   62MOL    C5114813   5.858   6.658   3.115 -0.3110  0.3252 -0.2605
   62MOL    C5214814   5.807   6.518   3.066  0.1188 -0.2151  0.5223
   62MOL    C5314815   5.764   6.762   3.060 -0.3751 -0.2417  0.1020
   62MOL    C5414816   5.810   6.809   2.921  0.8209  0.0257  0.7835
   62MOL    O5514817   5.928   6.799   2.888  0.1659  0.1419  0.6519
   62MOL    H5614818   5.965   6.676   3.107 -0.6781  3.2871  1.0459
   62MOL    H5714819   5.707   6.510   3.110  0.7808  0.9360  2.2997
   62MOL    H5814820   5.866   6.438   3.111 -2.2707 -1.0031  2.3809
   62MOL    H5914821   5.811   6.496   2.959  1.7215 -1.7995  0.8830
   62MOL    H6014822   5.765   6.849   3.126  1.5237 -0.2411  0.0900
   62MOL    H6114823   5.667   6.712   3.057 -0.8117  0.4418  1.8799
   62MOL    O6214824   5.705   6.854   2.848  0.6500 -0.0299  0.0823
   62MOL    C6314825   5.729   6.899   2.712 -0.6017  0.5006 -0.6731
   62MOL    C6414826   5.693   6.795   2.612  0.4352 -0.1631  0.1491
   62MOL    C6514827   5.661   7.027   2.672  0.0541 -0.4675  0.6478
   62MOL    C6614828   5.510   7.024   2.677 -0.3136  0.2905 -0.4021
   62MOL    O6714829   5.437   7.057   2.582 -0.5615 -0.8302 -0.1859
   62MOL    H6814830   5.835   6.925   2.707 -0.5049 -0.0110 -1.4793
   62MOL    H6914831   5.753   6.706   2.628 -0.7193 -1.6093 -3.1112
   62MOL    H7014832   5.710   6.825   2.508 -1.8603  2.2884  0.4103
   62MOL    H7114833   5.587   6.768   2.614  0.7640 -1.4329  0.8588
   62MOL    H7214834   5.692   7.052   2.571  0.1743 -0.0138  0.7963
   62MOL    H7314835   5.683   7.107   2.743 -1.5660 -0.2760  0.9744
   62MOL    O7414836   5.461   6.994   2.797  0.7706  0.1411 -0.5527
   62MOL    C7514837   5.318   6.996   2.825  0.2372  0.1161 -0.2471
   62MOL    C7614838   5.260   6.858   2.785  0.0553  0.2438 -0.4065
   62MOL    C7714839   5.310   7.016   2.974  0.0944 -0.1238 -0.1270
   62MOL    C7814840   5.327   7.157   3.029  0.1283 -0.4923 -0.6361
   62MOL    O7914841   5.242   7.206   3.110  0.2590 -0.1391  0.9709
   62MOL    H8014842   5.264   7.076   2.775  1.8919  1.4948  0.1277
   62MOL    H8114843   5.256   6.853   2.676 -2.3883 -1.8573 -0.2786
   62MOL    H8214844   5.164   6.844   2.835  1.0145 -2.0316  0.8803
   62MOL    H8314845   5.322   6.774   2.815  1.0971  1.5992  1.3083
   62MOL    H8414846   5.380   6.945   3.017 -0.4926 -0.6029  0.0564
   62MOL    H8514847   5.212   6.978   3.006  0.2076 -0.4722 -0.1920
   62MOL    O8614848   5.416   7.237   2.966 -0.2633 -0.6006 -0.5007
   62MOL    C8714849   5.410   7.376   2.982  0.3493 -0.5734  0.1542
   62MOL    C8814850   5.498   7.424   3.097  0.4079  0.3202 -0.2166
   62MOL    C8914851   5.473   7.439   2.857  0.1165 -0.1003 -0.2524
   62MOL    C9014852   5.374   7.459   2.741 -0.1004  0.1935 -0.1358
   62MOL    O9114853   5.382   7.557   2.671 -0.2105  0.0410  0.1596
   62MOL    H9214854   5.309   7.415   2.994  0.8134  1.3054 -1.8440
   62MOL    H9314855   5.603   7.395   3.109 -0.2089 -1.0794  1.9598
   62MOL    H9414856   5.461   7.371   3.184  3.2568  0.0935  0.9354
   62MOL    H9514857   5.489   7.530   3.123 -1.8214  0.2035 -0.4718
   62MOL    H9614858   5.561   7.382   2.826  0.4730  0.4378 -0.2376
   62MOL    H9714859   5.525   7.535   2.864  0.9372 -0.5929  0.5168
   62MOL    O9814860   5.295   7.359   2.713 -0.8426 -0.2695 -0.1323
   62MOL    C9914861   5.193   7.376   2.612  0.2791 -0.3174  0.4616
   62MOL   C10014862   5.245   7.366   2.467 -0.1930  0.4241  0.0149
   62MOL   C10114863   5.073   7.289   2.653  0.4735  0.5152 -0.4399
   62MOL   C10214864   4.952   7.297   2.559  0.5270  0.0284 -0.8272
   62MOL   O10314865   4.914   7.194   2.505  0.3947  0.3835 -0.2284
   62MOL   H10414866   5.153   7.478   2.611 -0.9242 -0.7844 -0.9920
   62MOL   H10514867   5.333   7.426   2.444  0.9475 -1.4556 -0.6300
   62MOL   H10614868   5.165   7.378   2.394  0.6316  0.9626 -0.7966
   62MOL   H10714869   5.281   7.263   2.463  2.4326  1.2048  2.1700
   62MOL   H10814870   5.034   7.327   2.747  0.8974 -0.1315 -0.0030
   62MOL   H10914871   5.108   7.187   2.669  0.4475  0.8581  2.0037
   62MOL   O11014872   4.896   7.417   2.550  0.5900 -0.5281 -0.3460
   62MOL   C11114873   4.789   7.455   2.457  0.5852  0.2223  0.3388
   62MOL   C11214874   4.678   7.532   2.537  0.1433 -0.1830  0.2547
   62MOL   C11314875   4.843   7.528   2.335 -0.3946  1.0549 -0.2307
   62MOL   C11414876   4.887   7.671   2.361  0.4124 -0.2262 -0.2088
   62MOL   O11514877   4.828   7.765   2.315  0.0397 -0.2927  0.1639
   62MOL   H11614878   4.729   7.368   2.433  0.0156  0.3232  1.3776
   62MOL   H11714879   4.700   7.635   2.564 -0.4614 -0.2254  0.9155
   62MOL   H11814880   4.656   7.470   2.623  2.4807 -1.0312  0.2970
   62MOL   H11914881   4.592   7.547   2.472 -0.1943 -1.6034  0.3478
   62MOL   H12014882   4.755   7.534   2.271  0.8274  0.0809 -2.0653
   62MOL   H12114883   4.919   7.475   2.277  0.1994  1.2169  0.3892
   62MOL   O12214884   4.996   7.676   2.439  0.2618 -0.0065  0.1849
   62MOL   C12314885   5.027   7.796   2.517  0.9233  0.3576 -0.3252
   62MOL   C12414886   5.051   7.772   2.663  0.0626 -0.0191 -0.1232
   62MOL   C12514887   5.132   7.883   2.441  0.3493  0.1055  0.5603
   62MOL   C12614888   5.264   7.815   2.410 -0.0478 -0.0779  0.5896
   62MOL   O12714889   5.262   7.696   2.365  0.5255 -0.2471 -0.0110
   62MOL   H12814890   4.936   7.855   2.525  0.3606 -0.4567 -0.6392
   62MOL   H12914891   4.959   7.735   2.708  0.7404 -1.2880  0.2420
   62MOL   H13014892   5.088   7.857   2.720  3.1190 -1.4272  0.1077
   62MOL   H13114893   5.126   7.693   2.669  0.5255  0.3512 -1.0523
   62MOL   H13214894   5.156   7.975   2.494  0.3565  0.1423  0.4915
   62MOL   H13314895   5.081   7.910   2.349 -1.1825  1.7593  1.8678
   62MOL   O13414896   5.378   7.886   2.434 -0.4046 -0.3370 -0.1603
   62MOL   C13514897   5.498   7.839   2.392  0.6032  0.1161  0.5363
   62MOL   C13614898   5.568   7.959   2.318 -0.1707  0.1293 -0.3917
   62MOL   C13714899   5.574   7.781   2.517 -0.3792 -0.7066  0.8229
   62MOL   C13814900   5.675   7.667   2.496  0.0554  0.1811 -0.2536
   62MOL   O13914901   5.786   7.670   2.550 -0.4007 -0.7445  0.3068
   62MOL   H14014902   5.483   7.765   2.313  0.3511  0.7027  0.0292
   62MOL   H14114903   5.515   0.023   2.234 -0.2379  2.8994  1.0463
   62MOL   H14214904   5.660   7.915   2.278  0.0012  0.9483 -0.9208
   62MOL   H14314905   5.614   0.053   2.385  0.0098  1.0251 -1.4848
   62MOL   H14414906   5.496   7.742   2.582 -0.2429 -1.1228  0.7350
   62MOL   H14514907   5.616   7.868   2.569  0.9617 -1.3793  0.8854
   62MOL   O14614908   5.621   7.561   2.432 -0.3782 -0.4690 -0.2467
   62MOL   C14714909   5.706   7.451   2.399 -0.1568  0.1134  0.0024
   62MOL   C14814910   5.674   7.318   2.463 -0.0435  0.2644 -0.2291
   62MOL   C14914911   5.730   7.434   2.248  0.5567 -0.6421 -0.0601
   62MOL   C15014912   5.876   7.406   2.217 -0.3872 -0.1081  0.2931
   62MOL   O15114913   5.947   7.487   2.151  0.1891  0.2448  0.4875
   62MOL   H15214914   5.802   7.464   2.448 -0.3223  1.4971 -0.0170
   62MOL   H15314915   5.588   7.274   2.414 -1.8273  0.4258  2.6531
   62MOL   H15414916   5.641   7.314   2.567  0.3130 -0.5862 -0.1487
   62MOL   H15514917   5.750   7.240   2.452 -0.8177 -0.2156 -2.3763
   62MOL   H15614918   5.703   7.528   2.200 -0.3300 -1.8207 -1.9516
   62MOL   H15714919   5.665   7.358   2.205 -0.0553 -1.2871  1.9594
   62MOL   O15814920   5.917   7.295   2.265 -0.0865  0.3148  0.0232
   62MOL   C15914921   6.050   7.238   2.247  0.1472  0.1250 -0.4687
   62MOL   C16014922   6.153   7.313   2.336 -0.1879  0.2907 -0.3894
   62MOL   C16114923   6.053   7.085   2.269  0.4414  0.5286  0.5308
   62MOL   C16214924   6.016   7.040   2.412  1.0884  0.3504  0.7356
   62MOL   O16314925   5.902   6.998   2.436  0.3443  0.6352 -0.2218
   62MOL   H16414926   6.068   7.247   2.140 -3.1234 -2.0600 -1.2829
   62MOL   H16514927   6.124   7.321   2.440  1.5115  0.1495  0.1060
   62MOL   H16614928   6.165   7.417   2.305 -1.1157  0.6731  0.4766
   62MOL   H16714929   6.253   7.270   2.336  0.0190  0.6407  3.2294
   62MOL   H16814930   6.148   7.037   2.246  0.1924  0.6095 -0.7159
   62MOL   H16914931   5.973   7.049   2.205  1.2563 -1.0445  0.3967
   62MOL   O17014932   6.114   7.055   2.500  0.6957 -0.0249  0.8251
   62MOL   C17114933   6.111   7.032   2.643  0.2922  0.4094 -0.3220
   62MOL   C17214934   6.204   6.915   2.688 -0.5774 -0.7461  0.5587
   62MOL   C17314935   6.155   7.164   2.701  0.0415  0.1018 -0.5824
   62MOL   C17414936   6.046   7.268   2.705  0.1740  0.2441 -0.9314
   62MOL   O17514937   5.929   7.244   2.679 -0.6518  0.3139 -0.1249
   62MOL   H17614938   6.010   7.011   2.676 -1.1433  3.2910 -2.5671
   62MOL   H17714939   6.223   6.916   2.795  1.2269  0.6537  0.2483
   62MOL   H17814940   6.301   6.926   2.639 -1.0301 -0.4519 -0.2952
   62MOL   H17914941   6.165   6.817   2.662 -1.0598 -0.5219  0.4338
   62MOL   H18014942   6.240   7.203   2.646  0.6344 -0.5791 -0.1538
   62MOL   H18114943   6.197   7.137   2.798  0.8955  0.4178 -0.8591
   62MOL   O18214944   6.101   7.387   2.736 -0.1647  0.0630 -0.3959
   62MOL   C18314945   6.022   7.506   2.745 -0.0060 -0.3056 -0.1226
   62MOL   C18414946   5.953   7.502   2.883  0.4274 -0.5130  0.3674
   62MOL   C18514947   6.113   7.628   2.715 -0.0445  0.4033 -0.5276
   62MOL   C18614948   6.160   7.617   2.572  0.2788 -0.4777 -0.1760
   62MOL   O18714949   6.246   7.542   2.534  0.6958  0.2480  0.2479
   62MOL   H18814950   5.947   7.488   2.668 -0.1467  1.4847 -0.4393
   62MOL   H18914951   6.020   7.503   2.969  0.2722 -0.2307  0.4867
   62MOL   H19014952   5.895   7.410   2.893  0.6682 -0.6399  0.6073
   62MOL   H19114953   5.886   7.587   2.897  2.6272  1.4269 -0.5452
   62MOL   H19214954   6.194   7.615   2.787 -1.2870 -1.6131  0.5450
   62MOL   H19314955   6.057   7.719   2.739 -1.7900 -0.3890 -1.5451
   62MOL   O19414956   6.089   7.709   2.495  0.1655  0.5975 -0.1490
   62MOL   C19514957   6.120   7.728   2.353  0.2632 -0.1336  0.5048
   62MOL   C19614958   5.999   7.795   2.284 -0.0437 -0.2395 -0.6649
   62MOL   C19714959   6.245   7.823   2.347 -0.3265  0.4072  0.8720
   62MOL   C19814960   6.301   7.841   2.208 -0.4255 -0.5318 -0.0069
   62MOL   O19914961   6.337   7.954   2.177 -0.8573  0.1056 -0.1459
   62MOL   H20014962   6.145   7.632   2.309  0.5077  0.8034 -1.4392
   62MOL   H20114963   5.916   7.724   2.284 -0.0271 -0.2622 -1.2713
   62MOL   H20214964   6.018   7.805   2.177  0.0086 -3.4925 -1.0154
   62MOL   H20314965   5.964   7.889   2.326 -2.6890 -1.4172 -0.1504
   62MOL   H20414966   6.323   7.781   2.410  1.4354  0.4301 -1.2472
   62MOL   H20514967   6.226   7.927   2.376 -2.5443  0.5993 -1.1229
   62MOL   O20614968   6.293   7.735   2.128 -0.2513  0.5652 -0.0979
   62MOL   C20714969   6.318   7.743   1.987  0.1010 -0.4473 -0.1103
   62MOL   C20814970   6.332   7.597   1.935  0.4286 -0.9651 -0.1300
   62MOL   C20914971   6.204   7.817   1.920  0.3705 -0.1381 -0.0408
   62MOL   C21014972   6.209   7.838   1.768 -0.0039 -0.1258 -0.3571
   62MOL   O21114973   6.311   7.816   1.705 -0.4760  0.3797  0.1155
   62MOL   H21214974   6.409   7.801   1.970  0.4169 -1.3815 -1.6700
   62MOL   H21314975   6.354   7.583   1.830 -1.5521 -2.0603 -0.3998
   62MOL   H21414976   6.252   7.537   1.977 -0.9603  1.2556  0.4998
   62MOL   H21514977   6.421   7.563   1.989  0.9280 -0.6429 -0.7400
   62MOL   H21614978   6.199   7.919   1.958  0.2900  0.5805 -1.9469
   62MOL   H21714979   6.112   7.765   1.946 -0.9032  1.4328 -1.3424
   62MOL   O21814980   6.088   7.886   1.717 -0.2505  0.2307 -0.0838
   62MOL   C21914981   6.092   7.959   1.591  0.0777  0.3194 -0.1863
   62MOL   C22014982   5.994   7.890   1.501  0.0237 -0.1177  1.3323
   62MOL   C22114983   6.055   0.134   1.600 -0.1904  0.7802  0.4025
   62MOL   C22214984   6.154   0.218   1.676  0.1358 -0.0261 -0.3009
   62MOL   O22314985   6.243   0.171   1.754 -0.2096  0.1284  0.3052
   62MOL   H22414986   6.188   7.951   1.541  0.3935  0.3403  0.4079
   62MOL   H22514987   6.016   7.784   1.486 -0.8658  0.0405 -1.3757
   62MOL   H22614988   5.996   7.926   1.398 -0.7625 -2.0265  0.6350
   62MOL   H22714989   5.891   7.899   1.536 -0.3866  2.9865 -0.4797
   62MOL   H22814990   5.954   0.152   1.639 -0.3850 -0.9420  0.7317
   62MOL   H22914991   6.045   0.160   1.495 -2.9429  0.5883  0.5869
   62MOL   O23014992   6.144   0.355   1.639 -0.3360 -0.4967  0.0008
   62MOL   C23114993   6.250   0.434   1.679 -0.5735 -0.5945  0.2240
   62MOL   C23214994   6.278   0.533   1.567 -0.4903  0.4115  0.3272
   62MOL   C23314995   6.224   0.506   1.818  0.2309 -0.3937  0.3915
   62MOL   C23414996   6.093   0.581   1.828 -0.7069  0.2013  0.2792
   62MOL   O23514997   6.053   0.626   1.934  0.1598 -0.6762 -0.6529
   62MOL   H23614998   6.341   0.377   1.703 -0.4966 -0.7100 -0.3391
   62MOL   H23714999   6.188   0.563   1.513  0.3199 -0.1448 -1.3781
   62MOL   H23815000   6.332   0.468   1.498  0.9735  2.0861 -0.1433
   62MOL   H23915001   6.339   0.618   1.598  1.2691 -1.1575  1.2512
   62MOL   H24015002   6.300   0.584   1.825  0.0921 -0.2623  0.4516
   62MOL   H24115003   6.232   0.425   1.891 -0.9474 -1.3384 -0.5112
   62MOL   H24215004   6.042   0.585   1.733  0.1740 -0.6416 -0.2480
   63MOL     O115005   7.234   1.120   1.593  0.3405 -0.3625 -0.9469
   63MOL     C215006   7.356   1.184   1.595 -0.2727  0.0010 -0.7250
   63MOL     C315007   7.327   1.302   1.692 -0.4157  0.4508  0.6857
   63MOL     C415008   7.467   1.085   1.648  0.7315  0.0981 -0.6851
   63MOL     C515009   7.606   1.152   1.646 -0.2056  0.3335 -0.4588
   63MOL     O615010   7.633   1.237   1.557  0.2965  0.4162  0.2428
   63MOL     H715011   7.370   1.209   1.490  0.8074 -3.1247 -1.3892
   63MOL     H815012   7.287   1.265   1.787 -0.4808 -0.1464  0.4259
   63MOL     H915013   7.258   1.374   1.650 -0.4697  0.4231  0.7283
   63MOL    H1015014   7.421   1.347   1.723 -0.1929  0.9166 -0.6724
   63MOL    H1115015   7.464   0.994   1.590 -0.6424 -1.1106  1.2079
   63MOL    H1215016   7.442   1.059   1.751  0.4284  0.8039 -0.5694
   63MOL    H1315017   7.182   1.165   1.528  0.3358 -0.4039 -0.9719
   63MOL    O1415018   7.692   1.114   1.741 -0.5308 -0.1971 -0.2182
   63MOL    C1515019   7.817   1.187   1.741  0.7352 -0.0213 -0.6255
   63MOL    C1615020   7.815   1.241   1.873  0.1925 -0.4380  0.5310
   63MOL    C1715021   7.928   1.081   1.726  0.5169 -0.4100 -0.2181
   63MOL    C1815022   0.080   1.149   1.698  0.6414  0.1888 -0.7609
   63MOL    O1915023   0.095   1.208   1.593  0.0200  0.3730  0.0043
   63MOL    H2015024   7.833   1.276   1.680 -0.1436  1.6864  1.5567
   63MOL    H2115025   7.796   1.168   1.951 -0.3102  0.2803  1.0827
   63MOL    H2215026   7.733   1.312   1.876 -0.7487 -1.5246  0.7286
   63MOL    H2315027   7.901   1.302   1.902  2.2566 -3.6692  1.4499
   63MOL    H2415028   7.894   1.012   1.649 -1.3418  0.7862 -0.5021
   63MOL    H2515029   7.930   1.012   1.810  1.2116 -0.8193 -0.5694
   63MOL    O2615030   0.161   1.148   1.795 -0.1058 -0.0302  0.4124
   63MOL    C2715031   0.288   1.205   1.784 -0.1678 -0.5610  0.9742
   63MOL    C2815032   0.305   1.328   1.865  0.2754 -0.3424 -0.1178
   63MOL    C2915033   0.390   1.098   1.807 -0.8181  0.0356 -0.6486
   63MOL    C3015034   0.528   1.123   1.737  0.0194 -0.9506 -0.7357
   63MOL    O3115035   0.599   1.030   1.723  0.1536  0.2946  0.0904
   63MOL    H3215036   0.310   1.249   1.687 -0.7250  0.2374  1.2015
   63MOL    H3315037   0.241   1.407   1.825 -3.2916 -3.0275  0.0340
   63MOL    H3415038   0.402   1.377   1.864  0.7509 -1.2729 -0.3432
   63MOL    H3515039   0.277   1.328   1.970  1.3802  0.0645  0.1789
   63MOL    H3615040   0.356   1.010   1.751 -1.6963  0.2776 -0.5041
   63MOL    H3715041   0.415   1.067   1.909  0.1951 -3.2529 -1.8259
   63MOL    O3815042   0.554   1.253   1.699  0.6543 -0.6539 -0.1772
   63MOL    C3915043   0.681   1.282   1.641  0.0495  0.0066 -0.4815
   63MOL    C4015044   0.656   1.280   1.488 -0.1655  0.3033  0.7025
   63MOL    C4115045   0.727   1.424   1.692  0.1082 -0.4760  0.2122
   63MOL    C4215046   0.874   1.440   1.685  0.3231 -0.6658  0.1824
   63MOL    O4315047   0.936   1.414   1.580  0.0658 -0.0541 -0.1600
   63MOL    H4415048   0.758   1.209   1.667 -1.2552 -1.6109 -1.0902
   63MOL    H4515049   0.605   1.374   1.468  0.2341  0.3330 -0.2039
   63MOL    H4615050   0.601   1.198   1.442  2.3608 -0.2670 -1.4192
   63MOL    H4715051   0.749   1.282   1.431  0.3401 -0.5695  1.4772
   63MOL    H4815052   0.697   1.436   1.795 -0.8249  0.8993 -0.2113
   63MOL    H4915053   0.696   1.503   1.624  0.0525 -0.1470  0.6258
   63MOL    O5015054   0.921   1.475   1.803  0.0148 -0.3743  0.2122
   63MOL    C5115055   1.063   1.490   1.817 -0.4153 -0.1087 -0.3614
   63MOL    C5215056   1.092   1.631   1.875  0.1365  0.5959  0.0154
   63MOL    C5315057   1.119   1.368   1.899 -0.1105 -0.3455 -0.7990
   63MOL    C5415058   1.171   1.263   1.804 -0.0033  0.9449  1.1869
   63MOL    O5515059   1.289   1.227   1.793  0.7405  0.1097  0.0512
   63MOL    H5615060   1.113   1.487   1.720  0.0235  1.3368 -0.1946
   63MOL    H5715061   1.040   1.648   1.969  0.5629  1.3204  0.1220
   63MOL    H5815062   1.064   1.715   1.811  1.7892  2.8694  2.2289
   63MOL    H5915063   1.198   1.641   1.894  0.1122  1.0864 -0.0883
   63MOL    H6015064   1.051   1.323   1.971  1.1129  0.3459  0.8328
   63MOL    H6115065   1.202   1.398   1.963  1.0466  0.9305 -2.8206
   63MOL    O6215066   1.071   1.204   1.732  0.4331 -0.0559  0.6752
   63MOL    C6315067   1.103   1.086   1.650 -0.5958  0.0811  0.5759
   63MOL    C6415068   1.130   0.961   1.733  0.8042 -0.1349  0.1834
   63MOL    C6515069   0.985   1.067   1.540 -0.0252 -0.1250  0.4589
   63MOL    C6615070   1.028   0.982   1.422  0.1759  0.7651  1.1823
   63MOL    O6715071   0.974   0.875   1.395  0.3864 -0.0243  0.2307
   63MOL    H6815072   1.183   1.114   1.582 -0.5331 -1.5190 -0.0244
   63MOL    H6915073   1.138   0.872   1.669  2.2019 -0.8695  1.3607
   63MOL    H7015074   1.053   0.941   1.808  0.1581  0.2955 -0.3596
   63MOL    H7115075   1.223   0.961   1.790  0.9707 -3.3831  0.0185
   63MOL    H7215076   0.975   1.169   1.503 -1.0093 -0.7574 -1.0628
   63MOL    H7315077   0.894   1.027   1.584  0.5900 -1.7224  0.2899
   63MOL    O7415078   1.128   1.039   1.348 -0.1878  0.4660 -0.0812
   63MOL    C7515079   1.156   0.987   1.219 -0.8509 -0.1561  0.5278
   63MOL    C7615080   1.224   0.847   1.214 -0.0344 -0.0225  0.4684
   63MOL    C7715081   1.041   1.024   1.125 -0.1596 -0.0495 -0.0535
   63MOL    C7815082   1.084   1.025   0.985 -0.4363  0.2895  0.2198
   63MOL    O7915083   1.018   0.967   0.897  0.0606  0.4182  0.4432
   63MOL    H8015084   1.237   1.055   1.194 -1.8165  0.1488 -1.8600
   63MOL    H8115085   1.312   0.850   1.279  0.8945 -1.5370 -0.6881
   63MOL    H8215086   1.264   0.827   1.115 -1.1943  0.9575 -0.2015
   63MOL    H8315087   1.158   0.770   1.255  2.3095 -1.5874  1.4398
   63MOL    H8415088   0.989   1.115   1.157 -2.2710 -0.8454 -1.1352
   63MOL    H8515089   0.968   0.944   1.139 -0.0939 -0.0140  0.4919
   63MOL    O8615090   1.208   1.087   0.960  0.5302  0.2623  0.3609
   63MOL    C8715091   1.276   1.079   0.838  0.0023  0.6571  0.5209
   63MOL    C8815092   1.314   1.219   0.810 -0.3707  0.9525  0.4203
   63MOL    C8915093   1.390   0.976   0.847 -0.6623  0.0500  0.5059
   63MOL    C9015094   1.508   1.007   0.935  0.4354  0.0752  0.0113
   63MOL    O9115095   1.623   0.976   0.902  0.1314  0.3849  0.0471
   63MOL    H9215096   1.208   1.045   0.760  0.2444  0.5970  0.3334
   63MOL    H9315097   1.370   1.222   0.717  1.4965 -0.7195  1.4788
   63MOL    H9415098   1.365   1.270   0.892  2.2958 -3.1275  1.4096
   63MOL    H9515099   1.224   1.278   0.789 -1.1149 -0.1280  0.5419
   63MOL    H9615100   1.429   0.960   0.746  0.2345 -1.0142  1.0121
   63MOL    H9715101   1.354   0.880   0.882 -0.0844 -0.9538 -1.5890
   63MOL    O9815102   1.484   1.082   1.037 -0.0680  0.2924 -0.2009
   63MOL    C9915103   1.585   1.135   1.120  0.0495  0.6425 -0.2131
   63MOL   C10015104   1.552   1.287   1.140 -0.2178 -0.3778 -0.3204
   63MOL   C10115105   1.586   1.055   1.246 -0.2045  0.2921 -0.4925
   63MOL   C10215106   1.687   0.934   1.240  1.0030  0.1704 -0.2988
   63MOL   O10315107   1.804   0.955   1.268  0.6610  0.0707  0.6505
   63MOL   H10415108   1.687   1.137   1.082  0.1799  0.9222  0.1391
   63MOL   H10515109   1.548   1.340   1.045  0.7466 -1.2426 -0.8495
   63MOL   H10615110   1.619   1.335   1.212  1.5777 -3.4621  0.1637
   63MOL   H10715111   1.446   1.293   1.165 -0.3773  0.1479 -1.1123
   63MOL   H10815112   1.485   1.019   1.270  0.7438 -1.7806  0.5348
   63MOL   H10915113   1.622   1.131   1.315 -1.2028  0.1423  0.2055
   63MOL   O11015114   1.629   0.822   1.205 -0.4707  0.2254  0.4128
   63MOL   C11115115   1.720   0.716   1.171  0.8297 -0.6431 -0.6647
   63MOL   C11215116   1.666   0.587   1.235  0.0406 -0.4146  0.7307
   63MOL   C11315117   1.754   0.717   1.024 -0.2665  0.0317  0.8653
   63MOL   C11415118   1.656   0.655   0.927 -0.0596  0.0379 -0.1188
   63MOL   O11515119   1.542   0.630   0.959 -0.3202 -0.1635  0.3305
   63MOL   H11615120   1.814   0.721   1.226  1.7998  0.5579 -2.4139
   63MOL   H11715121   1.742   0.514   1.209  2.1517  1.8838  0.2339
   63MOL   H11815122   1.567   0.551   1.205  0.9321 -0.4700 -2.2576
   63MOL   H11915123   1.672   0.587   1.344  3.2788 -1.5255  0.6043
   63MOL   H12015124   1.849   0.664   1.020 -0.8135 -0.9185 -0.1712
   63MOL   H12115125   1.771   0.814   0.978  2.1249 -0.8044 -0.1085
   63MOL   O12215126   1.707   0.618   0.813 -0.2614  0.2893  0.1038
   63MOL   C12315127   1.616   0.566   0.714  0.2348  1.0264  0.4824
   63MOL   C12415128   1.568   0.683   0.634  0.3601 -0.4234 -0.5906
   63MOL   C12515129   1.674   0.448   0.627  0.1294 -0.7227  0.6720
   63MOL   C12615130   1.678   0.318   0.718  0.1736  0.2689 -0.3072
   63MOL   O12715131   1.733   0.315   0.823  0.3950 -0.2382 -0.2321
   63MOL   H12815132   1.519   0.534   0.750 -0.6240  0.7149 -2.0110
   63MOL   H12915133   1.518   0.745   0.708  1.8698  1.5263 -1.1585
   63MOL   H13015134   1.496   0.645   0.561 -0.3294 -0.1554 -0.0597
   63MOL   H13115135   1.647   0.737   0.581 -1.7146  2.1913 -1.1626
   63MOL   H13215136   1.775   0.459   0.588  0.4210  0.5904  1.7654
   63MOL   H13315137   1.609   0.425   0.543 -0.0608  0.1890  0.5669
   63MOL   O13415138   1.616   0.210   0.653  0.0056 -0.1493 -0.1237
   63MOL   C13515139   1.592   0.086   0.718  0.7313  0.3822  0.1046
   63MOL   C13615140   1.457   0.019   0.677  0.2050 -0.1871 -0.6973
   63MOL   C13715141   1.712   7.973   0.706  0.4311  0.4262 -0.5680
   63MOL   C13815142   1.768   7.941   0.567 -0.2347 -0.4729  0.4642
   63MOL   O13915143   1.841   0.036   0.497 -0.5408  0.2561 -0.7637
   63MOL   H14015144   1.588   0.115   0.823 -0.0465  2.3027 -0.4237
   63MOL   H14115145   1.375   0.091   0.673 -1.1091 -1.6985 -1.3417
   63MOL   H14215146   1.422   7.924   0.747  1.3584 -0.5780 -0.5201
   63MOL   H14315147   1.459   7.945   0.582 -1.8378  0.1450 -0.9415
   63MOL   H14415148   1.691   7.877   0.754 -0.5471  1.9974  2.2711
   63MOL   H14515149   1.790   0.039   0.767  0.6011 -0.5760 -0.0237
   63MOL   O14615150   1.715   7.825   0.513  0.2161 -0.0629  0.3719
   63MOL   C14715151   1.743   7.796   0.379  0.7246  0.2356  0.4405
   63MOL   C14815152   1.783   7.643   0.383  0.4625 -0.0219 -0.2571
   63MOL   C14915153   1.624   7.821   0.284  0.1819  0.2953 -0.0323
   63MOL   C15015154   1.600   7.970   0.257  0.0229 -0.2213 -0.1600
   63MOL   O15115155   1.524   0.059   0.328  0.7779  0.7029  0.1045
   63MOL   H15215156   1.819   7.860   0.335  0.1277 -0.1899 -1.2478
   63MOL   H15315157   1.785   7.614   0.278  2.6099  0.3045 -0.3329
   63MOL   H15415158   1.712   7.572   0.425  1.4953 -0.3704  0.9283
   63MOL   H15515159   1.888   7.629   0.410 -0.4194 -2.1220  2.2532
   63MOL   H15615160   1.530   7.778   0.316  0.2187 -0.6553 -1.1707
   63MOL   H15715161   1.642   7.787   0.182 -1.1744  0.3279 -0.2832
   63MOL   O15815162   1.665   0.026   0.148 -0.1045 -0.3148  0.7520
   63MOL   C15915163   1.682   0.168   0.118 -0.7272  0.4089  0.5587
   63MOL   C16015164   1.826   0.189   0.067 -0.1482  0.0352 -0.1306
   63MOL   C16115165   1.583   0.191   0.006 -0.1960 -0.5992  1.3598
   63MOL   C16215166   1.570   0.336   7.948 -0.0600 -0.0597 -0.1790
   63MOL   O16315167   1.630   0.433   0.015 -0.4946  0.2280  0.3579
   63MOL   H16415168   1.658   0.230   0.204 -3.6492 -0.2112  0.2358
   63MOL   H16515169   1.898   0.163   0.144 -1.0247  0.4593  0.8352
   63MOL   H16615170   1.848   0.291   0.036  0.1486 -0.6452 -2.2722
   63MOL   H16715171   1.853   0.127   7.961  0.4841 -0.1413  0.1944
   63MOL   H16815172   1.487   0.148   0.033 -0.8598  0.6237  0.9639
   63MOL   H16915173   1.615   0.127   7.903  1.7613 -0.6846  2.1447
   63MOL   O17015174   1.488   0.351   7.841  0.6208  0.6572  0.0054
   63MOL   C17115175   1.439   0.479   7.820  0.1313  0.3208  0.4261
   63MOL   C17215176   1.529   0.554   7.720  0.4013 -0.5961  0.4479
   63MOL   C17315177   1.297   0.488   7.766  0.1993  0.0049 -0.1882
   63MOL   C17415178   1.195   0.470   7.881 -0.6064 -0.3268 -0.1057
   63MOL   O17515179   1.121   0.561   7.911 -0.2726  0.4396  0.2147
   63MOL   H17615180   1.444   0.536   7.912  2.3184  1.6756 -0.4787
   63MOL   H17715181   1.630   0.537   7.757  0.8850 -0.6216 -0.8349
   63MOL   H17815182   1.493   0.656   7.716  0.6140 -0.5854 -1.9947
   63MOL   H17915183   1.520   0.509   7.621 -0.8563  2.3015 -0.7959
   63MOL   H18015184   1.273   0.419   7.685 -0.9058  2.9834 -2.4781
   63MOL   H18115185   1.279   0.591   7.737 -0.4712  0.2421  1.0281
   63MOL   O18215186   1.208   0.354   7.948  0.0276 -0.1772 -0.6303
   63MOL   C18315187   1.138   0.324   0.086  0.1359  0.4203 -0.2893
   63MOL   C18415188   1.081   0.181   0.070 -0.5248 -0.8195 -0.1247
   63MOL   C18515189   1.238   0.312   0.200 -0.0574  0.1517 -0.2444
   63MOL   C18615190   1.321   0.435   0.239  0.0883  0.1332  0.2309
   63MOL   O18715191   1.421   0.417   0.313  0.3302 -0.8429  0.4751
   63MOL   H18815192   1.054   0.392   0.103  0.4094  0.6394  0.2008
   63MOL   H18915193   0.997   0.173   0.140  1.1627 -1.0074  1.9126
   63MOL   H19015194   1.154   0.101   0.079  1.3023  0.9881  1.5293
   63MOL   H19115195   1.029   0.178   7.954 -0.5596 -0.0150 -0.1349
   63MOL   H19215196   1.311   0.236   0.172 -2.2735 -0.9588 -3.4286
   63MOL   H19315197   1.182   0.290   0.291  0.3843  1.8636  0.4620
   63MOL   O19415198   1.259   0.562   0.223 -0.1259 -0.1875  0.3132
   63MOL   C19515199   1.329   0.679   0.273  0.1731 -0.1836  0.2537
   63MOL   C19615200   1.399   0.741   0.159  0.4561  0.3671  0.5904
   63MOL   C19715201   1.221   0.766   0.336 -0.3599 -0.6618  0.3954
   63MOL   C19815202   1.211   0.738   0.484 -0.3566  0.3802  0.8924
   63MOL   O19915203   1.256   0.819   0.564  0.0377  0.1371  0.2080
   63MOL   H20015204   1.404   0.644   0.344  0.4946 -0.1761 -0.0833
   63MOL   H20115205   1.491   0.689   0.133  0.2901  0.2750  0.1780
   63MOL   H20215206   1.418   0.845   0.184 -2.4707  0.7606  1.3481
   63MOL   H20315207   1.333   0.735   0.072 -1.3766 -0.7479  2.0233
   63MOL   H20415208   1.126   0.768   0.281 -0.0970  2.7497 -0.0507
   63MOL   H20515209   1.248   0.871   0.342 -4.3654  0.4245  1.0417
   63MOL   O20615210   1.150   0.623   0.509 -0.9185  0.3550 -0.0146
   63MOL   C20715211   1.160   0.567   0.639 -0.1518  0.1066 -0.2695
   63MOL   C20815212   1.033   0.586   0.733 -0.9760 -0.0649  0.3521
   63MOL   C20915213   1.207   0.420   0.628  0.0945  0.1393 -0.8391
   63MOL   C21015214   1.116   0.327   0.559 -0.2147 -0.1056  1.0349
   63MOL   O21115215   1.001   0.358   0.523  0.2035 -0.3505 -0.3634
   63MOL   H21215216   1.250   0.608   0.684 -1.4713  1.6073  1.0533
   63MOL   H21315217   1.045   0.549   0.835 -0.4319 -0.6109  0.0990
   63MOL   H21415218   0.941   0.546   0.691 -0.2935 -0.5367 -0.7249
   63MOL   H21515219   1.024   0.691   0.760 -0.4220 -0.5101  2.3934
   63MOL   H21615220   1.222   0.381   0.729 -2.3412  2.2014  0.3729
   63MOL   H21715221   1.304   0.410   0.578  1.6135  4.2579  1.0287
   63MOL   O21815222   1.165   0.198   0.558 -0.7211  0.0983  0.1618
   63MOL   C21915223   1.085   0.091   0.502  0.2784 -0.2973 -0.0528
   63MOL   C22015224   1.175   7.956   0.456 -0.5265 -0.0796 -0.1234
   63MOL   C22115225   0.968   0.050   0.587 -0.8284 -0.1687 -0.1072
   63MOL   C22215226   0.876   7.939   0.513 -0.6279  0.3759  0.6549
   63MOL   O22315227   0.805   7.978   0.416 -0.3425 -0.1361 -0.2801
   63MOL   H22415228   1.044   0.135   0.411 -1.3349 -1.2182  0.2175
   63MOL   H22515229   1.211   7.916   0.551 -2.3221  0.2790  0.7294
   63MOL   H22615230   1.264   7.974   0.397  2.2240  0.2738  3.9006
   63MOL   H22715231   1.125   7.872   0.406 -3.1496  1.2444  0.1625
   63MOL   H22815232   0.914   0.142   0.612  2.0288  2.2615 -2.4878
   63MOL   H22915233   1.000   0.003   0.681  0.2932 -2.1093 -1.4256
   63MOL   O23015234   0.879   7.809   0.555 -0.4069 -0.2643  0.1484
   63MOL   C23115235   0.783   7.714   0.503 -0.3958 -0.0820 -0.1446
   63MOL   C23215236   0.858   7.598   0.426 -0.4797 -0.1021  0.5887
   63MOL   C23315237   0.688   7.661   0.610 -0.0705 -0.1473  0.6808
   63MOL   C23415238   0.759   7.601   0.733 -0.2030  0.8630  0.4610
   63MOL   O23515239   0.770   7.479   0.752 -0.3935 -0.2279  0.0048
   63MOL   H23615240   0.718   7.761   0.429 -0.8319  0.1111  0.3572
   63MOL   H23715241   0.917   7.530   0.488  1.4498  0.0334 -1.0553
   63MOL   H23815242   0.934   7.627   0.353 -0.6397 -1.4298 -0.1297
   63MOL   H23915243   0.786   7.534   0.375 -1.6228  2.5435 -1.2435
   63MOL   H24015244   0.619   7.590   0.564  0.4937 -0.3544  0.1480
   63MOL   H24115245   0.643   7.748   0.657 -1.5909  0.6370 -2.1071
   63MOL   H24215246   0.826   7.673   0.779  0.1150  0.6518  0.3325
   64MOL     O115247   1.977   6.453   0.014 -0.2586 -0.2062 -0.4420
   64MOL     C215248   2.009   6.344   7.905 -0.0168 -0.1041  0.6090
   64MOL     C315249   2.149   6.383   7.865 -0.7756 -0.9302 -0.3777
   64MOL     C415250   2.010   6.215   0.007 -0.3749  0.4541  0.3871
   64MOL     C515251   1.993   6.093   7.892  0.0536 -0.6916  0.1831
   64MOL     O615252   1.990   6.112   7.775 -0.1020 -0.5008 -0.1561
   64MOL     H715253   1.931   6.341   7.830  0.7692 -0.7281 -0.2037
   64MOL     H815254   2.188   6.309   7.796  1.2355  1.8023 -2.2848
   64MOL     H915255   2.215   6.389   7.952  0.5629  0.4550 -1.4677
   64MOL    H1015256   2.138   6.478   7.813 -0.7273  0.4923  2.1098
   64MOL    H1115257   1.931   6.213   0.083 -0.9408  1.0060 -0.1869
   64MOL    H1215258   2.101   6.211   0.067 -1.0472  1.4361  1.4938
   64MOL    H1315259   1.884   6.445   0.025 -0.0794 -1.0647  0.5249
   64MOL    O1415260   1.985   5.975   7.946 -0.2473  0.8247  0.2099
   64MOL    C1515261   1.975   5.855   7.863 -0.0138 -0.3794  0.1545
   64MOL    C1615262   2.116   5.799   7.850  0.2905 -0.2996  0.6023
   64MOL    C1715263   1.878   5.751   7.933 -0.7172 -0.2250  0.4141
   64MOL    C1815264   1.732   5.781   7.903 -0.4121  0.3373 -0.0134
   64MOL    O1915265   1.660   5.826   0.017  0.0383  0.4906  0.9742
   64MOL    H2015266   1.931   5.883   7.767 -2.5722 -1.0083  1.0816
   64MOL    H2115267   2.166   5.860   7.775  1.6167 -0.9145  0.9625
   64MOL    H2215268   2.113   5.697   7.811  2.0400 -0.6519  1.3477
   64MOL    H2315269   2.169   5.808   7.945 -0.1631 -1.0382  0.9324
   64MOL    H2415270   1.907   5.716   0.052 -0.1168 -2.2181 -0.4366
   64MOL    H2515271   1.886   5.662   7.870  0.3405 -0.5538  1.0106
   64MOL    O2615272   1.681   5.750   7.779  0.2299  0.0088 -0.1751
   64MOL    C2715273   1.544   5.778   7.746  0.2684 -0.6936  0.2279
   64MOL    C2815274   1.541   5.898   7.653 -0.0923 -0.6273 -0.5900
   64MOL    C2915275   1.496   5.652   7.674 -0.3733 -0.8908  0.0896
   64MOL    C3015276   1.447   5.533   7.768 -0.4148  0.6526  0.2873
   64MOL    O3115277   1.486   5.420   7.767  0.3813 -0.3131 -0.4211
   64MOL    H3215278   1.493   5.798   7.840  1.9016 -0.3697  1.0524
   64MOL    H3315279   1.585   5.860   7.561 -1.2037  0.7212 -1.7101
   64MOL    H3415280   1.598   5.978   7.700 -0.2106 -0.4863 -0.6862
   64MOL    H3515281   1.440   5.929   7.625 -0.5634 -1.1463  0.4837
   64MOL    H3615282   1.566   5.627   7.594 -0.1416  0.1806 -0.0459
   64MOL    H3715283   1.401   5.681   7.629  0.0608  0.5970  0.1136
   64MOL    O3815284   1.364   5.583   7.853  0.3970 -0.0035 -0.1341
   64MOL    C3915285   1.288   5.511   7.951  0.0718 -0.0931 -0.2652
   64MOL    C4015286   1.238   5.609   0.077 -0.3063 -0.6434  0.3485
   64MOL    C4115287   1.163   5.436   7.885 -0.0455 -0.3167  0.0273
   64MOL    C4215288   1.056   5.526   7.831  0.4264  0.2349 -0.4609
   64MOL    O4315289   0.940   5.517   7.872  0.4470 -0.0666 -0.5534
   64MOL    H4415290   1.357   5.439   0.016  1.8969  0.9294 -1.3393
   64MOL    H4515291   1.180   5.691   0.035 -0.5912 -1.9018 -1.8331
   64MOL    H4615292   1.318   5.665   0.125  0.2297 -0.4823 -0.7070
   64MOL    H4715293   1.182   5.559   0.155 -0.9365 -0.4279  0.0347
   64MOL    H4815294   1.107   5.380   7.959 -1.7523  1.2597 -0.0296
   64MOL    H4915295   1.203   5.368   7.810  1.3041  0.3821  0.1018
   64MOL    O5015296   1.089   5.613   7.735 -0.3679  0.8336  0.3414
   64MOL    C5115297   0.993   5.706   7.676  0.2456 -0.1927  0.4378
   64MOL    C5215298   1.062   5.837   7.642  0.0920 -0.3249 -0.2045
   64MOL    C5315299   0.909   5.635   7.579 -0.2436 -0.5330  0.7742
   64MOL    C5415300   0.792   5.728   7.534  0.1657 -0.1377 -0.7391
   64MOL    O5515301   0.778   5.753   7.416 -0.6415  0.4615  0.0937
   64MOL    H5615302   0.921   5.722   7.757  0.1643  1.1208  0.1132
   64MOL    H5715303   0.987   5.910   7.615  0.3653 -0.2322 -0.7155
   64MOL    H5815304   1.136   5.833   7.562  1.5293  2.0251  0.9426
   64MOL    H5915305   1.116   5.861   7.734  0.7622 -3.1728  0.2121
   64MOL    H6015306   0.869   5.544   7.624  0.7288 -2.0817 -1.3978
   64MOL    H6115307   0.969   5.589   7.500 -0.5968 -0.7408  0.6253
   64MOL    O6215308   0.707   5.761   7.641 -0.2132  0.0758  0.6267
   64MOL    C6315309   0.595   5.849   7.607  0.2513  0.3890  0.2645
   64MOL    C6415310   0.486   5.759   7.552  0.5672  0.1925 -0.0822
   64MOL    C6515311   0.548   5.945   7.711  0.6835  0.0737 -0.6738
   64MOL    C6615312   0.636   6.061   7.744 -0.7640  0.2810 -0.0551
   64MOL    O6715313   0.710   6.062   7.846 -0.2214 -0.0861 -0.0460
   64MOL    H6815314   0.608   5.920   7.525 -2.2430  0.4487 -0.1331
   64MOL    H6915315   0.486   5.770   7.443 -2.7265 -1.6215 -0.3156
   64MOL    H7015316   0.385   5.792   7.572  0.8288 -0.1454  1.8390
   64MOL    H7115317   0.493   5.658   7.590 -0.0293  1.1791  2.7486
   64MOL    H7215318   0.544   5.887   7.803 -1.9074 -2.3128 -2.2088
   64MOL    H7315319   0.451   5.992   7.696 -0.0898 -0.4302  2.3778
   64MOL    O7415320   0.625   6.158   7.649  0.5700  0.0634 -0.2144
   64MOL    C7515321   0.698   6.278   7.656  0.0753  0.2328 -0.1810
   64MOL    C7615322   0.785   6.262   7.534 -0.2002 -0.1754 -0.3527
   64MOL    C7715323   0.601   6.401   7.650  0.2051 -0.1177 -0.3047
   64MOL    C7815324   0.671   6.534   7.650  0.0144  0.1264 -0.3623
   64MOL    O7915325   0.645   6.621   7.566 -0.3848 -0.2106  0.9428
   64MOL    H8015326   0.762   6.293   7.743 -0.3596  0.5056  0.0946
   64MOL    H8115327   0.736   6.203   7.457 -1.0444 -0.0742  0.1001
   64MOL    H8215328   0.870   6.201   7.565  0.1327  0.1385 -0.6316
   64MOL    H8315329   0.830   6.357   7.504  0.2999 -0.2605  0.1053
   64MOL    H8415330   0.526   6.410   7.729 -1.3945  1.5850 -1.9631
   64MOL    H8515331   0.551   6.391   7.554  1.5651  3.1978 -1.4344
   64MOL    O8615332   0.753   6.546   7.766  0.4508  0.2395  0.3107
   64MOL    C8715333   0.839   6.658   7.789 -0.5440  0.2094  0.1987
   64MOL    C8815334   0.826   6.706   7.937 -1.2014 -0.0195 -0.0186
   64MOL    C8915335   0.981   6.620   7.730  0.4979  0.0501  0.3588
   64MOL    C9015336   1.059   6.527   7.820 -0.8176  0.1187  0.4125
   64MOL    O9115337   1.149   6.566   7.894  0.0914 -0.2344 -0.3316
   64MOL    H9215338   0.806   6.743   7.729 -1.5447 -1.3274 -1.4974
   64MOL    H9315339   0.883   6.654   0.034  0.4810  1.7042 -0.0566
   64MOL    H9415340   0.723   6.699   7.971 -0.2784  0.6624  3.1094
   64MOL    H9515341   0.870   6.806   7.942 -1.5519  0.0692  1.3311
   64MOL    H9615342   1.034   6.715   7.739 -0.5371  0.7925 -1.1440
   64MOL    H9715343   0.978   6.595   7.623 -0.5189  0.4195  0.2955
   64MOL    O9815344   1.016   6.396   7.807 -0.4061 -0.3792 -0.3340
   64MOL    C9915345   1.084   6.292   7.878 -1.0342 -0.5392  0.3731
   64MOL   C10015346   0.984   6.180   7.891  0.1365 -0.4769  0.7248
   64MOL   C10115347   1.204   6.245   7.789  0.4881 -0.2292 -0.0501
   64MOL   C10215348   1.293   6.147   7.860  1.2996  0.9445  0.4043
   64MOL   O10315349   1.273   6.023   7.863  0.2030 -0.2534 -0.4430
   64MOL   H10415350   1.125   6.329   7.972 -2.3069  0.8812  0.3852
   64MOL   H10515351   1.034   6.091   7.928  3.0102  1.5327  1.8126
   64MOL   H10615352   0.927   6.159   7.800  1.1078 -3.0623  0.6659
   64MOL   H10715353   0.906   6.224   7.953 -1.0475 -1.1763 -0.2352
   64MOL   H10815354   1.254   6.335   7.753  2.0210 -0.7754  0.6304
   64MOL   H10915355   1.171   6.193   7.699 -1.2898  0.9615 -0.1001
   64MOL   O11015356   1.409   6.199   7.914  0.1219  0.6126  0.5454
   64MOL   C11115357   1.507   6.116   7.978  0.3231 -0.1090  0.1024
   64MOL   C11215358   1.638   6.160   7.921 -0.3417 -0.2161 -0.3084
   64MOL   C11315359   1.490   6.118   0.150 -0.0496  0.4912 -0.0076
   64MOL   C11415360   1.551   6.004   0.239  0.0543  0.1844 -0.2991
   64MOL   O11515361   1.484   5.908   0.287 -0.2079 -0.0472  0.2647
   64MOL   H11615362   1.504   6.018   7.931 -0.5985 -0.0422  0.0268
   64MOL   H11715363   1.659   6.132   7.818 -0.5658  0.1897 -0.4690
   64MOL   H11815364   1.721   6.117   7.975 -0.4777  0.2096  0.2476
   64MOL   H11915365   1.645   6.268   7.934 -1.4510 -0.2154  0.3583
   64MOL   H12015366   1.382   6.115   0.166  0.0709  2.7895  1.5242
   64MOL   H12115367   1.503   6.209   0.208  0.6544  1.2176 -1.2674
   64MOL   O12215368   1.677   6.044   0.271 -0.1362 -0.2510 -0.1174
   64MOL   C12315369   1.743   5.965   0.370 -0.7892  0.3050 -0.6168
   64MOL   C12415370   1.891   5.926   0.327  0.4835  0.1128  0.1688
   64MOL   C12515371   1.738   6.043   0.500 -0.4961  0.7454 -0.1124
   64MOL   C12615372   1.713   5.952   0.622 -0.3369  0.4385  0.0859
   64MOL   O12715373   1.780   5.950   0.725 -0.4038  0.0258  0.2749
   64MOL   H12815374   1.697   5.867   0.381 -0.1552 -0.1271 -1.8430
   64MOL   H12915375   1.952   5.876   0.402  0.2502 -0.9594 -0.3448
   64MOL   H13015376   1.941   6.015   0.289 -1.6067  0.8779 -0.8622
   64MOL   H13115377   1.894   5.854   0.245  0.1572  1.3155 -0.9209
   64MOL   H13215378   1.655   6.113   0.502  0.1659  1.4889  1.7647
   64MOL   H13315379   1.829   6.096   0.528  0.6420 -1.6077  0.7979
   64MOL   O13415380   1.598   5.879   0.603  0.2823 -0.0930 -0.1802
   64MOL   C13515381   1.534   5.807   0.706 -0.6451  0.0801 -0.5497
   64MOL   C13615382   1.381   5.814   0.695  0.1020 -0.1248 -0.3634
   64MOL   C13715383   1.592   5.665   0.712 -0.2457 -0.0838  0.0433
   64MOL   C13815384   1.562   5.590   0.577 -0.0066 -0.7073 -0.4181
   64MOL   O13915385   1.463   5.515   0.572  0.4035  0.1302  0.0833
   64MOL   H14015386   1.552   5.852   0.804 -4.2531  0.5175 -0.0298
   64MOL   H14115387   1.357   5.920   0.706 -1.2606 -0.3319 -1.2828
   64MOL   H14215388   1.337   5.750   0.770 -0.6725  2.1708  1.1997
   64MOL   H14315389   1.339   5.779   0.601 -0.6953  0.1505 -0.1112
   64MOL   H14415390   1.531   5.618   0.789 -0.0416  1.1661  0.9772
   64MOL   H14515391   1.694   5.660   0.748 -0.8059 -1.9701  1.4568
   64MOL   O14615392   1.659   5.607   0.491 -0.1133 -0.0891 -0.3658
   64MOL   C14715393   1.653   5.532   0.363  0.1976 -0.1086  0.6423
   64MOL   C14815394   1.540   5.591   0.267 -0.4528 -0.4529 -0.1641
   64MOL   C14915395   1.787   5.532   0.291 -0.4268  0.0704 -0.0115
   64MOL   C15015396   1.898   5.474   0.375  0.7920 -0.4030 -0.1017
   64MOL   O15115397   1.883   5.374   0.447  0.0147  0.2763 -0.2646
   64MOL   H15215398   1.618   5.430   0.384 -3.1547  0.2220 -2.7294
   64MOL   H15315399   1.440   5.573   0.307 -0.5831 -0.5713 -0.5377
   64MOL   H15415400   1.547   5.535   0.174 -0.9798  1.6266 -1.4775
   64MOL   H15515401   1.564   5.695   0.246 -0.6411 -0.8094 -2.1943
   64MOL   H15615402   1.806   5.635   0.261  0.2462  0.4482  1.6120
   64MOL   H15715403   1.775   5.481   0.196  2.8583  1.8845 -1.4555
   64MOL   O15815404   2.014   5.535   0.364 -0.0242 -0.5636  0.4519
   64MOL   C15915405   2.119   5.533   0.464  0.0575 -0.8429  0.1256
   64MOL   C16015406   2.249   5.530   0.380  0.4658  0.5428  0.0443
   64MOL   C16115407   2.102   5.667   0.533  0.3215  0.2240  0.7447
   64MOL   C16215408   2.168   5.676   0.670  1.0705 -0.0050 -0.6953
   64MOL   O16315409   2.282   5.719   0.688  0.8039 -0.0236  0.6885
   64MOL   H16415410   2.105   5.451   0.535  0.8428 -0.8944  0.2250
   64MOL   H16515411   2.237   5.438   0.323 -2.9786  0.3702  0.8997
   64MOL   H16615412   2.337   5.543   0.442 -0.7470  0.4757  1.8331
   64MOL   H16715413   2.271   5.616   0.316  0.9584 -0.2151 -0.8235
   64MOL   H16815414   2.002   5.699   0.563  0.0624 -1.5410  1.8394
   64MOL   H16915415   2.136   5.745   0.465 -1.9453  0.8567  0.2743
   64MOL   O17015416   2.084   5.636   0.764  0.1316 -0.5452 -0.0738
   64MOL   C17115417   2.113   5.651   0.903  0.0237 -0.1812 -0.6521
   64MOL   C17215418   2.081   5.785   0.965 -0.1338 -0.1137 -0.8322
   64MOL   C17315419   2.043   5.533   0.991  0.6728 -0.1061 -0.2281
   64MOL   C17415420   1.889   5.523   0.982 -0.0728  0.2941  0.1398
   64MOL   O17515421   1.836   5.446   0.901  0.1337 -0.1881 -0.3189
   64MOL   H17615422   2.221   5.637   0.904  0.2105  1.2180  1.8498
   64MOL   H17715423   2.114   5.861   0.895 -1.8201  2.5551  1.1584
   64MOL   H17815424   2.132   5.809   1.059  1.0828 -0.6004 -1.3612
   64MOL   H17915425   1.973   5.798   0.973  0.1505  0.8304  2.2254
   64MOL   H18015426   2.073   5.559   1.093  0.2759  0.6159 -0.2923
   64MOL   H18115427   2.078   5.438   0.951 -2.6051 -0.2052 -3.0532
   64MOL   O18215428   1.827   5.600   1.071  0.1512  0.1138 -0.3389
   64MOL   C18315429   1.684   5.620   1.078  0.5577  0.4811 -0.4915
   64MOL   C18415430   1.598   5.492   1.102 -0.0461 -0.2024 -0.4278
   64MOL   C18515431   1.652   5.717   1.195 -0.1329  0.1035 -0.6455
   64MOL   C18615432   1.641   5.864   1.160  0.7717 -0.9511 -0.2539
   64MOL   O18715433   1.538   5.916   1.132 -0.0836 -0.2811  0.8979
   64MOL   H18815434   1.644   5.674   0.992 -2.4098 -0.1097  0.4574
   64MOL   H18915435   1.594   5.436   1.009  1.0555  1.7606 -1.6814
   64MOL   H19015436   1.493   5.520   1.112 -0.5014 -0.9076 -2.9966
   64MOL   H19115437   1.641   5.431   1.181 -1.1718 -0.4465  0.0105
   64MOL   H19215438   1.731   5.719   1.270 -0.6164 -0.2635 -0.1202
   64MOL   H19315439   1.556   5.686   1.238 -0.7791  1.2261 -1.2652
   64MOL   O19415440   1.767   5.934   1.168 -0.2117 -0.8110  0.2243
   64MOL   C19515441   1.771   6.082   1.152  0.2708 -0.2843 -0.2758
   64MOL   C19615442   1.909   6.135   1.210  0.8562 -0.2470  0.2628
   64MOL   C19715443   1.749   6.110   1.005  0.1694 -0.0831 -0.7657
   64MOL   C19815444   1.716   6.259   0.977  0.3608  0.2913  0.0384
   64MOL   O19915445   1.742   6.355   1.046  0.1524 -0.6425  0.0406
   64MOL   H20015446   1.687   6.116   1.212  1.4204 -0.2520  1.3412
   64MOL   H20115447   1.996   6.115   1.147  0.2237 -1.6634 -0.1686
   64MOL   H20215448   1.929   6.090   1.307 -1.4384  0.0261  0.8902
   64MOL   H20315449   1.913   6.244   1.217  1.5554 -0.0494 -2.5225
   64MOL   H20415450   1.663   6.051   0.974 -0.4637  0.7591 -0.6240
   64MOL   H20515451   1.831   6.086   0.937 -0.4734  2.4356 -2.5215
   64MOL   O20615452   1.668   6.267   0.846 -0.0755 -0.6375  0.1545
   64MOL   C20715453   1.619   6.395   0.795 -0.4586 -0.0596 -0.2103
   64MOL   C20815454   1.709   6.427   0.676 -0.1870  0.1535 -0.6312
   64MOL   C20915455   1.467   6.380   0.770  0.2858 -0.4051  0.1416
   64MOL   C21015456   1.418   6.304   0.647  0.8198 -0.3491 -0.0762
   64MOL   O21115457   1.488   6.279   0.551 -0.2919 -0.3224  0.4431
   64MOL   H21215458   1.631   6.479   0.863 -2.8238 -0.0578  0.2481
   64MOL   H21315459   1.725   6.347   0.603  2.2255  0.0713 -0.0637
   64MOL   H21415460   1.803   6.466   0.717 -1.0913  1.5296  0.1776
   64MOL   H21515461   1.663   6.515   0.632 -0.9028  0.4053  0.6154
   64MOL   H21615462   1.426   6.478   0.747 -1.4180 -0.5951  2.2160
   64MOL   H21715463   1.412   6.348   0.858 -2.5638 -3.1344 -2.4581
   64MOL   O21815464   1.287   6.260   0.652 -0.2587 -0.6709 -0.3068
   64MOL   C21915465   1.224   6.192   0.541  0.5113 -0.7745 -0.6210
   64MOL   C22015466   1.112   6.111   0.605  0.4216 -0.0818  0.5576
   64MOL   C22115467   1.158   6.309   0.460  0.4198  0.1302 -0.6277
   64MOL   C22215468   1.241   6.352   0.334 -0.0199  0.4431 -0.0419
   64MOL   O22315469   1.210   6.305   0.222 -0.4703 -0.0889 -0.2825
   64MOL   H22415470   1.293   6.137   0.477 -0.0861 -1.9483 -0.2561
   64MOL   H22515471   1.033   6.177   0.641  0.4699  1.0583 -1.3787
   64MOL   H22615472   1.142   6.046   0.687  2.1861  1.8856  1.5342
   64MOL   H22715473   1.073   6.055   0.520  0.3273  1.0865 -0.1856
   64MOL   H22815474   1.166   6.394   0.528 -0.7125 -1.3341  1.3896
   64MOL   H22915475   1.056   6.280   0.434  0.0158 -1.6137  2.6533
   64MOL   O23015476   1.330   6.443   0.359  0.1669 -0.0797  0.7259
   64MOL   C23115477   1.384   6.517   0.249  0.3147  0.1142  0.0263
   64MOL   C23215478   1.283   6.626   0.208  0.3919  0.4025 -0.0989
   64MOL   C23315479   1.526   6.569   0.279  0.6647  0.3526  0.4720
   64MOL   C23415480   1.631   6.459   0.280  0.3888 -0.1552 -0.1046
   64MOL   O23515481   1.689   6.429   0.175 -0.6196 -0.3157 -0.1643
   64MOL   H23615482   1.398   6.445   0.168  0.9294 -0.8844  1.0121
   64MOL   H23715483   1.272   6.695   0.291  1.4993 -0.8285  1.0915
   64MOL   H23815484   1.179   6.603   0.183  0.1231  0.1041  1.2504
   64MOL   H23915485   1.323   6.685   0.125  0.9270  1.0476  0.6175
   64MOL   H24015486   1.537   6.616   0.377  2.2182  3.2237 -1.0067
   64MOL   H24115487   1.561   6.639   0.203 -1.9621  0.2534 -0.8569
   64MOL   H24215488   1.654   6.405   0.372 -2.2850  1.8056  1.8020
   65MOL     O115489   7.625   4.638   5.149  0.6125  0.1103  0.3329
   65MOL     C215490   7.673   4.771   5.117 -0.2001  0.0088 -0.4680
   65MOL     C315491   7.662   4.878   5.234  0.6097  0.3638 -0.7484
   65MOL     C415492   7.816   4.767   5.079 -0.1993 -0.0462  1.0084
   65MOL     C515493   7.867   4.878   4.989 -0.4168  0.4693  0.1376
   65MOL     O615494   7.979   4.932   5.006 -0.0805  0.0854  0.2861
   65MOL     H715495   7.616   4.804   5.031 -1.4809  0.1763  0.4232
   65MOL     H815496   7.554   4.891   5.249  0.7629 -0.7477  1.5232
   65MOL     H915497   7.708   4.974   5.212  0.2170  0.8346  0.4264
   65MOL    H1015498   7.687   4.839   5.332  1.1564 -0.4264 -1.1950
   65MOL    H1115499   7.827   4.674   5.023  1.1385 -0.5426  2.0746
   65MOL    H1215500   7.878   4.758   5.168 -1.3625 -0.1385  1.8278
   65MOL    H1315501   7.532   4.652   5.157  0.6091  0.5674 -0.4524
   65MOL    O1415502   7.779   4.906   4.889  0.0403  0.6179 -0.1757
   65MOL    C1515503   7.789   5.026   4.817 -0.0092  0.0346 -0.1159
   65MOL    C1615504   7.850   4.992   4.682 -0.5004 -0.4371 -0.9355
   65MOL    C1715505   7.640   5.080   4.810  0.1480 -0.0489  0.6540
   65MOL    C1815506   7.626   5.205   4.728 -0.0427  0.0045  0.3827
   65MOL    O1915507   7.578   5.205   4.618  0.0775  0.1709  0.1000
   65MOL    H2015508   7.854   5.096   4.869  0.1942  0.9718 -1.6111
   65MOL    H2115509   7.943   4.935   4.691 -0.2921  0.3002  1.9863
   65MOL    H2215510   7.858   5.082   4.621 -1.7049  1.6390  1.8433
   65MOL    H2315511   7.795   4.919   4.622 -1.1133 -1.3522  0.7006
   65MOL    H2415512   7.602   5.100   4.910 -1.4870 -0.0492  0.0477
   65MOL    H2515513   7.578   4.998   4.774  0.6582  0.2969 -1.0641
   65MOL    O2615514   7.659   5.307   4.798  0.3016  0.6978  0.6427
   65MOL    C2715515   7.648   5.443   4.736 -0.7264  0.8908  0.1090
   65MOL    C2815516   7.519   5.510   4.795 -0.2200  0.4234  0.3596
   65MOL    C2915517   7.775   5.523   4.766 -0.2140 -0.5794  0.9653
   65MOL    C3015518   7.912   5.452   4.748 -0.8621  0.5117 -0.0566
   65MOL    O3115519   7.961   5.393   4.840  0.1111  0.3917 -0.8199
   65MOL    H3215520   7.650   5.444   4.627 -0.4782 -0.1870  0.0956
   65MOL    H3315521   7.438   5.440   4.777  1.2779 -1.1567 -0.3076
   65MOL    H3415522   7.498   5.614   4.768  0.6816  0.8022  1.0948
   65MOL    H3515523   7.505   5.515   4.903 -0.0725 -0.2116  0.4085
   65MOL    H3615524   7.774   5.564   4.867 -0.2058 -1.6522  1.4146
   65MOL    H3715525   7.765   5.614   4.707 -1.3896 -0.8844  0.6887
   65MOL    O3815526   7.961   5.469   4.627  0.0428  0.1020 -0.4298
   65MOL    C3915527   0.094   5.389   4.586  0.4828  0.3119 -0.3259
   65MOL    C4015528   0.084   5.347   4.439 -0.3051  0.1779  0.0742
   65MOL    C4115529   0.224   5.461   4.632 -0.3133 -0.2583  0.2550
   65MOL    C4215530   0.259   5.596   4.570  0.2155 -0.1595  0.9950
   65MOL    O4315531   0.213   5.635   4.462 -0.2463 -0.5840  0.0836
   65MOL    H4415532   0.098   5.299   4.648  2.3464  0.1219 -0.7180
   65MOL    H4515533   0.096   5.424   4.362 -1.5942 -1.5829 -1.9474
   65MOL    H4615534   7.967   5.298   4.427  0.0755 -0.7533  0.7739
   65MOL    H4715535   0.161   5.272   4.418 -0.4381  0.1285 -0.2460
   65MOL    H4815536   0.311   5.395   4.626 -0.7196 -0.6750 -1.0589
   65MOL    H4915537   0.218   5.488   4.738 -0.4800  1.5741 -0.2010
   65MOL    O5015538   0.356   5.660   4.634  0.1892  0.2716  0.0180
   65MOL    C5115539   0.434   5.769   4.578 -0.2982 -0.2420 -0.1457
   65MOL    C5215540   0.362   5.909   4.592  0.4364  0.7031  0.3007
   65MOL    C5315541   0.573   5.760   4.656 -0.7185 -0.7382  0.1315
   65MOL    C5415542   0.697   5.812   4.578  1.0618  0.1234  0.2284
   65MOL    O5515543   0.683   5.877   4.474  0.0963  0.2715 -0.4421
   65MOL    H5615544   0.454   5.739   4.475 -0.7007  0.5928 -0.4732
   65MOL    H5715545   0.338   5.942   4.693 -0.6656  2.2290 -0.4470
   65MOL    H5815546   0.272   5.919   4.532  0.4819  0.8090  0.2509
   65MOL    H5915547   0.432   5.988   4.565  2.8602 -1.2560  0.5952
   65MOL    H6015548   0.607   5.657   4.669 -2.0058 -1.3266 -0.9880
   65MOL    H6115549   0.558   5.799   4.757 -1.1249 -1.9216  0.5497
   65MOL    O6215550   0.807   5.783   4.643 -0.4395 -0.9914 -0.1478
   65MOL    C6315551   0.930   5.810   4.585  0.2452  0.4850  0.1220
   65MOL    C6415552   0.983   5.942   4.652 -0.1632  0.1090  0.4082
   65MOL    C6515553   1.030   5.690   4.604 -0.4773 -0.7284  0.4548
   65MOL    C6615554   1.170   5.719   4.547  1.0917  1.1658  0.1902
   65MOL    O6715555   1.190   5.812   4.471 -0.5125 -0.1491 -0.2435
   65MOL    H6815556   0.920   5.826   4.478  2.4085 -0.1096 -0.2004
   65MOL    H6915557   1.086   5.968   4.629 -0.1495  0.8524  1.2741
   65MOL    H7015558   0.971   5.922   4.759  0.9548  1.5914  0.8383
   65MOL    H7115559   0.916   6.021   4.618  0.7930  0.4216 -0.7645
   65MOL    H7215560   0.995   5.604   4.546 -1.2209  0.3665 -0.7318
   65MOL    H7315561   1.042   5.664   4.709 -0.6615 -3.5890 -0.1895
   65MOL    O7415562   1.266   5.632   4.603 -0.0562  0.4145  0.8256
   65MOL    C7515563   1.401   5.642   4.556 -0.6837  0.1827 -0.2443
   65MOL    C7615564   1.495   5.666   4.677 -0.3300 -0.1970 -0.5178
   65MOL    C7715565   1.426   5.508   4.476 -1.0071 -0.0305  0.5249
   65MOL    C7815566   1.561   5.522   4.392 -0.0238 -0.1444 -0.6618
   65MOL    O7915567   1.638   5.425   4.398 -0.1861  0.3926  0.0409
   65MOL    H8015568   1.418   5.730   4.495  0.3935  0.9462  1.1069
   65MOL    H8115569   1.491   5.588   4.754 -3.0285 -1.9332 -2.3469
   65MOL    H8215570   1.466   5.758   4.729 -0.5348 -0.8875  0.6263
   65MOL    H8315571   1.599   5.673   4.648  0.0195  2.1786  1.1472
   65MOL    H8415572   1.355   5.484   4.397 -1.3343  2.5869  0.0098
   65MOL    H8515573   1.418   5.427   4.549 -0.8344  0.8087  1.4702
   65MOL    O8615574   1.585   5.642   4.330  0.1963 -0.7458 -0.4246
   65MOL    C8715575   1.712   5.676   4.282  0.3041  0.5583 -0.4379
   65MOL    C8815576   1.695   5.739   4.144  0.2260 -0.0110  0.0491
   65MOL    C8915577   1.775   5.758   4.394 -0.4511  0.6839 -0.5508
   65MOL    C9015578   1.738   5.910   4.390  0.1711 -0.2290 -0.5329
   65MOL    O9115579   1.816   6.005   4.387  0.0352  0.2724  0.0321
   65MOL    H9215580   1.770   5.585   4.273  0.1130  0.4484 -0.5494
   65MOL    H9315581   1.654   5.658   4.084 -1.1184  0.0475  0.8794
   65MOL    H9415582   1.788   5.781   4.105  0.0989  1.4339  1.2709
   65MOL    H9515583   1.621   5.818   4.154  0.7698  0.4725  0.3425
   65MOL    H9615584   1.880   5.750   4.366 -0.9052 -0.2411 -1.9892
   65MOL    H9715585   1.764   5.714   4.493 -1.5323  1.4376 -0.3220
   65MOL    O9815586   1.606   5.927   4.408  0.1273  0.2819 -0.3777
   65MOL    C9915587   1.544   6.055   4.422  0.2098 -1.1726  0.0984
   65MOL   C10015588   1.456   6.073   4.298  0.8350  0.2799  0.7029
   65MOL   C10115589   1.454   6.045   4.552 -0.0224  0.2995  0.5863
   65MOL   C10215590   1.369   6.170   4.580  0.3734  0.2248  0.2505
   65MOL   O10315591   1.251   6.167   4.590  0.2926 -0.0204 -0.4028
   65MOL   H10415592   1.618   6.133   4.436 -0.8917  0.3410 -2.1609
   65MOL   H10515593   1.508   6.024   4.216  2.2036  1.7248  0.6918
   65MOL   H10615594   1.429   6.177   4.280 -0.0965  0.0575  0.7739
   65MOL   H10715595   1.360   6.022   4.308  1.3883 -0.4434  2.6188
   65MOL   H10815596   1.504   6.012   4.642 -0.8252  1.1603  1.3621
   65MOL   H10915597   1.380   5.965   4.548 -0.2967  0.6025 -0.7314
   65MOL   O11015598   1.449   6.269   4.597  0.1621  0.1638 -0.7112
   65MOL   C11115599   1.402   6.405   4.639  0.0469  0.7089  0.5099
   65MOL   C11215600   1.415   6.407   4.797 -0.0443  0.1801  0.1264
   65MOL   C11315601   1.484   6.512   4.562  0.0350 -0.0729  0.3293
   65MOL   C11415602   1.494   6.483   4.417 -0.5209  0.4116 -0.3014
   65MOL   O11515603   1.398   6.441   4.349  0.0545  0.1295  0.7778
   65MOL   H11615604   1.295   6.410   4.619 -0.3823 -2.1149  1.8561
   65MOL   H11715605   1.407   6.505   4.843  0.1622  0.7750 -1.0923
   65MOL   H11815606   1.516   6.377   4.828  1.1266  0.9889 -2.7820
   65MOL   H11915607   1.341   6.341   4.843  1.2164 -2.3905 -1.3925
   65MOL   H12015608   1.587   6.504   4.596 -0.0766  0.1783  0.7312
   65MOL   H12115609   1.435   6.607   4.585  1.5648  0.9855 -0.6921
   65MOL   O12215610   1.622   6.499   4.374 -0.1844  0.1593  0.1492
   65MOL   C12315611   1.656   6.486   4.238  0.5456  0.0832 -0.6085
   65MOL   C12415612   1.772   6.578   4.200 -0.4948  0.0392  0.4889
   65MOL   C12515613   1.687   6.333   4.208  0.3439 -0.5039  0.0850
   65MOL   C12615614   1.663   6.305   4.058  0.1673  0.6514 -0.3242
   65MOL   O12715615   1.605   6.387   3.987 -0.2313 -0.1187 -0.1932
   65MOL   H12815616   1.575   6.515   4.171  0.1892  1.7475  0.5092
   65MOL   H12915617   1.824   6.554   4.107  1.4718  1.3224  1.2462
   65MOL   H13015618   1.857   6.560   4.265  0.3677 -2.8212 -1.3240
   65MOL   H13115619   1.728   6.676   4.218 -1.6185 -0.1151 -1.2097
   65MOL   H13215620   1.628   6.271   4.275  0.1543 -0.3486  0.0613
   65MOL   H13315621   1.789   6.321   4.244 -0.1925 -0.6070  1.5747
   65MOL   O13415622   1.712   6.182   4.024  0.3309  0.2306  0.0075
   65MOL   C13515623   1.712   6.131   3.887  0.5138 -1.0695  0.0955
   65MOL   C13615624   1.856   6.102   3.858  0.2190 -0.0454  0.0736
   65MOL   C13715625   1.618   6.012   3.888  0.7632  0.2863  0.5671
   65MOL   C13815626   1.586   5.964   3.749 -0.3974 -0.2600 -0.5309
   65MOL   O13915627   1.680   5.920   3.683 -0.1156 -0.2816  0.2020
   65MOL   H14015628   1.683   6.218   3.828  0.7872 -0.7587  0.4169
   65MOL   H14115629   1.870   6.054   3.761  2.8464 -0.6987  0.7391
   65MOL   H14215630   1.889   6.027   3.930 -0.9559 -0.3101  0.3337
   65MOL   H14315631   1.924   6.187   3.860  0.7077 -0.4479  0.7154
   65MOL   H14415632   1.522   6.035   3.934 -0.4367 -0.6979 -1.4068
   65MOL   H14515633   1.668   5.926   3.934 -2.6532 -1.4697  1.1576
   65MOL   O14615634   1.463   5.957   3.715  0.3564 -0.2847 -0.1696
   65MOL   C14715635   1.422   5.936   3.578 -0.8471 -0.8012 -0.6920
   65MOL   C14815636   1.420   5.787   3.551 -0.0730  0.1260  0.2440
   65MOL   C14915637   1.284   5.998   3.567 -0.0484 -0.2779 -0.0760
   65MOL   C15015638   1.272   6.144   3.607  0.3505  0.9859 -0.3869
   65MOL   O15115639   1.343   6.196   3.692  0.3247  0.0713  0.5261
   65MOL   H15215640   1.492   5.988   3.511 -0.5312 -0.4552 -0.0981
   65MOL   H15315641   1.351   5.734   3.616  0.3450  0.5531  1.0432
   65MOL   H15415642   1.519   5.747   3.571  0.4375  1.8009  1.1358
   65MOL   H15515643   1.387   5.770   3.448 -0.6069 -1.0762  0.6012
   65MOL   H15615644   1.231   5.955   3.653 -0.9911  1.3758  0.1784
   65MOL   H15715645   1.233   5.981   3.472  0.9725 -0.8285 -0.5379
   65MOL   O15815646   1.187   6.211   3.525  0.1382 -0.2498  0.0721
   65MOL   C15915647   1.184   6.356   3.541  0.7051 -0.2595 -0.7582
   65MOL   C16015648   1.266   6.416   3.431 -0.0776 -0.4880  0.1637
   65MOL   C16115649   1.032   6.389   3.539 -0.0518 -0.3588  0.7739
   65MOL   C16215650   0.961   6.358   3.674 -1.1033 -0.2118  0.1833
   65MOL   O16315651   1.025   6.375   3.778 -0.3682  0.0345 -0.2780
   65MOL   H16415652   1.213   6.384   3.642  1.0364 -3.9259  0.1994
   65MOL   H16515653   1.261   6.524   3.448  2.5033 -0.3199  0.1336
   65MOL   H16615654   1.238   6.414   3.326  2.5744  0.7969 -0.6185
   65MOL   H16715655   1.369   6.379   3.434  0.7476  1.5125 -1.5727
   65MOL   H16815656   0.965   6.344   3.465  0.1517 -0.6566  0.7692
   65MOL   H16915657   1.008   6.494   3.525 -0.7634 -0.5147  0.8010
   65MOL   O17015658   0.835   6.322   3.664  0.3792 -0.2546 -0.3041
   65MOL   C17115659   0.776   6.219   3.740 -0.0650  0.5655  0.3484
   65MOL   C17215660   0.634   6.250   3.768  0.8249 -0.0718  0.3587
   65MOL   C17315661   0.796   6.075   3.681  0.1595  0.3894 -0.3391
   65MOL   C17415662   0.757   6.069   3.531  1.2894  0.4181  0.2109
   65MOL   O17515663   0.840   6.079   3.439  0.0307  0.1247  0.7899
   65MOL   H17615664   0.829   6.229   3.835  0.9065 -1.0285 -0.0027
   65MOL   H17715665   0.622   6.348   3.814  0.1755 -0.8062  1.7914
   65MOL   H17815666   0.589   6.178   3.836  0.4521 -0.1464  0.0342
   65MOL   H17915667   0.572   6.245   3.679 -1.8559  1.1898  2.0998
   65MOL   H18015668   0.741   6.003   3.741  1.0571  0.9382  1.1840
   65MOL   H18115669   0.902   6.053   3.690 -0.4535 -1.8447  2.1020
   65MOL   O18215670   0.625   6.047   3.513 -0.1566 -0.4927  0.1674
   65MOL   C18315671   0.576   6.049   3.373 -0.2953  0.5903 -0.4532
   65MOL   C18415672   0.511   5.917   3.346  0.3003 -0.4770  0.2516
   65MOL   C18515673   0.481   6.164   3.347  0.1781 -0.4475  1.0769
   65MOL   C18615674   0.560   6.296   3.311  0.4023  0.4694 -0.1718
   65MOL   O18715675   0.540   6.405   3.377 -0.3739  0.2753  0.3859
   65MOL   H18815676   0.656   6.054   3.300  0.4820  0.8220  0.4029
   65MOL   H18915677   0.582   5.835   3.357  1.0225  0.2662  1.3090
   65MOL   H19015678   0.471   5.910   3.245  0.3064  1.8574  0.0698
   65MOL   H19115679   0.431   5.917   3.419  1.7590 -1.1561  1.9011
   65MOL   H19215680   0.423   6.175   3.439 -0.7620 -1.8320  0.6704
   65MOL   H19315681   0.409   6.150   3.266  0.7199  3.1071 -0.1042
   65MOL   O19415682   0.638   6.289   3.206 -0.0345  0.1217  0.5200
   65MOL   C19515683   0.709   6.397   3.154  0.0094 -0.5591  0.4422
   65MOL   C19615684   0.856   6.395   3.187 -1.3202 -0.5199 -0.1848
   65MOL   C19715685   0.690   6.385   3.000  0.1204  0.6066 -0.1530
   65MOL   C19815686   0.717   6.526   2.937 -0.2059  0.3855  0.0648
   65MOL   O19915687   0.634   6.621   2.941 -0.0621 -0.7907  0.4017
   65MOL   H20015688   0.671   6.493   3.187  0.4780  0.2536 -1.3267
   65MOL   H20115689   0.875   6.404   3.293  0.8722 -2.4915 -0.3709
   65MOL   H20215690   0.897   6.477   3.128 -1.5789 -0.3507 -0.1290
   65MOL   H20315691   0.909   6.304   3.157  2.8510  1.3621  1.1402
   65MOL   H20415692   0.591   6.356   2.966  0.8800 -0.5123 -1.4461
   65MOL   H20515693   0.748   6.303   2.957 -0.9652 -0.4593  0.4298
   65MOL   O20615694   0.835   6.530   2.873 -0.5011  0.5302  0.1152
   65MOL   C20715695   0.868   6.648   2.797  0.6191  0.2963 -0.4062
   65MOL   C20815696   0.893   6.779   2.879  0.7175  0.0846  0.6059
   65MOL   C20915697   0.984   6.595   2.701 -0.4864 -0.2087  0.5322
   65MOL   C21015698   1.123   6.615   2.752 -0.3362  1.0100 -0.8460
   65MOL   O21115699   1.173   6.724   2.736 -1.1038  0.3204  1.0700
   65MOL   H21215700   0.791   6.661   2.721 -0.0450  0.6911  0.3296
   65MOL   H21315701   0.941   6.853   2.816  0.0487  0.5311  0.6226
   65MOL   H21415702   0.963   6.750   2.958  0.9708  0.1808  0.4160
   65MOL   H21515703   0.796   6.810   2.915  0.8094  2.4785 -1.1060
   65MOL   H21615704   0.970   6.647   2.606 -0.5939  1.3077  1.3700
   65MOL   H21715705   0.974   6.490   2.673  2.6243 -0.9381  1.9073
   65MOL   O21815706   1.173   6.510   2.818 -0.0008  0.6615 -0.4921
   65MOL   C21915707   1.286   6.517   2.903 -0.3246 -0.5263 -1.0956
   65MOL   C22015708   1.240   6.469   3.047  0.4943  0.1819 -0.6555
   65MOL   C22115709   1.397   6.430   2.844 -0.3958 -0.4872 -0.0565
   65MOL   C22215710   1.469   6.507   2.734  1.0649  0.1993  0.6951
   65MOL   O22315711   1.584   6.541   2.748 -0.0338 -0.3050 -0.5137
   65MOL   H22415712   1.320   6.619   2.922 -0.2283 -0.3733 -2.0954
   65MOL   H22515713   1.185   6.376   3.039 -0.8112  0.8186  0.7488
   65MOL   H22615714   1.185   6.541   3.107 -0.5398  0.0627 -1.4492
   65MOL   H22715715   1.324   6.451   3.114  0.3671 -2.0636 -1.0555
   65MOL   H22815716   1.341   6.341   2.814 -2.7394 -0.2847  3.3703
   65MOL   H22915717   1.471   6.401   2.920  1.8756 -0.4331 -2.1837
   65MOL   O23015718   1.401   6.514   2.619 -0.2236  0.3516  0.4611
   65MOL   C23115719   1.469   6.570   2.501 -0.3800 -0.1995  0.4231
   65MOL   C23215720   1.402   6.501   2.385  0.2766  0.0771 -0.5855
   65MOL   C23315721   1.423   6.721   2.502 -0.4927  0.0991  0.1481
   65MOL   C23415722   1.489   6.814   2.592  0.2142 -0.4259  0.2602
   65MOL   O23515723   1.432   6.916   2.625  0.5879 -0.1940 -0.0410
   65MOL   H23615724   1.577   6.561   2.492 -0.2166 -0.0949  2.0594
   65MOL   H23715725   1.419   6.394   2.394  0.8100  0.1502 -0.7330
   65MOL   H23815726   1.425   6.531   2.283 -0.9377  0.6874 -0.6957
   65MOL   H23915727   1.295   6.515   2.403  0.6386  0.9844  0.9082
   65MOL   H24015728   1.318   6.743   2.518 -0.4608  1.3657 -1.3193
   65MOL   H24115729   1.438   6.764   2.403  3.6568 -1.1491  0.1490
   65MOL   H24215730   1.585   6.783   2.633  0.8982  0.6242 -0.5019
   66MOL     O115731   6.731   5.538   2.754 -0.5312 -0.0105  0.1786
   66MOL     C215732   6.636   5.535   2.854 -0.6869  0.1984 -0.5678
   66MOL     C315733   6.612   5.676   2.905 -0.6052  0.3478 -0.5888
   66MOL     C415734   6.504   5.466   2.813  0.3071  0.5735 -0.8233
   66MOL     C515735   6.507   5.322   2.756 -0.4351 -0.1897 -0.0535
   66MOL     O615736   6.470   5.302   2.640  0.2183  0.1170  0.0151
   66MOL     H715737   6.684   5.472   2.929  2.7838  2.0767 -1.1279
   66MOL     H815738   6.565   5.667   3.003 -0.0188  3.7950  0.0760
   66MOL     H915739   6.546   5.739   2.846 -1.7602  0.4341  0.7495
   66MOL    H1015740   6.707   5.728   2.910  0.1279 -1.0084 -0.0789
   66MOL    H1115741   6.451   5.526   2.741  2.4861  0.1357 -2.8558
   66MOL    H1215742   6.439   5.451   2.900  2.6613  0.3689  0.9708
   66MOL    H1315743   6.719   5.615   2.700  0.3922  0.7313  1.0101
   66MOL    O1415744   6.560   5.230   2.848  0.1068 -0.4139 -0.3345
   66MOL    C1515745   6.540   5.093   2.824  0.0961  0.2543 -0.6099
   66MOL    C1615746   6.661   5.028   2.765  0.4867  0.4515 -0.4578
   66MOL    C1715747   6.489   5.028   2.953  0.5605  0.9756 -0.3762
   66MOL    C1815748   6.433   4.885   2.925  0.0286 -0.2759 -0.5104
   66MOL    O1915749   6.325   4.869   2.870 -0.8938  0.1138  0.4261
   66MOL    H2015750   6.457   5.082   2.754  0.9537 -1.0044 -1.4516
   66MOL    H2115751   6.680   5.073   2.667 -1.3671  1.0842 -0.5398
   66MOL    H2215752   6.643   4.924   2.736  1.4340 -0.0293  0.6531
   66MOL    H2315753   6.756   5.031   2.818  1.2342  1.3156 -1.8325
   66MOL    H2415754   6.390   5.072   2.970  0.0580  0.1967 -1.2332
   66MOL    H2515755   6.555   5.040   3.038  1.1160  0.6867 -0.7654
   66MOL    O2615756   6.517   4.786   2.975 -0.2568  0.1641  0.1968
   66MOL    C2715757   6.466   4.652   2.965 -0.4136 -0.3504  0.0146
   66MOL    C2815758   6.579   4.562   2.911  0.8105  0.1688 -0.1495
   66MOL    C2915759   6.416   4.617   3.103 -0.0029 -0.9158  1.1338
   66MOL    C3015760   6.331   4.483   3.115  0.2092  0.1373  0.3296
   66MOL    O3115761   6.359   4.396   3.196  0.1586 -0.1632  0.2901
   66MOL    H3215762   6.388   4.644   2.889  0.2984  0.5236 -0.8114
   66MOL    H3315763   6.616   4.594   2.814  0.8451 -2.9153 -1.2024
   66MOL    H3415764   6.535   4.462   2.908 -0.6378  0.7902 -0.3205
   66MOL    H3515765   6.661   4.557   2.982 -0.3818  1.0856  1.3296
   66MOL    H3615766   6.349   4.698   3.133 -1.6325 -1.8167  0.0556
   66MOL    H3715767   6.494   4.613   3.178  0.0872 -1.6911  1.0062
   66MOL    O3815768   6.233   4.470   3.023  0.2572  0.3064  0.7816
   66MOL    C3915769   6.154   4.355   3.028  0.6918  0.0530 -0.6701
   66MOL    C4015770   6.002   4.384   3.014 -0.1606 -0.1166 -0.4045
   66MOL    C4115771   6.208   4.259   2.929 -0.0465 -0.7799 -0.2961
   66MOL    C4215772   6.224   4.306   2.780  0.1423  0.1905 -0.6682
   66MOL    O4315773   6.332   4.342   2.735  0.4213  0.2288 -0.4885
   66MOL    H4415774   6.163   4.305   3.124  1.1985  1.7872  0.1927
   66MOL    H4515775   5.979   4.383   2.907 -0.6283  0.0283 -0.3062
   66MOL    H4615776   5.970   4.476   3.063  0.3813 -1.4299  2.4938
   66MOL    H4715777   5.966   4.297   3.068  0.7857 -1.3329 -1.6772
   66MOL    H4815778   6.137   4.177   2.934  1.1869 -1.7973  0.7124
   66MOL    H4915779   6.308   4.227   2.958 -0.1826  0.5920  1.7767
   66MOL    O5015780   6.110   4.292   2.714 -0.0518 -0.0501 -0.0177
   66MOL    C5115781   6.092   4.315   2.577 -0.6647 -0.5451 -0.8649
   66MOL    C5215782   6.077   4.184   2.503 -1.1914  0.6745 -0.5038
   66MOL    C5315783   5.972   4.413   2.564  0.3867 -0.3679  0.2124
   66MOL    C5415784   6.018   4.556   2.591  0.5034  0.2822 -0.1599
   66MOL    O5515785   6.037   4.598   2.705  0.0270  0.1830  0.0081
   66MOL    H5615786   6.189   4.357   2.552  0.1705 -0.9216  1.6081
   66MOL    H5715787   6.029   4.199   2.407 -0.6779 -0.5339 -0.9528
   66MOL    H5815788   6.008   4.120   2.558 -1.2371 -0.8807 -2.3166
   66MOL    H5915789   6.169   4.127   2.494 -1.1236  0.7829 -0.4997
   66MOL    H6015790   5.889   4.377   2.626  0.5747  0.6511  1.0676
   66MOL    H6115791   5.937   4.412   2.460  4.1713  3.6343 -1.2398
   66MOL    O6215792   6.040   4.624   2.476  0.7221  0.6048  0.6145
   66MOL    C6315793   6.050   4.767   2.481  0.3330 -0.8440 -0.3495
   66MOL    C6415794   6.189   4.792   2.532 -0.7170  0.2854  0.3151
   66MOL    C6515795   6.023   4.821   2.343 -0.1287  0.8160 -0.3934
   66MOL    C6615796   5.877   4.839   2.315 -0.5802  0.2270  0.3522
   66MOL    O6715797   5.831   4.951   2.299  0.5066 -0.2873 -0.2277
   66MOL    H6815798   5.981   4.812   2.552  1.3389 -0.6772  0.5360
   66MOL    H6915799   6.213   4.742   2.625  0.7127  0.1380 -0.1182
   66MOL    H7015800   6.202   4.900   2.540  0.9229  0.0472  1.0243
   66MOL    H7115801   6.266   4.766   2.458  0.1622  2.3238  0.4828
   66MOL    H7215802   6.064   4.759   2.263  1.2467  0.3291  0.6544
   66MOL    H7315803   6.071   4.919   2.338 -1.4072  1.4447 -0.4825
   66MOL    O7415804   5.814   4.719   2.315 -0.5388  0.3762  0.2815
   66MOL    C7515805   5.673   4.710   2.327 -0.5647 -0.1949  0.0374
   66MOL    C7615806   5.605   4.731   2.190 -0.2144 -0.4234  0.0011
   66MOL    C7715807   5.623   4.582   2.401 -0.6474  0.2957 -0.9654
   66MOL    C7815808   5.646   4.460   2.314 -0.3616  0.4633  0.2602
   66MOL    O7915809   5.761   4.408   2.312  0.0281  0.0813  1.0686
   66MOL    H8015810   5.646   4.797   2.386  0.0074  0.1825 -0.2540
   66MOL    H8115811   5.656   4.671   2.114 -3.1142 -0.6007 -1.8800
   66MOL    H8215812   5.616   4.837   2.169  1.5665 -0.3401  1.2722
   66MOL    H8315813   5.497   4.717   2.194 -0.5152  1.0856 -2.0519
   66MOL    H8415814   5.519   4.588   2.434 -1.0777 -0.8588 -2.0704
   66MOL    H8515815   5.678   4.578   2.495 -1.4711  1.4195 -0.4416
   66MOL    O8615816   5.534   4.417   2.246 -0.2829  0.5754  0.3126
   66MOL    C8715817   5.521   4.285   2.184 -0.2273 -0.3235 -0.0926
   66MOL    C8815818   5.454   4.186   2.281  0.5733 -0.2270 -0.2685
   66MOL    C8915819   5.463   4.287   2.041 -0.3897 -0.0962 -0.2303
   66MOL    C9015820   5.310   4.289   2.026 -0.2901 -0.4420 -0.1341
   66MOL    O9115821   5.255   4.190   1.974 -0.2516  0.3251 -0.5066
   66MOL    H9215822   5.624   4.252   2.169  0.2956  0.8478  0.8644
   66MOL    H9315823   5.500   4.191   2.379  0.8222  1.5992 -0.4613
   66MOL    H9415824   5.460   4.081   2.250  2.9059  0.0334 -0.7592
   66MOL    H9515825   5.350   4.213   2.298  0.4834 -1.1360  0.7191
   66MOL    H9615826   5.498   4.194   1.994 -0.7488 -0.5805  0.4507
   66MOL    H9715827   5.519   4.371   2.000 -1.4829 -0.1032 -1.7802
   66MOL    O9815828   5.258   4.401   2.055  0.5218 -0.8773  0.1587
   66MOL    C9915829   5.118   4.417   2.076  0.1714  0.3668  1.0978
   66MOL   C10015830   5.098   4.530   2.174 -0.2074  0.1386 -0.4668
   66MOL   C10115831   5.043   4.437   1.938  0.2699  0.5335  0.0149
   66MOL   C10215832   5.074   4.564   1.856  0.2979 -0.0215  0.1461
   66MOL   O10315833   5.094   4.565   1.735  0.0769  0.9549 -0.1158
   66MOL   H10415834   5.081   4.330   2.129 -1.2749 -0.3876 -1.1078
   66MOL   H10515835   5.127   4.494   2.273 -0.2959 -3.6208 -1.7253
   66MOL   H10615836   4.992   4.555   2.181 -0.4722 -0.6747 -1.4075
   66MOL   H10715837   5.152   4.618   2.141  0.2002 -0.3680 -1.1608
   66MOL   H10815838   4.939   4.443   1.968 -0.4325  1.2676 -2.4835
   66MOL   H10915839   5.067   4.352   1.873  0.5517  1.4154 -1.0571
   66MOL   O11015840   5.072   4.677   1.929  0.2416  0.2729 -0.0643
   66MOL   C11115841   5.058   4.807   1.874  0.0791 -0.1549  0.6921
   66MOL   C11215842   4.991   4.878   1.988  0.5182 -0.0513  0.1420
   66MOL   C11315843   5.196   4.865   1.822 -0.4334 -0.2023 -0.6634
   66MOL   C11415844   5.292   4.911   1.932 -0.0676 -1.1042  0.9255
   66MOL   O11515845   5.363   4.831   1.992  0.2459  0.6347  0.5052
   66MOL   H11615846   4.991   4.807   1.788  0.2020  1.8577  0.5794
   66MOL   H11715847   5.040   4.878   2.086 -2.0540  1.3207  1.4836
   66MOL   H11815848   4.885   4.854   1.999  0.5434 -0.6749 -0.9413
   66MOL   H11915849   4.992   4.985   1.968  1.0966  0.4607  2.6995
   66MOL   H12015850   5.177   4.948   1.755 -0.9034  0.5825  0.4349
   66MOL   H12115851   5.248   4.785   1.769  0.4250 -2.9663  4.0903
   66MOL   O12215852   5.303   5.044   1.948 -0.1356 -0.5744 -0.4260
   66MOL   C12315853   5.400   5.116   2.025 -0.0520  0.5962 -0.0585
   66MOL   C12415854   5.534   5.145   1.940 -0.3156 -0.1669  0.3617
   66MOL   C12515855   5.330   5.247   2.063  0.1097 -0.4599  0.3698
   66MOL   C12615856   5.392   5.326   2.179  0.3705  0.2285 -0.3776
   66MOL   O12715857   5.439   5.437   2.164  0.6015 -0.0370  0.8226
   66MOL   H12815858   5.434   5.065   2.115  0.6538  1.6407  0.2872
   66MOL   H12915859   5.606   5.209   1.991  1.2518 -0.3573 -1.5577
   66MOL   H13015860   5.516   5.189   1.842 -2.5106 -0.9763  0.3792
   66MOL   H13115861   5.590   5.051   1.936 -0.0294  0.0192  0.0008
   66MOL   H13215862   5.232   5.216   2.098 -1.1846  1.2085 -1.5930
   66MOL   H13315863   5.310   5.308   1.974 -1.1402 -1.2424  0.0958
   66MOL   O13415864   5.397   5.252   2.295  0.3835  0.3069 -0.1748
   66MOL   C13515865   5.487   5.286   2.403 -0.5059  0.0390 -0.0501
   66MOL   C13615866   5.392   5.332   2.513 -0.3525 -0.0383 -0.3774
   66MOL   C13715867   5.589   5.176   2.426 -0.3284  0.4053 -0.3192
   66MOL   C13815868   5.533   5.052   2.503  0.0388 -0.1473 -1.0780
   66MOL   O13915869   5.454   4.974   2.452  0.0836  0.1952  1.1904
   66MOL   H14015870   5.543   5.375   2.376  1.3796 -0.8193  0.8786
   66MOL   H14115871   5.329   5.410   2.469 -1.2670 -0.8757 -0.5593
   66MOL   H14215872   5.445   5.381   2.595 -0.6197  0.0187 -0.2390
   66MOL   H14315873   5.340   5.253   2.567 -1.9375  1.5349  0.4795
   66MOL   H14415874   5.673   5.221   2.479 -1.0980  1.3846  0.0796
   66MOL   H14515875   5.630   5.132   2.335  0.7305 -0.7230  0.6696
   66MOL   O14615876   5.564   5.050   2.640 -0.0006  0.3190  0.3434
   66MOL   C14715877   5.530   4.937   2.721  0.2540 -0.4126  1.0355
   66MOL   C14815878   5.660   4.851   2.724 -0.2371  0.2271  0.3095
   66MOL   C14915879   5.480   4.991   2.861  0.3900 -0.2331 -0.1024
   66MOL   C15015880   5.329   4.980   2.859  0.6264 -0.4538 -0.3015
   66MOL   O15115881   5.277   4.873   2.896  0.3043  0.1392  0.1085
   66MOL   H15215882   5.445   4.882   2.681 -0.4740  1.7851 -0.5493
   66MOL   H15315883   5.707   4.817   2.632  0.6804  5.1072 -1.1870
   66MOL   H15415884   5.645   4.759   2.780  2.7294 -0.2566  0.3882
   66MOL   H15515885   5.730   4.912   2.782 -0.7068  1.7169 -0.6725
   66MOL   H15615886   5.520   5.092   2.873  1.7888 -0.7372 -0.4661
   66MOL   H15715887   5.518   4.922   2.935  0.9249  1.5411  1.3170
   66MOL   O15815888   5.265   5.092   2.817  0.6242 -0.5191 -0.2497
   66MOL   C15915889   5.124   5.109   2.821 -0.1020  0.5106  0.3590
   66MOL   C16015890   5.089   5.101   2.973 -0.5279 -0.2415 -0.7042
   66MOL   C16115891   5.084   5.228   2.734  1.0559 -0.7164  0.2753
   66MOL   C16215892   4.945   5.285   2.766  0.3828 -0.2193  0.3724
   66MOL   O16315893   4.932   5.398   2.816  0.2278 -0.1486 -0.2262
   66MOL   H16415894   5.079   5.016   2.784 -0.7271  0.6298  0.8239
   66MOL   H16515895   5.131   5.191   3.018  0.4143 -1.5125  0.9829
   66MOL   H16615896   5.116   5.011   3.028 -1.1162  0.2237  0.3554
   66MOL   H16715897   4.985   5.125   2.994 -0.3303  1.3552 -1.4554
   66MOL   H16815898   5.075   5.201   2.629  2.6778 -0.1822 -0.0160
   66MOL   H16915899   5.158   5.308   2.734 -0.6208  0.8629  0.2172
   66MOL   O17015900   4.844   5.199   2.733 -0.3694 -0.3730 -0.2023
   66MOL   C17115901   4.706   5.243   2.749  0.7973 -0.2794  0.4821
   66MOL   C17215902   4.666   5.312   2.618  0.2147 -0.3216 -0.5754
   66MOL   C17315903   4.617   5.123   2.780 -0.8160  0.3982 -0.1562
   66MOL   C17415904   4.634   5.073   2.922  0.1258 -0.4785  0.1316
   66MOL   O17515905   4.682   5.145   3.009 -0.0871  0.1343 -0.1204
   66MOL   H17615906   4.703   5.315   2.830  1.0926  0.0466  0.2090
   66MOL   H17715907   4.560   5.338   2.620 -0.5849 -3.3862 -0.6539
   66MOL   H17815908   4.698   5.263   2.526  0.0784 -0.7487 -0.3978
   66MOL   H17915909   4.713   5.410   2.617 -1.3358  0.4439 -0.2518
   66MOL   H18015910   4.624   5.040   2.709  2.1502  0.6130 -0.1461
   66MOL   H18115911   4.510   5.146   2.773 -1.2453 -0.8479  1.9243
   66MOL   O18215912   4.606   4.938   2.931 -0.1314  0.0885  0.0921
   66MOL   C18315913   4.625   4.873   3.060  0.6702 -0.8901  0.4049
   66MOL   C18415914   4.538   4.743   3.078 -0.0981 -0.4615 -0.3515
   66MOL   C18515915   4.771   4.849   3.075 -0.4192 -0.1663  0.7504
   66MOL   C18615916   4.811   4.809   3.218  0.1332  0.2376 -0.6334
   66MOL   O18715917   4.743   4.838   3.319  0.6415 -0.0091  0.3953
   66MOL   H18815918   4.596   4.953   3.127  2.3500 -0.6227  0.8223
   66MOL   H18915919   4.438   4.741   3.034 -1.1396  0.2897  1.9232
   66MOL   H19015920   4.535   4.715   3.184  2.2665  0.2842 -0.0498
   66MOL   H19115921   4.590   4.661   3.028 -1.0210 -2.0121  1.1669
   66MOL   H19215922   4.821   4.943   3.050 -1.1093  0.3009  1.1113
   66MOL   H19315923   4.808   4.787   2.993  1.7617  0.8832  0.9169
   66MOL   O19415924   4.913   4.720   3.216 -0.0644 -0.1312 -0.1187
   66MOL   C19515925   4.981   4.674   3.335  0.1659 -0.0314  0.1600
   66MOL   C19615926   4.975   4.524   3.344 -0.3421  0.4337  0.3799
   66MOL   C19715927   5.115   4.741   3.342 -0.4818  0.4359 -0.2926
   66MOL   C19815928   5.126   4.854   3.434  0.1446 -0.0993 -0.1967
   66MOL   O19915929   5.210   4.856   3.520 -0.2071 -0.2714 -0.3999
   66MOL   H20015930   4.928   4.711   3.423 -0.5594  0.8614 -0.6233
   66MOL   H20115931   5.018   4.478   3.255 -0.6134  1.5513 -0.3297
   66MOL   H20215932   4.869   4.499   3.342 -0.3223  0.3327  0.5195
   66MOL   H20315933   5.019   4.474   3.430 -0.8582 -1.6713 -0.5413
   66MOL   H20415934   5.144   4.776   3.243  1.2488  2.4621  0.8782
   66MOL   H20515935   5.190   4.668   3.372 -1.3084  0.1954  1.2305
   66MOL   O20615936   5.036   4.946   3.411 -0.8839  0.0743  0.2958
   66MOL   C20715937   5.039   5.076   3.463 -0.2224 -0.0643  0.0898
   66MOL   C20815938   5.027   5.182   3.353 -0.1998  0.2742 -0.1866
   66MOL   C20915939   4.946   5.096   3.583 -0.1073 -0.5741 -0.4302
   66MOL   C21015940   4.978   5.228   3.664  0.1190 -0.5607 -0.1921
   66MOL   O21115941   4.923   5.335   3.632 -0.2749  0.7545 -0.3286
   66MOL   H21215942   5.140   5.087   3.501  0.3954 -0.6708 -1.3419
   66MOL   H21315943   5.030   5.283   3.393  1.1994 -0.3582  1.3436
   66MOL   H21415944   4.928   5.173   3.306  1.0521 -4.2134 -2.2557
   66MOL   H21515945   5.106   5.174   3.279  1.1796 -0.0370  1.2946
   66MOL   H21615946   4.935   5.000   3.635 -0.7618 -0.5791 -0.5760
   66MOL   H21715947   4.849   5.111   3.535 -1.2785 -3.3439  0.9454
   66MOL   O21815948   5.058   5.208   3.770 -0.3216  0.8125 -0.4035
   66MOL   C21915949   5.100   5.314   3.853  0.5044  0.2202 -0.4757
   66MOL   C22015950   5.065   5.260   3.994 -0.2774  0.4257 -0.1067
   66MOL   C22115951   5.250   5.325   3.829  0.3638  0.1739 -0.4619
   66MOL   C22215952   5.283   5.394   3.700 -0.3144  0.2514 -0.0417
   66MOL   O22315953   5.306   5.328   3.595 -0.1552  0.0999  0.2802
   66MOL   H22415954   5.054   5.410   3.827  0.6589  0.0427 -1.4228
   66MOL   H22515955   5.098   5.160   4.020 -0.8279  1.0823  3.3591
   66MOL   H22615956   4.959   5.265   4.021  0.2759  1.0592  2.0629
   66MOL   H22715957   5.111   5.332   4.061 -0.1867  0.2591  0.0085
   66MOL   H22815958   5.299   5.227   3.828 -1.2360 -0.7107  2.5329
   66MOL   H22915959   5.306   5.377   3.906 -0.6542 -1.0656  1.1286
   66MOL   O23015960   5.271   5.528   3.711  0.2482 -0.3095 -0.4707
   66MOL   C23115961   5.290   5.611   3.596 -0.3413 -0.0349  0.3424
   66MOL   C23215962   5.144   5.652   3.565 -0.3595  0.2233 -0.5109
   66MOL   C23315963   5.392   5.718   3.638  0.7241 -0.4206 -0.4982
   66MOL   C23415964   5.422   5.817   3.525 -0.7077 -0.3619  0.1747
   66MOL   O23515965   5.521   5.891   3.539  0.8249  0.4847 -0.1884
   66MOL   H23615966   5.326   5.559   3.507 -1.0030  2.8943 -1.7235
   66MOL   H23715967   5.141   5.708   3.472  1.2908  2.1034  0.5143
   66MOL   H23815968   5.118   5.735   3.632 -0.8087 -0.9880  0.8452
   66MOL   H23915969   5.074   5.569   3.576 -1.6978  1.3354 -0.3477
   66MOL   H24015970   5.485   5.668   3.668  1.4289 -0.2358 -2.2977
   66MOL   H24115971   5.361   5.779   3.722 -0.6009  2.0314 -2.7138
   66MOL   H24215972   5.347   5.819   3.446 -1.3728  0.6606  0.8194
   67MOL     O115973   4.658   0.032   4.623 -0.2393 -0.2349 -0.1315
   67MOL     C215974   4.553   0.126   4.604  0.1838  0.5122  0.2402
   67MOL     C315975   4.597   0.260   4.649  0.2532 -0.2144 -0.0491
   67MOL     C415976   4.526   0.120   4.447 -1.0339 -0.0473  0.3428
   67MOL     C515977   4.385   0.165   4.408 -0.0269 -0.3073  0.8540
   67MOL     O615978   4.292   0.083   4.422 -0.5217  0.4842  0.0986
   67MOL     H715979   4.459   0.092   4.647 -1.2525  1.7396 -1.8343
   67MOL     H815980   4.545   0.336   4.590  0.0838 -0.0279  0.3362
   67MOL     H915981   4.697   0.273   4.608  0.5412 -0.5563  0.5488
   67MOL    H1015982   4.595   0.278   4.756  1.5498 -2.5229  0.3967
   67MOL    H1115983   4.526   0.016   4.415 -2.1498  0.1061 -0.1713
   67MOL    H1215984   4.598   0.172   4.384 -3.0684 -0.4464 -2.4063
   67MOL    H1315985   4.665   0.007   4.714 -1.1495 -0.3673 -0.0963
   67MOL    O1415986   4.383   0.289   4.355 -0.0997  0.1233 -0.7943
   67MOL    C1515987   4.264   0.350   4.317  0.1296  0.5042 -0.3918
   67MOL    C1615988   4.269   0.497   4.366 -0.2400  0.0606 -0.1562
   67MOL    C1715989   4.251   0.332   4.161 -0.1299  0.3839 -0.4074
   67MOL    C1815990   4.362   0.395   4.076  0.0135  0.3546 -0.9044
   67MOL    O1915991   4.357   0.520   4.056 -0.0515 -0.2134 -0.4584
   67MOL    H2015992   4.179   0.304   4.368  2.3512 -1.6496  1.4647
   67MOL    H2115993   4.347   0.552   4.313 -0.7930  0.8086 -0.2007
   67MOL    H2215994   4.292   0.507   4.472 -1.9628 -0.0141  0.2524
   67MOL    H2315995   4.175   0.550   4.349  0.2070  0.1610 -2.5683
   67MOL    H2415996   4.170   0.398   4.129 -0.2961  0.3535 -0.0488
   67MOL    H2515997   4.218   0.231   4.133 -0.1307  0.0437  0.8093
   67MOL    O2615998   4.465   0.315   4.040  0.5268  0.1795 -0.1785
   67MOL    C2715999   4.578   0.363   3.975  0.1148 -0.3846 -0.2415
   67MOL    C2816000   4.686   0.377   4.082  0.1650  0.0210 -0.6018
   67MOL    C2916001   4.600   0.267   3.863 -0.2847 -0.3661  0.2991
   67MOL    C3016002   4.707   0.311   3.760 -0.1594  0.1489  0.0109
   67MOL    O3116003   4.788   0.232   3.713  0.0398 -0.2217  0.3976
   67MOL    H3216004   4.568   0.465   3.940  4.1063  0.0563 -0.2893
   67MOL    H3316005   4.653   0.451   4.154 -0.2203 -0.6345 -0.1078
   67MOL    H3416006   4.789   0.404   4.056  0.8325  0.8743  2.7081
   67MOL    H3516007   4.708   0.284   4.134  0.3159  1.1262  1.3463
   67MOL    H3616008   4.510   0.232   3.812 -1.5481 -0.1246  2.2916
   67MOL    H3716009   4.641   0.177   3.910 -2.5580 -1.0345  1.0861
   67MOL    O3816010   4.706   0.446   3.735  0.1085  0.3540 -0.0049
   67MOL    C3916011   4.821   0.513   3.678  0.1562  0.4043  0.4329
   67MOL    C4016012   4.803   0.506   3.529 -0.2487 -0.3999 -0.0822
   67MOL    C4116013   4.812   0.660   3.726  0.0268  0.4923 -0.6640
   67MOL    C4216014   4.859   0.691   3.866 -0.8756  0.7729  1.2622
   67MOL    O4316015   4.789   0.691   3.969 -0.1198 -0.2172  0.1252
   67MOL    H4416016   4.917   0.469   3.705  0.1932  0.4660  0.4040
   67MOL    H4516017   4.893   0.544   3.480 -0.5284 -1.7435 -1.6820
   67MOL    H4616018   4.716   0.567   3.504  1.0213  1.4306 -0.1306
   67MOL    H4716019   4.791   0.403   3.496  3.9108 -1.0182  0.0271
   67MOL    H4816020   4.710   0.698   3.715 -1.0419 -2.7851 -2.7794
   67MOL    H4916021   4.877   0.724   3.667  0.2625 -0.7424 -1.7625
   67MOL    O5016022   4.990   0.690   3.870 -0.2054  0.4855 -0.4690
   67MOL    C5116023   5.057   0.683   3.996  0.6431 -0.0244  0.2148
   67MOL    C5216024   5.129   0.543   3.997  0.8806  0.2318  0.0806
   67MOL    C5316025   5.140   0.816   4.021  0.1219 -0.1406 -0.7427
   67MOL    C5416026   5.271   0.821   3.937 -0.2594 -0.4230  0.1941
   67MOL    O5516027   5.366   0.897   3.963 -0.0056  0.2452  0.0993
   67MOL    H5616028   4.993   0.672   4.083  1.5703 -1.5979  0.7234
   67MOL    H5716029   5.058   0.462   4.013 -1.4993  1.8201 -2.0955
   67MOL    H5816030   5.195   0.546   4.084  0.5515  1.7795  0.2862
   67MOL    H5916031   5.184   0.511   3.909 -0.5732  1.3530 -1.2516
   67MOL    H6016032   5.148   0.831   4.128 -0.0359  1.2031 -0.9017
   67MOL    H6116033   5.078   0.902   3.993 -1.9244 -0.8124  1.5642
   67MOL    O6216034   5.274   0.737   3.842 -0.1291  0.5353 -0.0356
   67MOL    C6316035   5.371   0.741   3.738  0.0634 -0.0778 -0.3898
   67MOL    C6416036   5.490   0.652   3.778 -0.0590  0.0420  0.1048
   67MOL    C6516037   5.277   0.693   3.614  0.1132  0.8319  0.3907
   67MOL    C6616038   5.362   0.690   3.481 -0.0928  0.6982 -0.7838
   67MOL    O6716039   5.389   0.589   3.410  0.4013 -0.0717 -0.2226
   67MOL    H6816040   5.403   0.844   3.731 -2.4195  0.7575 -0.0265
   67MOL    H6916041   5.551   0.713   3.845  0.7091  0.2638 -0.7891
   67MOL    H7016042   5.545   0.639   3.684  2.1392 -0.6734  1.4331
   67MOL    H7116043   5.458   0.554   3.814  2.0387 -0.0513  1.8529
   67MOL    H7216044   5.187   0.751   3.597 -0.4032 -0.3700 -1.1033
   67MOL    H7316045   5.235   0.593   3.627  2.3596  0.1657  2.9409
   67MOL    O7416046   5.410   0.812   3.454  0.0899 -0.7796  0.4479
   67MOL    C7516047   5.502   0.844   3.355  0.0448  0.1429  0.7462
   67MOL    C7616048   5.431   0.952   3.266  0.7899 -0.2032 -0.6642
   67MOL    C7716049   5.635   0.884   3.410 -0.1255  0.6140 -0.1302
   67MOL    C7816050   5.648   1.022   3.478  0.0196 -0.0849  0.2596
   67MOL    O7916051   5.727   1.104   3.434 -0.5309  0.3562 -0.2537
   67MOL    H8016052   5.519   0.757   3.292 -1.3506  1.4867 -1.5764
   67MOL    H8116053   5.470   0.987   3.171 -0.8493  1.8354 -0.6204
   67MOL    H8216054   5.413   1.030   3.340 -2.1944 -2.1050  0.6932
   67MOL    H8316055   5.338   0.901   3.239  0.2726 -0.0098  0.7158
   67MOL    H8416056   5.705   0.886   3.327 -0.2697 -1.5404 -0.3287
   67MOL    H8516057   5.665   0.808   3.482 -0.9002  1.2694  0.9023
   67MOL    O8616058   5.563   1.033   3.585 -0.6097 -0.2567 -0.7060
   67MOL    C8716059   5.570   1.159   3.660 -0.6318  0.0720  0.1284
   67MOL    C8816060   5.423   1.200   3.641  0.0550 -0.1308 -0.2129
   67MOL    C8916061   5.625   1.132   3.802 -0.1237  0.0425 -1.0141
   67MOL    C9016062   5.778   1.107   3.796 -0.2696 -0.2029  0.0312
   67MOL    O9116063   5.853   1.202   3.760  0.0207 -0.2224  0.1764
   67MOL    H9216064   5.636   1.232   3.612 -1.1595  1.5741  1.6516
   67MOL    H9316065   5.369   1.133   3.708  2.1055  1.2745  2.9743
   67MOL    H9416066   5.387   1.201   3.538  2.0539 -1.1752 -0.9455
   67MOL    H9516067   5.402   1.293   3.693 -1.3150 -1.2882  1.3474
   67MOL    H9616068   5.565   1.060   3.857 -0.3528  1.9403  1.2709
   67MOL    H9716069   5.601   1.214   3.869  0.2812 -1.3745  0.9115
   67MOL    O9816070   5.817   0.987   3.839 -0.8858  0.0701  0.3914
   67MOL    C9916071   5.959   0.951   3.843 -0.6410  0.1547 -0.7259
   67MOL   C10016072   5.988   0.886   3.981  0.0811  0.5549 -0.4218
   67MOL   C10116073   6.004   0.851   3.732 -0.4967 -0.6272 -0.2535
   67MOL   C10216074   6.048   0.910   3.603 -0.3016  0.3232  0.2958
   67MOL   O10316075   6.103   1.022   3.600  0.0125 -0.2513 -0.4725
   67MOL   H10416076   6.024   1.037   3.835  0.8943 -1.0176 -1.0139
   67MOL   H10516077   5.920   0.803   4.001  0.7699  0.2167  0.5842
   67MOL   H10616078   5.979   0.956   4.064  0.3506  0.2449 -0.1272
   67MOL   H10716079   6.088   0.842   3.983 -0.0394  0.1839 -2.1236
   67MOL   H10816080   5.921   0.782   3.720 -0.2699 -0.9876  0.2224
   67MOL   H10916081   6.088   0.790   3.766  0.0417  0.5086  0.4693
   67MOL   O11016082   6.025   0.824   3.492  0.1743 -0.3339 -0.2492
   67MOL   C11116083   6.092   0.858   3.368 -0.2764 -0.3890  0.6136
   67MOL   C11216084   6.202   0.758   3.351  0.2233  0.5437  0.1409
   67MOL   C11316085   5.995   0.879   3.252 -0.9593 -0.2969 -0.4078
   67MOL   C11416086   5.919   0.763   3.194  0.0214 -1.3088 -0.5042
   67MOL   O11516087   5.900   0.756   3.071  0.4620 -0.1838  0.9376
   67MOL   H11616088   6.142   0.953   3.386 -0.3055 -0.5573  1.5984
   67MOL   H11716089   6.262   0.752   3.442 -1.5091  1.4034  1.3661
   67MOL   H11816090   6.268   0.793   3.271  2.6164 -2.2086  0.7920
   67MOL   H11916091   6.173   0.659   3.315  2.4851  0.7341 -2.4408
   67MOL   H12016092   6.049   0.930   3.172  2.2636 -2.7637  0.0975
   67MOL   H12116093   5.918   0.948   3.287 -2.3033 -0.0099 -3.7383
   67MOL   O12216094   5.875   0.675   3.283 -0.3360  0.5869 -0.0949
   67MOL   C12316095   5.780   0.570   3.263  0.3631  0.3570  0.5925
   67MOL   C12416096   5.856   0.464   3.178  0.1983  0.4318 -0.4045
   67MOL   C12516097   5.716   0.517   3.392  0.5197  0.1081  0.3023
   67MOL   C12616098   5.807   0.442   3.493 -0.2982 -0.8512 -0.7837
   67MOL   O12716099   5.854   0.331   3.459 -0.1472 -0.1886  0.3291
   67MOL   H12816100   5.696   0.611   3.206 -0.5615  1.1813  2.4962
   67MOL   H12916101   5.799   0.371   3.175  0.7575  0.1030 -1.2256
   67MOL   H13016102   5.960   0.443   3.203  0.5407  0.2355 -1.9534
   67MOL   H13116103   5.874   0.493   3.074  1.5802  2.1363  0.2793
   67MOL   H13216104   5.632   0.455   3.359 -2.1021  2.9693  1.3147
   67MOL   H13316105   5.673   0.597   3.453  3.6384  0.3277  2.3069
   67MOL   O13416106   5.822   0.502   3.614 -0.7089 -0.2034  0.3183
   67MOL   C13516107   5.895   0.431   3.717 -0.8057  0.0410  0.4814
   67MOL   C13616108   6.043   0.464   3.724 -0.8577 -0.2998  0.0391
   67MOL   C13716109   5.820   0.483   3.845 -0.0691  0.3333 -0.6241
   67MOL   C13816110   5.867   0.427   3.977  0.1490 -0.0096  0.6687
   67MOL   O13916111   5.910   0.502   4.061  0.0933  0.1783  0.3677
   67MOL   H14016112   5.877   0.323   3.717 -1.9661  0.1812 -2.4886
   67MOL   H14116113   6.097   0.395   3.790 -1.6992 -3.3550 -2.3081
   67MOL   H14216114   6.061   0.563   3.765  0.6983 -1.6161  2.6579
   67MOL   H14316115   6.093   0.470   3.628  0.4379 -0.5059  0.6888
   67MOL   H14416116   5.714   0.461   3.833  0.2780 -1.4603 -0.5355
   67MOL   H14516117   5.826   0.592   3.845  0.3489  0.3444  1.7132
   67MOL   O14616118   5.869   0.290   3.983 -0.0136 -0.6503  0.1424
   67MOL   C14716119   5.930   0.223   4.089 -0.1829 -0.2433 -0.0601
   67MOL   C14816120   5.841   0.102   4.103  0.1062 -0.5688 -0.4077
   67MOL   C14916121   6.074   0.200   4.058 -0.1473  1.1820  0.1547
   67MOL   C15016122   6.170   0.194   4.173 -0.4228  0.2427 -0.7252
   67MOL   O15116123   6.257   0.285   4.184 -0.1922  0.0347 -0.6904
   67MOL   H15216124   5.926   0.286   4.178 -3.1589 -0.3269 -0.0717
   67MOL   H15316125   5.882   0.033   4.177 -1.4385 -2.2730 -1.1212
   67MOL   H15416126   5.843   0.042   4.013  0.5420  0.6129 -1.1898
   67MOL   H15516127   5.736   0.119   4.127  0.4660 -0.9202  1.4933
   67MOL   H15616128   6.123   0.268   3.988 -0.8806  0.5813 -0.9526
   67MOL   H15716129   6.064   0.103   4.009  0.9017  1.2453 -0.2149
   67MOL   O15816130   6.151   0.084   4.252  0.2977  0.0886 -0.2725
   67MOL   C15916131   6.219   0.059   4.377 -0.4378 -0.2553 -0.2251
   67MOL   C16016132   6.171   0.166   4.480 -0.6214 -0.3694 -0.6157
   67MOL   C16116133   6.182   7.908   4.430 -0.5384 -0.3873 -0.0802
   67MOL   C16216134   6.220   7.794   4.329  0.6596 -0.9914 -0.0035
   67MOL   O16316135   6.319   7.798   4.265 -1.0329 -0.0089  0.1651
   67MOL   H16416136   6.325   0.054   4.352 -0.3361 -0.5234  0.2498
   67MOL   H16516137   6.207   0.269   4.475 -4.2647  1.0273  0.2464
   67MOL   H16616138   6.199   0.139   4.582  0.8441  2.1496 -0.2848
   67MOL   H16716139   6.063   0.176   4.475 -0.6713 -1.1715 -1.2646
   67MOL   H16816140   6.078   7.901   4.461  0.1527 -1.3184  2.1181
   67MOL   H16916141   6.241   7.892   4.521 -0.9804 -1.8150 -0.0338
   67MOL   O17016142   6.115   7.702   4.313 -0.5842 -0.0829 -0.1233
   67MOL   C17116143   6.122   7.595   4.213 -0.4290  0.0652  0.0021
   67MOL   C17216144   6.066   7.475   4.283 -0.2210 -0.1708  0.0990
   67MOL   C17316145   6.030   7.631   4.094  0.5398  0.4867 -0.4273
   67MOL   C17416146   6.083   7.743   4.014 -0.4337  0.1690 -0.0770
   67MOL   O17516147   6.019   7.829   3.967  0.0711 -0.2571 -0.1159
   67MOL   H17616148   6.220   7.570   4.172 -0.5430  1.1759 -0.9669
   67MOL   H17716149   6.109   7.455   4.381  0.2586 -1.5930 -0.3857
   67MOL   H17816150   6.079   7.384   4.224  1.5280  1.5428 -2.2583
   67MOL   H17916151   5.960   7.487   4.308 -0.4953 -0.1024 -1.0817
   67MOL   H18016152   5.929   7.646   4.131  0.3625  1.1260 -1.1450
   67MOL   H18116153   6.023   7.551   4.021  3.3630 -0.5077  0.3138
   67MOL   O18216154   6.214   7.726   3.989 -0.3342 -0.2248  0.4178
   67MOL   C18316155   6.275   7.796   3.885  0.4763 -0.3973 -0.6034
   67MOL   C18416156   6.347   7.918   3.946  1.2548  0.9646  0.1769
   67MOL   C18516157   6.378   7.700   3.814 -0.2046  0.1749  0.8295
   67MOL   C18616158   6.322   7.593   3.720 -0.0796  0.5590  0.1210
   67MOL   O18716159   6.229   7.619   3.646 -0.0837  0.0691 -0.1745
   67MOL   H18816160   6.199   7.824   3.812 -1.1580  0.9241  1.5265
   67MOL   H18916161   6.297   0.016   4.003 -1.3556  0.0856 -0.8403
   67MOL   H19016162   6.374   7.970   3.854 -0.4162  0.2229 -0.7518
   67MOL   H19116163   6.436   7.888   4.002  1.3637  0.2046 -0.3951
   67MOL   H19216164   6.451   7.657   3.883  0.9708  2.2392  0.8976
   67MOL   H19316165   6.433   7.767   3.748  1.0686 -2.4305 -0.8786
   67MOL   O19416166   6.395   7.478   3.730  0.0372  0.4379 -0.6611
   67MOL   C19516167   6.360   7.353   3.677  0.0194 -0.4923 -0.0573
   67MOL   C19616168   6.483   7.328   3.584  0.2506 -0.0872  0.2072
   67MOL   C19716169   6.333   7.255   3.796 -0.3956  0.5328 -0.4191
   67MOL   C19816170   6.206   7.280   3.864  0.1183 -0.5153 -0.0699
   67MOL   O19916171   6.205   7.329   3.973 -0.2308 -0.0939  0.2284
   67MOL   H20016172   6.272   7.355   3.613  0.6423  0.8877 -0.8944
   67MOL   H20116173   6.575   7.345   3.640 -0.7452  0.9100  1.5854
   67MOL   H20216174   6.483   7.390   3.495  0.1824  0.8106  0.8227
   67MOL   H20316175   6.476   7.232   3.533  2.3263  0.5755 -1.3838
   67MOL   H20416176   6.422   7.261   3.860 -2.1518  0.9210  2.0827
   67MOL   H20516177   6.336   7.154   3.754 -0.1003 -0.4977  1.9534
   67MOL   O20616178   6.099   7.264   3.787 -0.5922  0.8475 -0.0458
   67MOL   C20716179   5.968   7.292   3.846 -0.3869  0.4046  0.3241
   67MOL   C20816180   5.881   7.354   3.735  0.3258 -0.1969  0.1512
   67MOL   C20916181   5.907   7.158   3.890  0.1427 -0.0608 -0.8469
   67MOL   C21016182   5.807   7.185   4.006  0.1346 -0.6308 -0.3163
   67MOL   O21116183   5.834   7.256   4.104  0.6804 -0.0676  0.5383
   67MOL   H21216184   5.972   7.361   3.931  1.6642  0.8742 -0.1178
   67MOL   H21316185   5.912   7.458   3.724 -0.5079  0.1807  1.3088
   67MOL   H21416186   5.779   7.360   3.773 -0.0822 -1.9636 -0.6356
   67MOL   H21516187   5.888   7.307   3.637  1.6285  0.7885 -0.2523
   67MOL   H21616188   5.980   7.085   3.925 -1.2792 -0.1190  2.1667
   67MOL   H21716189   5.854   7.112   3.806  0.9303  1.5861 -2.2748
   67MOL   O21816190   5.681   7.127   3.985 -0.1904 -0.4045 -0.2270
   67MOL   C21916191   5.569   7.171   4.065  0.5520  0.0965 -0.2299
   67MOL   C22016192   5.468   7.211   3.958 -0.3107 -0.0934 -0.3567
   67MOL   C22116193   5.520   7.065   4.157 -0.9502  0.1891  0.1299
   67MOL   C22216194   5.414   7.112   4.257 -0.4556  0.5456  0.2230
   67MOL   O22316195   5.434   7.206   4.336 -0.4558  0.0799  0.2451
   67MOL   H22416196   5.590   7.264   4.118 -0.7519 -0.1668  0.7896
   67MOL   H22516197   5.448   7.119   3.902  0.0629 -1.7822  2.1873
   67MOL   H22616198   5.507   7.285   3.888 -0.3301 -0.3657 -0.6617
   67MOL   H22716199   5.369   7.236   3.994  0.2351  1.3944  0.1379
   67MOL   H22816200   5.604   7.036   4.220 -0.1707  0.2028 -0.8906
   67MOL   H22916201   5.492   6.973   4.105 -1.0607 -0.4063  1.2195
   67MOL   O23016202   5.297   7.047   4.249  0.0941  0.1538  0.0036
   67MOL   C23116203   5.189   7.095   4.320 -0.2195 -0.0466  0.0221
   67MOL   C23216204   5.070   7.125   4.222  0.6816  0.6357  0.0882
   67MOL   C23316205   5.162   6.994   4.430  0.0807 -0.2253  0.7227
   67MOL   C23416206   5.135   6.850   4.390  0.8242 -0.1176  0.0957
   67MOL   O23516207   5.020   6.816   4.351 -0.2976  0.6466 -0.8291
   67MOL   H23616208   5.206   7.187   4.375 -1.6915  0.1916  0.0888
   67MOL   H23716209   4.987   7.154   4.286  1.6784  0.8686  1.2782
   67MOL   H23816210   5.038   7.037   4.166 -1.2878  0.4229  1.5144
   67MOL   H23916211   5.113   7.200   4.155 -0.9200  1.9415  0.4896
   67MOL   H24016212   5.079   7.026   4.493 -0.7435 -0.1790 -0.3759
   67MOL   H24116213   5.249   6.988   4.495  1.0165 -0.7845 -0.5481
   67MOL   H24216214   5.216   6.782   4.414 -0.1789 -1.0484  0.8808
   68MOL     O116215   6.643   2.975   0.060  0.4406  0.3241 -0.2542
   68MOL     C216216   6.513   3.026   0.062  0.1000  0.4397 -0.1670
   68MOL     C316217   6.511   3.158   7.963  0.0110  0.6355  0.2560
   68MOL     C416218   6.430   2.909   0.006  0.4652  0.3287  0.0151
   68MOL     C516219   6.288   2.947   7.963  0.2036 -0.1441  0.8477
   68MOL     O616220   6.216   3.019   0.056  0.5130  0.3347  0.3483
   68MOL     H716221   6.493   3.045   0.168 -1.2578 -0.1909 -0.3109
   68MOL     H816222   6.607   3.207   0.001  0.0265  0.1017  1.6407
   68MOL     H916223   6.440   3.235   0.015  1.3988  3.1394 -2.4600
   68MOL    H1016224   6.504   3.146   7.855 -0.2364  1.1912  0.2068
   68MOL    H1116225   6.434   2.838   0.088 -1.9152 -0.4809 -0.5289
   68MOL    H1216226   6.470   2.870   7.892 -0.4511 -2.1255  0.6107
   68MOL    H1316227   6.694   3.028   0.119 -0.0383 -1.8639  2.2268
   68MOL    O1416228   6.240   2.892   7.847 -0.2684 -0.2857 -0.1865
   68MOL    C1516229   6.111   2.932   7.803  0.1259 -0.1391 -0.4895
   68MOL    C1616230   6.112   2.920   7.647  0.3290 -0.7134  0.4206
   68MOL    C1716231   5.995   2.850   7.858 -0.2554  1.0451  0.0938
   68MOL    C1816232   5.999   2.697   7.840 -0.2136  0.5828  0.2664
   68MOL    O1916233   6.081   2.637   7.776  0.4406 -0.3551  0.1236
   68MOL    H2016234   6.087   3.035   7.826  0.4371 -0.2632  0.4262
   68MOL    H2116235   6.197   2.974   7.604 -0.0168  0.1667  0.8328
   68MOL    H2216236   6.021   2.962   7.603  0.8116  0.2085  0.2826
   68MOL    H2316237   6.126   2.816   7.615 -1.0405 -1.1182  1.1018
   68MOL    H2416238   5.903   2.876   7.805  0.5162  0.0001 -1.7790
   68MOL    H2516239   5.976   2.879   7.962 -1.5861  2.0125 -0.3891
   68MOL    O2616240   5.889   2.641   7.896 -0.0069  0.5262 -0.1131
   68MOL    C2716241   5.858   2.502   7.863  0.6333 -0.4257  0.7696
   68MOL    C2816242   5.920   2.410   7.964 -0.3065  0.1626 -0.0719
   68MOL    C2916243   5.708   2.484   7.839 -0.6323 -0.2692  0.2055
   68MOL    C3016244   5.665   2.551   7.710  0.9919 -0.7086  0.1938
   68MOL    O3116245   5.704   2.513   7.602 -0.3806  0.4962 -0.2842
   68MOL    H3216246   5.907   2.484   7.768 -0.3380  0.5981  0.0585
   68MOL    H3316247   6.028   2.413   7.954 -0.3813 -0.5307 -1.2008
   68MOL    H3416248   5.891   2.305   7.957  0.2780 -0.2142  2.5694
   68MOL    H3516249   5.899   2.445   0.086 -2.0205 -1.2867  0.1043
   68MOL    H3616250   5.655   2.525   7.925  0.4161  0.2574  0.6134
   68MOL    H3716251   5.675   2.381   7.826  3.2956 -1.4779 -1.1562
   68MOL    O3816252   5.581   2.651   7.728  0.2666 -0.1554  0.3127
   68MOL    C3916253   5.512   2.721   7.619 -0.0460 -0.1278 -0.2577
   68MOL    C4016254   5.385   2.638   7.601  0.7101  0.2354 -0.2035
   68MOL    C4116255   5.495   2.873   7.663  0.4050 -0.5117 -0.0059
   68MOL    C4216256   5.626   2.945   7.676 -1.5086  0.0446 -0.3738
   68MOL    O4316257   5.731   2.890   7.646 -0.2264  0.1787  0.3376
   68MOL    H4416258   5.558   2.717   7.520  0.4125  1.3424 -0.1212
   68MOL    H4516259   5.423   2.550   7.549 -0.5909  0.3317 -1.3281
   68MOL    H4616260   5.303   2.675   7.540 -0.5232 -3.5671 -0.9463
   68MOL    H4716261   5.342   2.608   7.696  1.1725  0.5854  0.1182
   68MOL    H4816262   5.440   2.890   7.756 -0.4422 -0.6373 -0.4776
   68MOL    H4916263   5.441   2.931   7.587  0.1168 -1.5161 -0.5747
   68MOL    O5016264   5.612   3.080   7.711 -0.2607 -0.7747  0.0978
   68MOL    C5116265   5.720   3.174   7.701  0.2484 -0.1084 -0.6430
   68MOL    C5216266   5.738   3.218   7.552 -0.3023 -0.1817  0.6667
   68MOL    C5316267   5.708   3.291   7.810 -0.6373 -0.2617  0.3913
   68MOL    C5416268   5.836   3.388   7.824 -0.5923  0.4181  0.4929
   68MOL    O5516269   5.835   3.508   7.844 -0.2340  0.3255  0.3218
   68MOL    H5616270   5.799   3.105   7.729 -0.3286  0.5894  3.0083
   68MOL    H5716271   5.797   3.308   7.535 -2.4331  0.7399 -2.2639
   68MOL    H5816272   5.641   3.237   7.506 -0.8122 -3.1219  0.4751
   68MOL    H5916273   5.786   3.140   7.494  0.3396  1.2942 -0.8310
   68MOL    H6016274   5.672   3.241   7.900 -3.7923  0.2802 -0.5327
   68MOL    H6116275   5.620   3.343   7.774  0.5809  0.5583 -1.4958
   68MOL    O6216276   5.949   3.316   7.820  0.4687 -0.1451  0.0892
   68MOL    C6316277   6.068   3.371   7.870 -0.0886  0.0356  0.1604
   68MOL    C6416278   6.076   3.322   0.036  0.3619 -0.5167  0.2096
   68MOL    C6516279   6.182   3.319   7.786  0.3241  0.5779  0.0912
   68MOL    C6616280   6.234   3.406   7.677 -0.3651 -0.3596 -0.1850
   68MOL    O6716281   6.355   3.446   7.674  0.0241 -0.0290  0.1122
   68MOL    H6816282   6.072   3.480   7.863 -0.9380 -0.0257 -1.5959
   68MOL    H6916283   6.051   3.216   0.043  3.0956 -1.1632  0.6064
   68MOL    H7016284   5.998   3.371   0.094  2.4208  0.1682  2.4288
   68MOL    H7116285   6.174   3.350   0.075  1.2466 -0.2670 -2.0738
   68MOL    H7216286   6.160   3.218   7.751 -1.5603  0.5535  1.2655
   68MOL    H7316287   6.265   3.300   7.854 -0.0407  1.1041  0.6888
   68MOL    O7416288   6.144   3.441   7.594 -0.1528 -0.0252  0.7109
   68MOL    C7516289   6.154   3.528   7.479  0.0715 -0.3947 -0.4736
   68MOL    C7616290   6.059   3.454   7.387  0.4193 -0.7141  0.4448
   68MOL    C7716291   6.115   3.674   7.505  0.3649  0.0274  1.1391
   68MOL    C7816292   6.234   3.754   7.549  0.1893 -0.0951 -0.1210
   68MOL    O7916293   6.228   3.809   7.660  0.0502  0.0440  0.1318
   68MOL    H8016294   6.255   3.523   7.438  0.5593 -2.0467  0.8544
   68MOL    H8116295   6.089   3.350   7.378  1.2942 -0.3498 -1.1250
   68MOL    H8216296   6.068   3.499   7.288 -0.2971  1.0991  1.1680
   68MOL    H8316297   5.959   3.452   7.431 -0.7645 -0.9370 -2.1514
   68MOL    H8416298   6.032   3.681   7.575  0.7102 -0.2321  1.5766
   68MOL    H8516299   6.076   3.708   7.409 -0.4111  1.8490  2.0681
   68MOL    O8616300   6.334   3.756   7.468 -0.2262 -0.0603  0.4848
   68MOL    C8716301   6.456   3.823   7.495 -0.5986 -0.5852  0.1504
   68MOL    C8816302   6.562   3.710   7.497 -0.1937 -0.1189  0.3818
   68MOL    C8916303   6.476   3.928   7.376  0.0932  0.2272 -0.4356
   68MOL    C9016304   6.407   4.064   7.404 -0.8224 -0.8247  0.1286
   68MOL    O9116305   6.473   4.167   7.396  0.4207  0.0698 -0.3489
   68MOL    H9216306   6.463   3.880   7.588  2.3509  1.1738 -1.0641
   68MOL    H9316307   6.547   3.665   7.399 -3.9692 -0.3514  0.9968
   68MOL    H9416308   6.532   3.633   7.568  1.2627 -1.5166 -0.5003
   68MOL    H9516309   6.663   3.738   7.525 -0.4132 -0.7162  1.8289
   68MOL    H9616310   6.429   3.891   7.285  1.3521  2.2494 -1.9524
   68MOL    H9716311   6.583   3.938   7.361  0.7376 -2.2895  2.0190
   68MOL    O9816312   6.280   4.049   7.435 -0.0754 -0.1061 -0.1157
   68MOL    C9916313   6.196   4.163   7.468 -0.1975 -0.4660  0.8011
   68MOL   C10016314   6.099   4.185   7.354  0.4878 -0.2399  0.2865
   68MOL   C10116315   6.134   4.141   7.605  0.0257  0.6655 -0.5581
   68MOL   C10216316   6.044   4.257   7.656  0.1759  0.2067 -1.0293
   68MOL   O10316317   5.925   4.242   7.681  0.1865  0.1931 -0.1975
   68MOL   H10416318   6.260   4.251   7.480 -0.6864  0.0224 -0.1921
   68MOL   H10516319   6.131   4.190   7.250  0.3826  0.0436  0.2657
   68MOL   H10616320   6.040   4.271   7.384  1.5627  1.2394 -1.6399
   68MOL   H10716321   6.025   4.105   7.362  1.7662 -1.5793 -1.0393
   68MOL   H10816322   6.213   4.128   7.678 -0.5090 -0.9045 -0.2376
   68MOL   H10916323   6.082   4.045   7.612 -0.5432  1.0394  0.4382
   68MOL   O11016324   6.120   4.369   7.668 -0.2181 -0.0110 -0.3338
   68MOL   C11116325   6.063   4.497   7.675  0.8922  0.1478 -0.2300
   68MOL   C11216326   6.171   4.583   7.735 -0.1229  0.4903  0.9189
   68MOL   C11316327   6.020   4.542   7.527  0.2004  0.0595  0.2283
   68MOL   C11416328   5.949   4.679   7.536 -0.0281 -0.0176 -0.3499
   68MOL   O11516329   5.832   4.674   7.573  0.5426  0.5105  0.0204
   68MOL   H11616330   5.976   4.505   7.740  0.5547 -1.4330 -0.4772
   68MOL   H11716331   6.241   4.613   7.657 -1.9659 -0.8584 -1.3274
   68MOL   H11816332   6.219   4.529   7.817  1.0673 -1.9108 -1.3031
   68MOL   H11916333   6.121   4.673   7.771 -1.2711  1.7456 -3.5233
   68MOL   H12016334   5.959   4.480   7.460 -1.5382  2.6477 -0.6642
   68MOL   H12116335   6.111   4.558   7.470  0.2524  1.2421  0.6221
   68MOL   O12216336   6.029   4.787   7.514  0.6322 -0.1708 -0.1440
   68MOL   C12316337   5.975   4.922   7.516 -0.2361  0.7170 -0.6035
   68MOL   C12416338   5.975   4.964   7.659 -0.4843  0.1863 -0.1790
   68MOL   C12516339   6.075   5.010   7.437 -0.3723  0.1593  0.1129
   68MOL   C12616340   6.038   5.016   7.288 -0.3899  0.1146 -0.3441
   68MOL   O12716341   6.112   4.967   7.204 -0.6334  0.4813 -0.3357
   68MOL   H12816342   5.879   4.924   7.464 -1.0269  0.4049  0.8337
   68MOL   H12916343   5.963   5.072   7.670  1.8757  0.4171  0.2678
   68MOL   H13016344   6.075   4.944   7.695  0.0628  1.9498 -0.6911
   68MOL   H13116345   5.900   4.924   7.727 -1.1166 -0.0315 -0.9956
   68MOL   H13216346   6.165   4.948   7.445 -0.2406  0.4660  1.1371
   68MOL   H13316347   6.110   5.106   7.475 -0.4203 -0.1509  0.9561
   68MOL   O13416348   5.922   5.083   7.270  0.1974  0.3280  0.6921
   68MOL   C13516349   5.863   5.090   7.139  0.6943 -0.7988  0.1929
   68MOL   C13616350   5.718   5.044   7.135 -0.2585 -0.2874  0.0925
   68MOL   C13716351   5.901   5.214   7.058  0.3069 -0.4670 -0.4348
   68MOL   C13816352   5.852   5.345   7.116 -0.0991 -0.1476 -0.1975
   68MOL   O13916353   5.841   5.363   7.239  0.5477  0.1688  0.4326
   68MOL   H14016354   5.914   5.009   7.088  2.2022 -0.6891  1.4621
   68MOL   H14116355   5.704   4.981   7.222  2.4673  1.0151  1.5476
   68MOL   H14216356   5.707   4.982   7.046 -0.2587  0.6797 -0.5901
   68MOL   H14316357   5.658   5.134   7.128  2.0869  1.3814  0.9558
   68MOL   H14416358   5.873   5.193   6.955  1.3615  0.4657 -0.9189
   68MOL   H14516359   6.010   5.216   7.054  0.3587  1.1051  0.9745
   68MOL   O14616360   5.809   5.431   7.022  0.1579 -0.0459  0.0577
   68MOL   C14716361   5.729   5.532   7.074 -0.3913  0.0486 -0.9114
   68MOL   C14816362   5.690   5.622   6.950  0.2016 -0.4583  0.3383
   68MOL   C14916363   5.594   5.476   7.134 -0.3113 -0.8791  0.5539
   68MOL   C15016364   5.494   5.405   7.035 -0.7697 -0.5100  0.4597
   68MOL   O15116365   5.508   5.288   7.013  0.0869  0.1857  0.6217
   68MOL   H15216366   5.781   5.595   7.146 -0.8135 -1.7415  0.9972
   68MOL   H15316367   5.617   5.695   6.984  0.6493  0.6083 -0.9473
   68MOL   H15416368   5.639   5.562   6.874  1.0085 -0.7937  0.0661
   68MOL   H15516369   5.767   5.675   6.894 -0.5782  1.0060  0.6468
   68MOL   H15616370   5.542   5.565   7.170  0.1820  0.2357 -1.3891
   68MOL   H15716371   5.614   5.419   7.225 -2.0662  2.4368  3.1494
   68MOL   O15816372   5.402   5.490   6.986  0.1228 -0.2587 -0.3635
   68MOL   C15916373   5.294   5.441   6.910 -1.1335 -0.3882 -0.9241
   68MOL   C16016374   5.174   5.515   6.952 -0.6102  0.3437  0.1673
   68MOL   C16116375   5.331   5.437   6.757 -0.2577  0.2518  0.5588
   68MOL   C16216376   5.255   5.338   6.676 -0.0634  0.1881 -0.0974
   68MOL   O16316377   5.318   5.278   6.589  0.3242 -0.8540  0.1959
   68MOL   H16416378   5.280   5.340   6.948  2.4879 -1.2374 -1.7236
   68MOL   H16516379   5.175   5.614   6.906  0.6709  0.5455  0.6280
   68MOL   H16616380   5.171   5.531   7.060 -0.0122  1.6436 -0.0039
   68MOL   H16716381   5.082   5.461   6.929 -0.5425  0.8195 -1.2748
   68MOL   H16816382   5.430   5.391   6.752 -0.0184  0.6845  1.0865
   68MOL   H16916383   5.325   5.537   6.714 -0.0826  1.1792  2.6240
   68MOL   O17016384   5.124   5.333   6.703  0.8181  0.0786 -0.1743
   68MOL   C17116385   5.040   5.229   6.650  0.0942 -0.0498  0.8724
   68MOL   C17216386   5.041   5.120   6.755  0.9344  0.2445 -0.3017
   68MOL   C17316387   4.899   5.287   6.625 -0.1805  0.6640 -0.2096
   68MOL   C17416388   4.900   5.391   6.509  0.1361 -0.6286 -0.5344
   68MOL   O17516389   4.818   5.486   6.515 -0.1293 -0.3161  0.1671
   68MOL   H17616390   5.082   5.189   6.557 -2.7658  0.2613 -0.6178
   68MOL   H17716391   5.000   5.153   6.851 -0.6018 -1.3896 -0.3574
   68MOL   H17816392   5.143   5.095   6.784  0.1266 -1.1899  1.4108
   68MOL   H17916393   5.000   5.024   6.724  0.0711  0.6015 -0.2861
   68MOL   H18016394   4.848   5.329   6.712 -0.5826 -0.4689  0.1081
   68MOL   H18116395   4.840   5.202   6.592  2.1967 -1.0110 -0.2469
   68MOL   O18216396   4.996   5.371   6.414  0.4882 -0.2818  0.0523
   68MOL   C18316397   5.026   5.477   6.315  0.0791 -0.2639 -0.1041
   68MOL   C18416398   5.180   5.501   6.331 -0.6749 -0.1355  0.3158
   68MOL   C18516399   4.980   5.429   6.186  0.0298  0.3056  0.3906
   68MOL   C18616400   4.974   5.547   6.089 -0.0335 -0.0287  0.4864
   68MOL   O18716401   5.060   5.560   6.001  0.5051  0.1700 -0.2464
   68MOL   H18816402   4.975   5.570   6.339 -1.0979 -1.0697  0.5828
   68MOL   H18916403   5.220   5.538   6.425  0.5560 -0.8550  0.0841
   68MOL   H19016404   5.209   5.567   6.248  2.3420  1.2710  2.3910
   68MOL   H19116405   5.244   5.414   6.319 -1.0166 -0.2236 -0.9545
   68MOL   H19216406   4.881   5.389   6.208  0.3827  0.2674  1.9757
   68MOL   H19316407   5.049   5.355   6.145 -1.5725 -1.5951  1.0691
   68MOL   O19416408   4.862   5.614   6.097  0.1940 -0.8730  0.2393
   68MOL   C19516409   4.827   5.721   6.006  0.1593  0.1226 -0.0480
   68MOL   C19616410   4.697   5.694   5.936 -0.5194 -0.3092  0.1397
   68MOL   C19716411   4.836   5.854   6.076  0.1526  0.2586 -0.2445
   68MOL   C19816412   4.983   5.889   6.107  0.0938 -0.2630 -0.6349
   68MOL   O19916413   5.038   5.858   6.213  0.1664  0.4973 -0.8384
   68MOL   H20016414   4.905   5.732   5.930  1.5945  0.9245  1.5152
   68MOL   H20116415   4.617   5.685   6.009 -0.1385  3.2213  1.0771
   68MOL   H20216416   4.700   5.611   5.867 -2.5699 -0.1565 -0.1682
   68MOL   H20316417   4.672   5.783   5.877  2.3473  1.3083  1.2686
   68MOL   H20416418   4.773   5.860   6.164  1.0551  0.4560  0.3964
   68MOL   H20516419   4.788   5.926   6.009 -2.0886 -1.2987 -0.3548
   68MOL   O20616420   5.044   5.952   6.006  0.3614 -0.6032  0.1650
   68MOL   C20716421   5.161   6.029   6.038 -0.1215 -0.2142  0.9333
   68MOL   C20816422   5.281   5.972   5.961 -0.3266  0.0163  0.3049
   68MOL   C20916423   5.140   6.177   6.004  0.0799 -0.1650 -0.3323
   68MOL   C21016424   5.046   6.238   6.100  0.2971 -0.0728  0.0010
   68MOL   O21116425   4.943   6.296   6.060  0.8816 -0.3281  0.8459
   68MOL   H21216426   5.185   6.026   6.144  0.4483 -0.3490  0.7982
   68MOL   H21316427   5.303   5.867   5.978  1.1011  0.2829  0.1813
   68MOL   H21416428   5.363   6.041   5.983 -0.9377  1.1499 -0.8839
   68MOL   H21516429   5.263   5.982   5.854  0.1137  1.2463  0.3280
   68MOL   H21616430   5.125   6.186   5.896 -0.2125  0.7499 -0.2142
   68MOL   H21716431   5.229   6.233   6.032 -0.2361 -0.4493  1.2881
   68MOL   O21816432   5.076   6.219   6.229 -0.0696 -0.0055  0.5648
   68MOL   C21916433   5.012   6.292   6.333  0.0921  0.1868  0.1523
   68MOL   C22016434   4.981   6.196   6.450 -0.0393  0.2190 -0.5278
   68MOL   C22116435   5.088   6.412   6.384 -0.4446 -0.2948 -0.2520
   68MOL   C22216436   5.058   6.539   6.306 -0.0046  1.1334 -0.8734
   68MOL   O22316437   4.970   6.618   6.348  0.6331 -0.1431 -0.1319
   68MOL   H22416438   4.914   6.325   6.296  0.9341  3.0017  0.3425
   68MOL   H22516439   5.059   6.179   6.524  0.8661  0.8955 -1.3139
   68MOL   H22616440   4.976   6.093   6.415  1.9906 -0.1741  0.2910
   68MOL   H22716441   4.896   6.233   6.508 -0.1327 -1.2378  0.2855
   68MOL   H22816442   5.195   6.397   6.397 -0.2747 -2.1968 -3.3165
   68MOL   H22916443   5.056   6.431   6.487 -1.8493  0.1863 -0.7621
   68MOL   O23016444   5.130   6.550   6.196  0.0817 -0.7156  0.5161
   68MOL   C23116445   5.101   6.653   6.095  0.4169  0.3429 -0.4616
   68MOL   C23216446   5.157   6.788   6.126 -0.4596 -0.2371 -0.2238
   68MOL   C23316447   5.146   6.591   5.964  0.2376 -0.1073  0.8411
   68MOL   C23416448   5.113   6.676   5.842 -0.4415 -0.2638 -0.2158
   68MOL   O23516449   5.195   6.765   5.796  0.4596 -0.2117 -0.2597
   68MOL   H23616450   4.992   6.659   6.099  0.4527  1.7295 -1.0907
   68MOL   H23716451   5.110   6.831   6.214 -2.9082 -0.8945 -1.1649
   68MOL   H23816452   5.133   6.863   6.051  0.2852  1.4330  1.1774
   68MOL   H23916453   5.265   6.788   6.137 -0.1911 -2.2182 -2.5564
   68MOL   H24016454   5.103   6.492   5.951 -0.5237  0.4986 -1.5388
   68MOL   H24116455   5.254   6.580   5.963  0.3716  0.9719 -1.9270
   68MOL   H24216456   5.016   6.659   5.796 -0.4878 -1.2321  0.2345
   69MOL     O116457   7.240   1.263   6.658  0.3220 -0.1334 -0.1210
   69MOL     C216458   7.330   1.361   6.689 -0.1432 -0.4517  0.0714
   69MOL     C316459   7.436   1.346   6.576  0.2296  0.1427  0.2376
   69MOL     C416460   7.263   1.499   6.692 -0.1349 -0.3596 -0.7715
   69MOL     C516461   7.354   1.622   6.690 -0.2062  0.2912 -0.0718
   69MOL     O616462   7.367   1.695   6.594 -0.4157  0.0692  0.5601
   69MOL     H716463   7.381   1.343   6.784  2.1815 -0.7768 -1.2033
   69MOL     H816464   7.485   1.252   6.599  1.4934  0.8706  0.5678
   69MOL     H916465   7.513   1.422   6.576 -1.9422  2.4530 -1.9693
   69MOL    H1016466   7.380   1.342   6.483  1.0395 -1.2632 -0.2085
   69MOL    H1116467   7.202   1.513   6.781  1.2752 -1.7940  0.4462
   69MOL    H1216468   7.198   1.499   6.604 -1.2438  1.2339  0.0191
   69MOL    H1316469   7.211   1.275   6.569 -0.6318 -0.8633  0.0773
   69MOL    O1416470   7.426   1.637   6.800 -0.5839 -0.0539 -0.4913
   69MOL    C1516471   7.508   1.753   6.821  0.7263  0.0068  0.0195
   69MOL    C1616472   7.509   1.794   6.966 -0.5035  0.7544  0.2769
   69MOL    C1716473   7.643   1.716   6.760 -0.2549  0.4300  0.5497
   69MOL    C1816474   7.718   1.595   6.831  0.0295  0.2890  0.1766
   69MOL    O1916475   7.691   1.477   6.795 -0.1689 -0.2022 -0.1419
   69MOL    H2016476   7.454   1.828   6.764 -1.2990 -0.6119  1.0846
   69MOL    H2116477   7.412   1.822   7.006 -1.1251  0.9729 -1.3636
   69MOL    H2216478   7.569   1.886   6.975 -2.2837  1.9868 -0.2273
   69MOL    H2316479   7.554   1.712   7.021 -0.2533 -0.1657 -1.2802
   69MOL    H2416480   7.708   1.804   6.765  3.9188 -2.3285 -2.1491
   69MOL    H2516481   7.628   1.697   6.654 -1.5381  0.7849  0.6567
   69MOL    O2616482   7.798   1.635   6.931 -0.3828  0.3475 -0.4131
   69MOL    C2716483   7.887   1.543   6.992 -0.2182  0.3760  0.3229
   69MOL    C2816484   0.045   1.561   6.922  0.3068  0.0120  0.1709
   69MOL    C2916485   7.889   1.580   7.140 -1.3127 -0.4406 -0.4775
   69MOL    C3016486   7.749   1.554   7.194 -0.2674  0.0334 -0.4880
   69MOL    O3116487   7.686   1.640   7.255 -0.3019  0.2692 -0.0382
   69MOL    H3216488   7.845   1.442   6.985  2.5576 -0.8466  0.5668
   69MOL    H3316489   0.122   1.508   6.979  0.9144  1.9067  1.1769
   69MOL    H3416490   0.068   1.668   6.929  1.3669 -0.3238  2.6612
   69MOL    H3516491   0.050   1.531   6.818 -0.4758 -1.4520  0.5478
   69MOL    H3616492   7.906   1.688   7.144 -0.0436 -0.6425 -0.2922
   69MOL    H3716493   7.968   1.520   7.183 -1.4125 -0.9456 -1.0057
   69MOL    O3816494   7.712   1.425   7.163  0.4582 -0.4583  0.1438
   69MOL    C3916495   7.583   1.376   7.204  0.3167 -0.6419 -0.3925
   69MOL    C4016496   7.504   1.374   7.076 -0.5223  0.7379  0.0633
   69MOL    C4116497   7.587   1.233   7.270  1.1060  0.1686 -0.4357
   69MOL    C4216498   7.663   1.244   7.400 -0.1552 -0.0769  0.1789
   69MOL    O4316499   7.781   1.206   7.410  0.2332 -0.1470  0.0501
   69MOL    H4416500   7.531   1.440   7.275  2.8340  0.7264  0.2757
   69MOL    H4516501   7.506   1.474   7.031 -1.9124  0.9032  0.3707
   69MOL    H4616502   7.401   1.343   7.089 -0.6339  0.5391 -1.2144
   69MOL    H4716503   7.551   1.307   7.004 -0.2548  0.5074  0.4504
   69MOL    H4816504   7.643   1.152   7.222 -1.0299 -2.9941  2.1553
   69MOL    H4916505   7.487   1.196   7.291  0.7929  1.7779  0.9925
   69MOL    O5016506   7.592   1.295   7.496 -0.2841 -1.0682 -0.3923
   69MOL    C5116507   7.644   1.319   7.630 -0.1623 -0.1465 -0.0638
   69MOL    C5216508   7.732   1.441   7.627  0.0244  0.5779  0.0511
   69MOL    C5316509   7.511   1.356   7.711  0.9741 -0.2795 -0.1897
   69MOL    C5416510   7.413   1.241   7.707 -0.1431 -0.6921 -0.0928
   69MOL    O5516511   7.439   1.134   7.757  0.5014  0.2054  0.5173
   69MOL    H5616512   7.700   1.239   7.678  0.8936  1.5934  1.6647
   69MOL    H5716513   7.818   1.434   7.559 -0.5957  0.9070 -0.7766
   69MOL    H5816514   7.762   1.446   7.731  0.4429  0.8688 -0.0798
   69MOL    H5916515   7.690   1.535   7.591 -0.5540  0.5574  0.6775
   69MOL    H6016516   7.466   1.441   7.661  0.6140 -0.1330  0.3771
   69MOL    H6116517   7.521   1.392   7.814 -1.1062 -2.0026  0.6308
   69MOL    O6216518   7.288   1.283   7.665 -0.1188  0.5667  0.3129
   69MOL    C6316519   7.178   1.199   7.648 -0.0248  0.0888  0.2359
   69MOL    C6416520   7.083   1.237   7.761 -0.4591  0.2931 -0.4053
   69MOL    C6516521   7.113   1.229   7.515 -0.6613 -0.3088  0.0482
   69MOL    C6616522   7.151   1.120   7.408  0.2736 -0.1068 -0.0179
   69MOL    O6716523   7.254   1.141   7.337  0.0910 -0.0932 -0.4308
   69MOL    H6816524   7.210   1.095   7.645  0.9459  0.4089 -0.5503
   69MOL    H6916525   7.115   1.187   7.853 -0.4663  1.0340  0.0081
   69MOL    H7016526   6.980   1.206   7.744 -0.3645  1.2975 -2.8942
   69MOL    H7116527   7.101   1.344   7.774  0.0659 -0.2473  4.4291
   69MOL    H7216528   7.158   1.322   7.480  1.2937 -0.4075  2.1516
   69MOL    H7316529   7.004   1.236   7.513 -0.6912  0.0418  1.8859
   69MOL    O7416530   7.069   1.016   7.410  0.1280 -0.1267  0.0052
   69MOL    C7516531   7.097   0.900   7.331 -0.7571 -0.1105  0.2571
   69MOL    C7616532   7.138   0.787   7.429  0.9116  0.4502  0.2738
   69MOL    C7716533   6.976   0.854   7.239  0.0100  0.1644 -0.5917
   69MOL    C7816534   6.966   0.956   7.123 -0.6052  0.2672  0.1514
   69MOL    O7916535   6.875   1.041   7.117 -0.3049 -0.0123 -0.1467
   69MOL    H8016536   7.175   0.936   7.263 -1.5127  3.2473  1.1062
   69MOL    H8116537   7.202   0.838   7.501  1.6568  2.7627 -1.9322
   69MOL    H8216538   7.194   0.710   7.376 -0.0850 -1.1361  1.4805
   69MOL    H8316539   7.052   0.749   7.485  1.9823  1.4305  2.6477
   69MOL    H8416540   6.881   0.857   7.292  0.7498 -1.4025  0.8509
   69MOL    H8516541   6.999   0.756   7.198 -1.2301  0.8102 -2.9364
   69MOL    O8616542   7.052   0.932   7.028  0.1438  0.6198 -0.3438
   69MOL    C8716543   7.072   1.025   6.916  0.0339 -0.2985  0.3602
   69MOL    C8816544   7.181   1.125   6.952 -0.1629  0.0416 -0.8141
   69MOL    C8916545   7.114   0.949   6.797  0.6367 -0.2840 -0.3892
   69MOL    C9016546   7.002   0.856   6.746 -0.1332 -0.4606  0.2460
   69MOL    O9116547   6.895   0.907   6.700  0.0212  0.2617  0.2810
   69MOL    H9216548   6.977   1.072   6.891 -0.0107 -0.0899  0.9105
   69MOL    H9316549   7.170   1.218   6.896 -0.6325 -0.5107 -1.6565
   69MOL    H9416550   7.278   1.078   6.934 -0.2925 -1.0970  1.3545
   69MOL    H9516551   7.172   1.157   7.056 -1.3714  0.5399 -1.0656
   69MOL    H9616552   7.203   0.893   6.822  0.7937  0.7409  1.3906
   69MOL    H9716553   7.137   1.016   6.714  0.5474  1.4629  0.9795
   69MOL    O9816554   7.039   0.728   6.764  0.3647  0.4164  0.4160
   69MOL    C9916555   6.946   0.620   6.741  0.0936 -0.2451 -0.0933
   69MOL   C10016556   7.032   0.496   6.697  0.0505  0.0775 -0.1782
   69MOL   C10116557   6.850   0.582   6.856 -0.1268 -0.0395  0.5877
   69MOL   C10216558   6.913   0.558   6.992  1.0267 -0.0929  0.1789
   69MOL   O10316559   7.028   0.587   7.026 -0.1601  0.5288 -0.1999
   69MOL   H10416560   6.887   0.643   6.652  0.6733 -0.8042 -0.6268
   69MOL   H10516561   7.080   0.512   6.600 -1.8627 -0.5020 -1.2463
   69MOL   H10616562   6.953   0.425   6.673 -1.4690  1.8599 -0.6342
   69MOL   H10716563   7.102   0.475   6.778  1.2616  1.1279 -0.9228
   69MOL   H10816564   6.804   0.487   6.830 -0.9295  0.2309  0.9816
   69MOL   H10916565   6.771   0.655   6.875 -2.1871 -1.6772 -1.4059
   69MOL   O11016566   6.837   0.486   7.062 -0.0931 -0.4289 -0.5451
   69MOL   C11116567   6.879   0.439   7.192 -1.2946  0.1664  0.8262
   69MOL   C11216568   6.794   0.516   7.292 -0.7870  0.2269  0.1919
   69MOL   C11316569   6.848   0.289   7.191  0.3193 -0.1789 -0.1960
   69MOL   C11416570   6.949   0.208   7.111 -0.6795  0.7563 -0.0323
   69MOL   O11516571   6.909   0.136   7.021  0.3455  0.2010  0.2884
   69MOL   H11616572   6.982   0.451   7.223 -1.3630  0.2459  1.0273
   69MOL   H11716573   6.776   0.469   7.389 -2.6870 -1.4557 -0.9622
   69MOL   H11816574   6.694   0.519   7.248 -0.4946 -0.5107 -0.5117
   69MOL   H11916575   6.822   0.621   7.306 -2.3786  0.5575  1.0898
   69MOL   H12016576   6.751   0.274   7.144  0.7532  0.4887 -1.3373
   69MOL   H12116577   6.845   0.243   7.289 -0.7427  0.9064  0.2808
   69MOL   O12216578   7.078   0.228   7.139  0.4468  0.0632  0.1440
   69MOL   C12316579   7.182   0.185   7.049 -0.3627 -1.3719 -0.1256
   69MOL   C12416580   7.182   0.259   6.912  0.1056 -0.4297 -0.1285
   69MOL   C12516581   7.324   0.184   7.118  0.1345  0.1977 -0.3881
   69MOL   C12616582   7.366   0.323   7.170 -0.3563 -0.6112  0.3850
   69MOL   O12716583   7.373   0.338   7.293 -0.1818 -0.3853  0.2934
   69MOL   H12816584   7.160   0.079   7.038 -0.1501 -1.3232 -1.0880
   69MOL   H12916585   7.084   0.240   6.868 -0.5391 -2.2941  2.0225
   69MOL   H13016586   7.253   0.236   6.833 -0.0948  1.9941 -1.0547
   69MOL   H13116587   7.200   0.364   6.936 -0.1867 -0.3125 -0.4186
   69MOL   H13216588   7.400   0.134   7.059  0.5412  1.1560 -0.6978
   69MOL   H13316589   7.307   0.122   7.206  1.8143  0.1274 -0.0858
   69MOL   O13416590   7.390   0.419   7.069 -0.2732  0.3391 -0.4414
   69MOL   C13516591   7.452   0.548   7.080  0.8824  0.7192  0.1658
   69MOL   C13616592   7.474   0.599   6.941  0.0991  0.4245  0.9508
   69MOL   C13716593   7.364   0.637   7.168 -0.4260  0.0699 -0.0586
   69MOL   C13816594   7.431   0.773   7.185 -0.3217  0.7220  0.5912
   69MOL   O13916595   7.397   0.869   7.118  0.2491  0.0961  0.3835
   69MOL   H14016596   7.548   0.527   7.127  1.8704 -0.1461 -2.1804
   69MOL   H14116597   7.542   0.526   6.898 -1.2641 -0.7886  0.8300
   69MOL   H14216598   7.533   0.690   6.935  1.4236 -0.4682  0.2861
   69MOL   H14316599   7.384   0.618   6.881  0.6149  0.8095  0.2897
   69MOL   H14416600   7.368   0.595   7.268 -0.9282 -1.2510 -0.5820
   69MOL   H14516601   7.260   0.646   7.134 -0.3652 -1.6367 -0.7168
   69MOL   O14616602   7.517   0.775   7.290 -0.3326  0.0704 -0.3272
   69MOL   C14716603   7.601   0.887   7.335 -0.5420 -0.4808 -0.2839
   69MOL   C14816604   7.550   0.910   7.479  0.0347  0.5288  0.0793
   69MOL   C14916605   7.751   0.852   7.316  0.8146 -0.4657 -0.3750
   69MOL   C15016606   7.785   0.873   7.174 -0.6088 -0.1316  0.4322
   69MOL   O15116607   7.707   0.917   7.087 -0.2476  0.2431 -0.4367
   69MOL   H15216608   7.572   0.978   7.283  2.4295  1.5913  1.5178
   69MOL   H15316609   7.585   0.832   7.547  0.2661 -2.8204 -3.7206
   69MOL   H15416610   7.442   0.913   7.485 -0.0928 -0.4872 -1.3377
   69MOL   H15516611   7.594   1.002   7.518 -1.6605  0.4307  2.2785
   69MOL   H15616612   7.785   0.753   7.347 -1.0315 -0.9186  0.3334
   69MOL   H15716613   7.802   0.932   7.370  0.2036 -0.4128  0.1454
   69MOL   O15816614   7.917   0.847   7.154 -0.3030  0.1915  0.2723
   69MOL   C15916615   7.974   0.862   7.030 -0.1320 -0.1309 -0.8152
   69MOL   C16016616   0.107   0.967   7.041 -0.1137 -0.3953  0.4414
   69MOL   C16116617   0.062   0.732   6.983 -0.3186 -0.2188 -0.2578
   69MOL   C16216618   7.951   0.615   6.946  0.0423 -0.1180  0.0968
   69MOL   O16316619   7.868   0.569   7.023  0.0517  0.1099 -0.3714
   69MOL   H16416620   7.905   0.899   6.954  1.4353  1.5978 -1.4330
   69MOL   H16516621   0.056   1.061   7.066 -0.1560 -0.9115  2.4178
   69MOL   H16616622   0.155   0.975   6.944 -4.2333  2.2221 -1.4954
   69MOL   H16716623   0.181   0.933   7.114  1.0502 -2.6746 -1.7439
   69MOL   H16816624   0.121   0.693   7.067 -0.7539 -0.1421  0.0857
   69MOL   H16916625   0.131   0.748   6.900  1.0427  1.8585  1.2211
   69MOL   O17016626   7.969   0.578   6.815 -0.2764  0.0779 -0.0868
   69MOL   C17116627   7.915   0.454   6.759 -0.4555 -0.5223 -0.3313
   69MOL   C17216628   7.854   0.488   6.623 -0.1956  0.2067  0.5839
   69MOL   C17316629   0.052   0.352   6.768 -0.8377  0.2941 -0.0612
   69MOL   C17416630   0.026   0.209   6.724 -0.1827  0.1916  0.0461
   69MOL   O17516631   7.941   0.135   6.797 -0.5276 -0.0068 -0.1390
   69MOL   H17616632   7.835   0.405   6.816 -0.2025 -0.3857  0.1462
   69MOL   H17716633   7.797   0.580   6.621 -1.9093 -0.8252 -3.7944
   69MOL   H17816634   7.784   0.410   6.593  1.2507 -1.0900  0.5045
   69MOL   H17916635   7.926   0.480   6.541 -0.7803  0.4601  0.0428
   69MOL   H18016636   0.095   0.356   6.868  2.4895 -0.1438 -1.4098
   69MOL   H18116637   0.135   0.383   6.705 -0.7337  2.1464  0.9639
   69MOL   O18216638   0.057   0.175   6.599  0.1542  0.1762  0.3005
   69MOL   C18316639   0.026   0.047   6.544 -0.3075 -0.0270  0.2836
   69MOL   C18416640   7.866   0.048   6.468 -0.0209 -0.7752 -0.0325
   69MOL   C18516641   0.139   7.975   6.457  0.0932 -0.6199 -0.2444
   69MOL   C18616642   0.254   7.932   6.543 -0.0461 -0.1056 -0.0420
   69MOL   O18716643   0.260   7.836   6.621 -0.3024 -0.5489  0.4017
   69MOL   H18816644   0.010   7.950   6.620 -1.9782 -0.5959 -0.6116
   69MOL   H18916645   7.883   0.132   6.401  1.0442 -1.2040 -0.3188
   69MOL   H19016646   7.777   0.049   6.531 -0.6140 -4.6944 -0.6506
   69MOL   H19116647   7.858   7.946   6.397  0.2718 -1.2517  0.4793
   69MOL   H19216648   0.190   0.066   6.391 -2.1053  0.4313 -0.8358
   69MOL   H19316649   0.118   7.893   6.388 -2.4504 -0.1146 -0.1006
   69MOL   O19416650   0.362   0.031   6.518  0.2929 -0.1533  0.0817
   69MOL   C19516651   0.481   0.019   6.587  0.2568  0.3121 -0.1551
   69MOL   C19616652   0.583   7.909   6.520  0.1303 -0.4124 -0.4994
   69MOL   C19716653   0.539   0.156   6.610  0.9916  0.1487 -0.0071
   69MOL   C19816654   0.453   0.233   6.714 -0.0003  0.0222  0.4591
   69MOL   O19916655   0.361   0.315   6.684  0.1548  0.4947 -0.8311
   69MOL   H20016656   0.467   7.947   6.682 -2.9348  1.2154 -0.0904
   69MOL   H20116657   0.666   7.878   6.583 -0.2752  0.0025  0.2452
   69MOL   H20216658   0.623   7.959   6.432  0.6674 -1.5122 -0.8868
   69MOL   H20316659   0.531   7.827   6.471 -1.7485  1.2257 -1.2986
   69MOL   H20416660   0.553   0.205   6.514  3.2008  0.8510  0.6247
   69MOL   H20516661   0.640   0.148   6.652  1.1815  0.1604 -0.4627
   69MOL   O20616662   0.473   0.187   6.837 -0.3420 -0.2140  0.4638
   69MOL   C20716663   0.399   0.237   6.946 -0.1246 -0.0694 -0.5203
   69MOL   C20816664   0.292   0.128   6.985 -0.4649 -0.0858 -0.0320
   69MOL   C20916665   0.509   0.260   7.052  0.1481 -0.1970  0.3548
   69MOL   C21016666   0.454   0.289   7.191 -0.0003 -0.0133  0.6690
   69MOL   O21116667   0.510   0.243   7.291 -0.2013 -0.2815 -0.6705
   69MOL   H21216668   0.361   0.338   6.929  0.7239  0.1854 -0.9040
   69MOL   H21316669   0.237   0.097   6.896 -2.4969  0.6131  0.9512
   69MOL   H21416670   0.223   0.178   7.053  0.2805 -0.6879  1.1753
   69MOL   H21516671   0.330   0.041   7.039  0.7832 -0.1992 -1.0899
   69MOL   H21616672   0.560   0.346   7.008  2.1278 -1.4085  0.2214
   69MOL   H21716673   0.579   0.177   7.042 -1.9613 -1.7922 -1.7752
   69MOL   O21816674   0.361   0.386   7.190  0.8377 -0.6193 -0.1889
   69MOL   C21916675   0.286   0.420   7.307 -0.1798 -0.4201 -0.0304
   69MOL   C22016676   0.341   0.553   7.352  0.3200 -0.5180  0.2661
   69MOL   C22116677   0.136   0.430   7.277 -0.2963 -0.4164 -0.5107
   69MOL   C22216678   0.056   0.300   7.293 -0.0399 -0.0625 -0.2495
   69MOL   O22316679   0.115   0.196   7.328  0.6565 -0.7592 -1.0145
   69MOL   H22416680   0.292   0.341   7.382 -0.4138  1.2343  1.7757
   69MOL   H22516681   0.443   0.547   7.390  0.7589 -2.9174 -1.1985
   69MOL   H22616682   0.280   0.598   7.430 -2.2064  0.6031 -2.2494
   69MOL   H22716683   0.357   0.623   7.270 -1.8768 -0.8785 -0.4852
   69MOL   H22816684   0.134   0.459   7.172 -0.6603 -0.2825 -0.4666
   69MOL   H22916685   0.091   0.516   7.326  1.1146  1.0411 -1.6947
   69MOL   O23016686   7.905   0.305   7.244 -0.2292 -0.2726  0.2950
   69MOL   C23116687   7.828   0.188   7.211  0.8097 -0.5609 -0.2689
   69MOL   C23216688   7.713   0.187   7.315 -0.1469 -0.0921  0.0940
   69MOL   C23316689   7.787   0.181   7.061  0.2440  0.1944  0.1700
   69MOL   C23416690   7.693   0.283   7.002 -0.0361 -0.2660  0.1517
   69MOL   O23516691   7.650   0.253   6.897 -0.0970 -0.3333  0.1439
   69MOL   H23616692   7.890   0.104   7.243  0.0813 -0.6195  0.9865
   69MOL   H23716693   7.653   0.278   7.309  0.3235  0.6382  4.2694
   69MOL   H23816694   7.749   0.184   7.418 -2.0527  0.0387  0.7925
   69MOL   H23916695   7.642   0.106   7.299 -1.3512  1.0526 -0.4349
   69MOL   H24016696   7.757   0.077   7.042  0.8065 -0.5237  2.9927
   69MOL   H24116697   7.883   0.186   7.010 -0.0278 -0.5256 -0.4405
   69MOL   H24216698   7.676   0.374   7.060  0.5931  0.4038 -0.7054
   70MOL     O116699   7.651   2.837   0.881  0.0853  0.0239  0.1707
   70MOL     C216700   7.550   2.929   0.850 -0.2607  0.7956 -0.3277
   70MOL     C316701   7.478   2.875   0.722 -0.6839  0.5596  0.8849
   70MOL     C416702   7.456   2.956   0.972  0.0092  0.5826  0.0903
   70MOL     C516703   7.334   3.057   0.944  0.6540  0.5629 -0.1392
   70MOL     O616704   7.213   3.034   0.980 -0.3267 -0.4544  0.1925
   70MOL     H716705   7.599   3.024   0.832 -0.7416  0.9911 -0.6119
   70MOL     H816706   7.392   2.930   0.684 -0.6126 -1.1617 -1.8940
   70MOL     H916707   7.446   2.772   0.736  0.2061  0.1473 -0.0255
   70MOL    H1016708   7.545   2.866   0.637 -2.4587 -0.0244 -0.4906
   70MOL    H1116709   7.503   3.001   1.059 -1.3809  0.6304  0.8342
   70MOL    H1216710   7.406   2.867   1.009  2.0837 -0.2850  0.8871
   70MOL    H1316711   7.710   2.886   0.937 -0.6670 -0.1991  1.1879
   70MOL    O1416712   7.371   3.164   0.870 -0.1252  0.7226 -0.0790
   70MOL    C1516713   7.273   3.242   0.794  0.1625  0.4248 -0.0617
   70MOL    C1616714   7.269   3.382   0.849 -0.2551  0.4310  0.1532
   70MOL    C1716715   7.293   3.219   0.638 -0.9980  0.4907  0.2131
   70MOL    C1816716   7.423   3.254   0.577  0.7159  0.6941 -0.9853
   70MOL    O1916717   7.504   3.337   0.621 -0.2281  0.1729  0.0786
   70MOL    H2016718   7.176   3.192   0.804 -0.5216  1.2867 -2.2711
   70MOL    H2116719   7.345   3.454   0.818 -0.6266  0.4226 -0.8139
   70MOL    H2216720   7.264   3.381   0.957  1.6997  0.4645  0.2598
   70MOL    H2316721   7.181   3.433   0.809  1.5216  1.0621 -3.2140
   70MOL    H2416722   7.233   3.284   0.574  1.8285  0.7507 -2.2874
   70MOL    H2516723   7.262   3.118   0.613 -0.1272  0.3659 -0.3845
   70MOL    O2616724   7.434   3.181   0.460  0.2957  0.1172 -0.5140
   70MOL    C2716725   7.544   3.210   0.372  0.8657 -0.0565 -0.0757
   70MOL    C2816726   7.607   3.078   0.337 -0.6369  0.4044  0.1314
   70MOL    C2916727   7.509   3.295   0.240  0.8068  0.7154  0.2850
   70MOL    C3016728   7.402   3.239   0.143 -0.2914  0.5815  1.0763
   70MOL    O3116729   7.284   3.268   0.156 -0.2915 -0.3016  0.1556
   70MOL    H3216730   7.624   3.270   0.414 -0.8599  1.0356  1.7752
   70MOL    H3316731   7.537   2.995   0.338 -0.3178  0.1435  1.3772
   70MOL    H3416732   7.695   3.072   0.401  0.6863  0.9273 -1.5953
   70MOL    H3516733   7.658   3.081   0.240 -0.6912 -2.0094  0.0168
   70MOL    H3616734   7.595   3.335   0.187  1.3281 -1.9165 -0.9496
   70MOL    H3716735   7.458   3.384   0.276 -2.4196 -1.0207  0.1698
   70MOL    O3816736   7.459   3.153   0.051  0.5908 -0.2783 -0.3114
   70MOL    C3916737   7.383   3.092   7.926  1.1116  0.5757 -0.3086
   70MOL    C4016738   7.363   3.207   7.817  0.5282 -0.1929 -0.4768
   70MOL    C4116739   7.437   2.948   7.878  0.3596 -1.0384 -0.4225
   70MOL    C4216740   7.561   2.973   7.793 -0.0368  0.1102  0.2698
   70MOL    O4316741   7.557   2.975   7.666  0.1334 -0.6005 -0.3403
   70MOL    H4416742   7.281   3.095   7.964  1.5049  1.9814  0.6767
   70MOL    H4516743   7.460   3.244   7.783  0.4255  0.5751  0.0650
   70MOL    H4616744   7.314   3.292   7.864  1.6313  0.2083 -0.0357
   70MOL    H4716745   7.313   3.180   7.724  0.9073 -0.0147 -0.7344
   70MOL    H4816746   7.357   2.895   7.827 -0.3240 -1.1042  0.6860
   70MOL    H4916747   7.472   2.893   7.966 -0.9505 -0.5825  0.4079
   70MOL    O5016748   7.676   2.989   7.872  0.2778 -0.4594  0.4186
   70MOL    C5116749   7.795   3.037   7.815  0.1940  0.1845 -0.5679
   70MOL    C5216750   7.839   3.171   7.883  0.5053 -0.7267 -0.2963
   70MOL    C5316751   7.896   2.923   7.809 -0.8973  0.3719  0.6578
   70MOL    C5416752   0.053   2.955   7.748  0.1201 -0.0965  0.7335
   70MOL    O5516753   0.163   2.934   7.804 -0.5407  0.4969 -0.3704
   70MOL    H5616754   7.769   3.076   7.717  0.4669  0.6531 -0.4555
   70MOL    H5716755   7.912   3.226   7.823 -2.5188  3.5313 -0.3329
   70MOL    H5816756   7.894   3.159   7.976  0.9862 -2.1833 -0.7521
   70MOL    H5916757   7.757   3.243   7.893  1.5310  0.5156 -0.6097
   70MOL    H6016758   7.849   2.846   7.748  1.8551 -2.6654  2.1717
   70MOL    H6116759   7.908   2.872   7.905 -1.0501  0.1101  0.5385
   70MOL    O6216760   0.039   3.004   7.626  0.1125 -0.1134  0.2626
   70MOL    C6316761   0.163   3.028   7.548 -0.1248  0.0105  0.1281
   70MOL    C6416762   0.126   2.978   7.407 -0.1593  0.6042  0.1654
   70MOL    C6516763   0.208   3.184   7.555  0.5064  0.3132 -0.8498
   70MOL    C6616764   0.353   3.207   7.515 -0.0619  0.0722 -0.2133
   70MOL    O6716765   0.435   3.221   7.602 -0.5532 -0.1477  0.7445
   70MOL    H6816766   0.243   2.966   7.588 -1.5119 -1.6203  0.3998
   70MOL    H6916767   0.023   3.002   7.380 -0.6154 -1.2055  0.2147
   70MOL    H7016768   0.124   2.869   7.410  0.9013  0.5393 -1.0618
   70MOL    H7116769   0.187   3.018   7.326 -0.9977 -1.6442 -1.6435
   70MOL    H7216770   0.193   3.213   7.659 -0.0512  0.2164 -0.8986
   70MOL    H7316771   0.152   3.246   7.485  0.0133  1.9777  0.9720
   70MOL    O7416772   0.371   3.210   7.383 -0.4763  0.3635 -0.1284
   70MOL    C7516773   0.502   3.216   7.339 -0.5275 -0.2210 -0.4568
   70MOL    C7616774   0.557   3.073   7.305  0.7794 -0.2905 -0.2674
   70MOL    C7716775   0.497   3.306   7.216  0.5534  0.3706  0.6140
   70MOL    C7816776   0.634   3.355   7.169 -0.4255  0.7469 -0.7673
   70MOL    O7916777   0.738   3.340   7.237 -0.3064  0.1854 -0.2222
   70MOL    H8016778   0.570   3.263   7.410 -1.5098 -1.5222  1.3990
   70MOL    H8116779   0.549   3.006   7.390  0.7087 -0.0251 -0.0627
   70MOL    H8216780   0.662   3.073   7.274  0.7601 -2.2473 -0.3909
   70MOL    H8316781   0.497   3.032   7.224  1.0430  1.2878 -1.2822
   70MOL    H8416782   0.438   3.392   7.245 -0.0474  0.5332 -1.0621
   70MOL    H8516783   0.442   3.263   7.133 -0.4627  2.6298  0.0827
   70MOL    O8616784   0.628   3.416   7.055  0.2166 -0.7692 -0.2435
   70MOL    C8716785   0.741   3.455   6.985 -1.2743  0.0096  0.0630
   70MOL    C8816786   0.817   3.336   6.916 -0.7886  0.2104 -0.0378
   70MOL    C8916787   0.710   3.577   6.901 -0.4946 -0.3248  0.2400
   70MOL    C9016788   0.621   3.543   6.780 -0.7636  0.9476  0.0203
   70MOL    O9116789   0.570   3.433   6.768 -0.2398 -0.3608 -0.2987
   70MOL    H9216790   0.815   3.490   7.057  0.3257  0.7439 -1.8903
   70MOL    H9316791   0.920   3.357   6.886 -1.7966  2.1078 -2.3582
   70MOL    H9416792   0.780   3.312   6.816  2.6811  0.0052 -1.3598
   70MOL    H9516793   0.820   3.251   6.983  0.3787  1.2879  1.3117
   70MOL    H9616794   0.804   3.616   6.862  1.3868 -1.1246  3.7794
   70MOL    H9716795   0.652   3.651   6.956 -0.0889 -0.3617  0.7134
   70MOL    O9816796   0.606   3.647   6.696  0.0255  0.6133 -0.6734
   70MOL    C9916797   0.517   3.640   6.594 -0.5629 -0.0586  0.3194
   70MOL   C10016798   0.389   3.699   6.658 -0.1839 -0.0816  0.4499
   70MOL   C10116799   0.579   3.717   6.475  0.0789 -0.0606  0.3739
   70MOL   C10216800   0.682   3.635   6.408 -0.3393  0.2906  0.4948
   70MOL   O10316801   0.661   3.569   6.311 -0.0493  0.3575 -0.1045
   70MOL   H10416802   0.496   3.536   6.568  0.2769 -1.2585  4.1582
   70MOL   H10516803   0.363   3.623   6.732  1.9550 -1.0529  0.2326
   70MOL   H10616804   0.306   3.703   6.588 -1.4653  1.9252  2.0019
   70MOL   H10716805   0.404   3.800   6.695 -1.8882  0.3002  0.1410
   70MOL   H10816806   0.625   3.811   6.504 -3.4098  2.6786 -2.5483
   70MOL   H10916807   0.510   3.744   6.394 -1.1271 -2.2174  0.6355
   70MOL   O11016808   0.804   3.646   6.463 -0.5138 -0.0317  0.3288
   70MOL   C11116809   0.912   3.567   6.419 -0.5742 -0.3372  0.2682
   70MOL   C11216810   1.027   3.664   6.372 -0.3511 -0.3741 -0.2290
   70MOL   C11316811   0.965   3.482   6.539 -0.0546 -0.3886  0.2975
   70MOL   C11416812   1.051   3.361   6.501  0.5947  0.0444  0.0708
   70MOL   O11516813   1.166   3.361   6.549 -0.1111 -0.0967 -0.2508
   70MOL   H11616814   0.892   3.497   6.338 -1.0140  0.2799 -0.1595
   70MOL   H11716815   0.984   3.732   6.298 -1.7428 -1.4828 -0.4638
   70MOL   H11816816   1.114   3.628   6.317  1.3077 -0.1034  2.1659
   70MOL   H11916817   1.059   3.726   6.455  0.6490  0.5032 -1.2511
   70MOL   H12016818   0.888   3.433   6.598 -0.5124  0.4351  0.3910
   70MOL   H12116819   1.016   3.553   6.605 -0.8018  1.3107 -0.9193
   70MOL   O12216820   0.989   3.266   6.421 -0.1851 -0.0040 -0.2162
   70MOL   C12316821   1.060   3.153   6.375  0.3071 -0.3800  0.5236
   70MOL   C12416822   1.065   3.042   6.478 -0.1034  1.1516  0.4130
   70MOL   C12516823   0.974   3.095   6.255  0.0365  0.1289 -1.2589
   70MOL   C12616824   1.012   3.137   6.114 -0.6559 -0.6303 -0.4599
   70MOL   O12716825   0.999   3.064   6.018  0.7077  0.3127  0.1746
   70MOL   H12816826   1.166   3.159   6.349  0.5209 -2.0730  0.9448
   70MOL   H12916827   0.969   3.003   6.512 -0.0638 -0.6959 -1.4857
   70MOL   H13016828   1.116   3.086   6.564  1.6163 -1.5857  0.8346
   70MOL   H13116829   1.128   2.958   6.451  1.0646  1.5981  1.6797
   70MOL   H13216830   0.877   3.142   6.275 -0.5475 -2.0614  1.4777
   70MOL   H13316831   0.967   2.986   6.258  0.3808  0.1316 -0.0201
   70MOL   O13416832   1.067   3.269   6.106  0.0779 -0.4501  0.4138
   70MOL   C13516833   1.107   3.314   5.986  0.4554 -0.1815 -0.2689
   70MOL   C13616834   1.089   3.470   5.993 -0.8500 -0.5574  0.5137
   70MOL   C13716835   1.250   3.264   5.951  0.3655  0.5166  0.6199
   70MOL   C13816836   1.359   3.284   6.053  0.0359  0.6855 -0.0750
   70MOL   O13916837   1.378   3.202   6.146 -0.1608 -0.4844  0.0118
   70MOL   H14016838   1.041   3.302   5.901 -2.4074  1.6257  1.6099
   70MOL   H14116839   1.170   3.513   6.053  0.2261 -0.7036 -0.8063
   70MOL   H14216840   0.991   3.513   6.010  0.1243  1.6849  0.6194
   70MOL   H14316841   1.106   3.494   5.888 -2.5695 -1.8345 -0.0741
   70MOL   H14416842   1.284   3.305   5.856  0.5626 -0.4117  0.2783
   70MOL   H14516843   1.245   3.158   5.927 -0.9132  0.1818  2.3099
   70MOL   O14616844   1.416   3.406   6.041  0.2792  0.2410 -0.0349
   70MOL   C14716845   1.489   3.470   6.148 -0.1099  1.0052 -0.3291
   70MOL   C14816846   1.592   3.554   6.074  0.1005  0.2439  0.3217
   70MOL   C14916847   1.397   3.551   6.243  0.2775  0.1334 -0.2449
   70MOL   C15016848   1.453   3.581   6.380  0.0302 -0.1378  0.9064
   70MOL   O15116849   1.565   3.544   6.419  0.1756  1.0162 -0.7281
   70MOL   H15216850   1.539   3.396   6.211  3.0445  1.2739 -2.4589
   70MOL   H15316851   1.547   3.605   5.990 -1.8611 -1.4463  0.2978
   70MOL   H15416852   1.678   3.491   6.049  0.7429  0.9460  0.7545
   70MOL   H15516853   1.625   3.624   6.151 -0.6993  1.0082 -0.0237
   70MOL   H15616854   1.308   3.490   6.260 -0.5158  0.6710 -2.2727
   70MOL   H15716855   1.346   3.635   6.196 -0.1848 -0.0274 -0.0373
   70MOL   O15816856   1.371   3.668   6.446  0.4116 -0.1698  0.0702
   70MOL   C15916857   1.386   3.704   6.586 -0.1650  0.1084  0.5251
   70MOL   C16016858   1.301   3.835   6.595 -0.5994  0.0176 -0.3459
   70MOL   C16116859   1.328   3.592   6.668 -0.2164  0.3098  0.3837
   70MOL   C16216860   1.334   3.621   6.818 -0.4111 -0.1709 -0.2473
   70MOL   O16316861   1.441   3.609   6.878  0.0572  0.1342 -0.3058
   70MOL   H16416862   1.493   3.722   6.602 -0.0487 -0.8890  0.8996
   70MOL   H16516863   1.348   3.923   6.552 -0.3446 -0.5871 -1.3179
   70MOL   H16616864   1.282   3.877   6.693  0.2017  1.7884 -0.9303
   70MOL   H16716865   1.210   3.833   6.535 -0.0190  1.0257 -1.2788
   70MOL   H16816866   1.381   3.500   6.645 -2.0376 -0.9483  1.1126
   70MOL   H16916867   1.221   3.580   6.649  0.0447 -1.3306 -0.0878
   70MOL   O17016868   1.214   3.654   6.870  0.1802  0.0037  0.0997
   70MOL   C17116869   1.211   3.694   7.009  0.7521 -0.2328  0.2552
   70MOL   C17216870   1.157   3.840   7.012 -0.6506  1.0047  0.6554
   70MOL   C17316871   1.121   3.604   7.082 -0.2310  0.3172 -0.2841
   70MOL   C17416872   1.180   3.468   7.108 -0.2486  0.4303  0.2177
   70MOL   O17516873   1.127   3.361   7.084  0.4609  0.2251  0.6261
   70MOL   H17616874   1.308   3.702   7.058  0.6557 -2.5326  0.8760
   70MOL   H17716875   1.053   3.831   6.978 -0.2491 -0.6487 -0.2284
   70MOL   H17816876   1.207   3.896   6.933  1.5244  1.2487  2.1663
   70MOL   H17916877   1.168   3.882   7.112  0.2493 -1.0308  1.4333
   70MOL   H18016878   1.022   3.589   7.040 -0.0645 -1.7807 -0.0016
   70MOL   H18116879   1.107   3.635   7.186 -0.4230 -1.9549  0.3882
   70MOL   O18216880   1.287   3.473   7.191  0.3586  0.0999 -0.0729
   70MOL   C18316881   1.332   3.358   7.255 -0.3604  0.7170  0.3896
   70MOL   C18416882   1.487   3.362   7.239 -0.2282 -0.7438  0.3349
   70MOL   C18516883   1.283   3.372   7.397  0.2999 -0.1240 -0.3044
   70MOL   C18616884   1.309   3.268   7.502  0.3823 -0.3954  0.3382
   70MOL   O18716885   1.299   3.151   7.483  0.0086  0.4241 -0.7687
   70MOL   H18816886   1.300   3.263   7.213 -0.2448  1.3028 -1.0583
   70MOL   H18916887   1.509   3.375   7.133 -1.7290 -0.6028  0.0294
   70MOL   H19016888   1.522   3.272   7.290  0.1167  0.4484  2.2660
   70MOL   H19116889   1.515   3.457   7.286 -0.4629  0.2915 -1.5649
   70MOL   H19216890   1.175   3.367   7.388  0.0196  3.5145  0.1271
   70MOL   H19316891   1.302   3.472   7.435  0.5434  0.4290 -1.8554
   70MOL   O19416892   1.358   3.326   7.613 -0.0431 -0.0901  0.3419
   70MOL   C19516893   1.428   3.253   7.713 -0.3362  0.4174  0.3800
   70MOL   C19616894   1.572   3.261   7.679  0.0491  0.2112 -0.4091
   70MOL   C19716895   1.383   3.318   7.851  0.1940  0.1606 -0.3710
   70MOL   C19816896   1.235   3.282   7.898 -0.1499 -0.0326  0.2186
   70MOL   O19916897   1.174   3.193   7.842  0.4493 -0.6996 -0.1119
   70MOL   H20016898   1.387   3.153   7.706 -0.6072  0.4693  1.1470
   70MOL   H20116899   1.594   3.213   7.583 -1.0837  0.4861 -0.8167
   70MOL   H20216900   1.638   3.211   7.750 -0.2762  1.7197  0.9773
   70MOL   H20316901   1.608   3.362   7.661 -0.2989  0.4448  0.2008
   70MOL   H20416902   1.394   3.426   7.843  2.6133  0.0774  1.3662
   70MOL   H20516903   1.456   3.284   7.924  0.6614  2.6799  0.3536
   70MOL   O20616904   1.191   3.359   0.023  0.3920  0.2310 -0.0751
   70MOL   C20716905   1.068   3.316   0.081  0.0272  0.3423  0.0796
   70MOL   C20816906   1.074   3.388   0.220  0.0193 -0.8692  0.1639
   70MOL   C20916907   0.950   3.367   7.979  0.4316  0.0300  0.0254
   70MOL   C21016908   0.816   3.308   0.054  0.0036  0.0977 -0.2683
   70MOL   O21116909   0.750   3.379   0.129  0.9983 -0.6190  0.7930
   70MOL   H21216910   1.068   3.208   0.100 -3.1109  0.0870 -1.2302
   70MOL   H21316911   1.159   3.366   0.284  1.8123 -0.7601 -2.1235
   70MOL   H21416912   0.988   3.359   0.279  2.3319 -1.8816  3.1290
   70MOL   H21516913   1.059   3.496   0.227  0.5060 -0.7545 -0.4685
   70MOL   H21616914   0.963   3.335   7.876  0.9039 -0.7367  0.3144
   70MOL   H21716915   0.928   3.473   0.008 -2.2325 -0.4548 -0.5152
   70MOL   O21816916   0.786   3.183   0.010 -0.1445 -0.0927 -0.5150
   70MOL   C21916917   0.666   3.115   0.057  0.6825 -0.0357 -0.6378
   70MOL   C22016918   0.588   3.067   7.911 -0.1784  0.1640 -0.2404
   70MOL   C22116919   0.697   3.015   0.178  0.8148 -0.0492 -0.2656
   70MOL   C22216920   0.806   2.917   0.163  0.6132 -0.0344  0.6518
   70MOL   O22316921   0.908   2.930   0.098  0.1963 -0.5511 -0.1416
   70MOL   H22416922   0.603   3.188   0.108  2.6262  0.0460  1.7429
   70MOL   H22516923   0.629   2.966   7.902  0.2718  0.3370 -0.1702
   70MOL   H22616924   0.610   3.136   7.829 -2.4612 -0.1929 -1.1797
   70MOL   H22716925   0.480   3.063   7.920 -0.2221  0.2191 -0.7177
   70MOL   H22816926   0.606   2.968   0.215  0.9472 -0.5489 -0.5721
   70MOL   H22916927   0.723   3.080   0.262 -1.6549  0.9867 -0.2221
   70MOL   O23016928   0.773   2.805   0.229 -0.2103  0.8609 -0.2436
   70MOL   C23116929   0.864   2.695   0.229  0.0967  1.2117 -1.0601
   70MOL   C23216930   0.851   2.621   0.358  0.6260 -0.4268 -0.4435
   70MOL   C23316931   0.845   2.605   0.104  0.0664  0.4785 -0.2959
   70MOL   C23416932   0.928   2.481   0.097 -0.4836  0.4932 -0.9167
   70MOL   O23516933   1.047   2.476   0.137  0.4811 -0.1224 -0.0665
   70MOL   H23616934   0.969   2.724   0.235  0.0455  0.9361  2.9155
   70MOL   H23716935   0.844   2.695   0.438 -0.0455 -0.2757 -0.6437
   70MOL   H23816936   0.932   2.552   0.381  1.3560  0.6651  0.3144
   70MOL   H23916937   0.758   2.564   0.358  1.4676 -1.8293 -1.5736
   70MOL   H24016938   0.867   2.661   0.013  1.0714 -0.9561 -0.9570
   70MOL   H24116939   0.739   2.581   0.097  0.0046  0.9548 -1.1358
   70MOL   H24216940   0.889   2.392   0.047  1.2545 -1.6241  1.3758
   71MOL     O116941   2.933   0.927   2.281 -0.7499  0.1275 -0.5718
   71MOL     C216942   2.931   0.909   2.140 -0.4098  0.4169 -0.2296
   71MOL     C316943   3.012   0.788   2.107  0.0315  0.2443 -0.4810
   71MOL     C416944   2.782   0.880   2.106 -0.4576  0.2001 -0.6107
   71MOL     C516945   2.690   1.004   2.104  0.2597  0.5169 -0.3135
   71MOL     O616946   2.727   1.118   2.131 -0.7927  0.2695  0.0165
   71MOL     H716947   2.968   0.995   2.083  1.0210  0.6058  0.9427
   71MOL     H816948   2.964   0.698   2.145 -0.9110  0.9268 -0.0591
   71MOL     H916949   3.108   0.788   2.158 -1.6422 -1.5415  2.7946
   71MOL    H1016950   3.030   0.787   1.999  1.6556  2.0148 -0.2530
   71MOL    H1116951   2.745   0.811   2.182 -1.0354  1.4710  0.2782
   71MOL    H1216952   2.785   0.831   2.009 -0.2709  0.5757 -0.7972
   71MOL    H1316953   3.023   0.941   2.305 -1.2439  0.0296  1.4860
   71MOL    O1416954   2.564   0.977   2.071 -0.4866  0.0546 -0.0216
   71MOL    C1516955   2.468   1.089   2.085  0.3358 -0.9363 -0.1471
   71MOL    C1616956   2.478   1.207   1.987  0.6801 -0.2540  0.4268
   71MOL    C1716957   2.323   1.033   2.083 -0.4615 -0.4245  1.4017
   71MOL    C1816958   2.285   0.979   1.946 -0.6367  0.7129 -0.4577
   71MOL    O1916959   2.201   1.035   1.878 -1.0610  0.2571 -0.4434
   71MOL    H2016960   2.483   1.128   2.185  0.6702  0.6659 -0.8033
   71MOL    H2116961   2.474   1.176   1.883 -0.7104 -0.4452  0.5210
   71MOL    H2216962   2.574   1.256   2.002  0.5008 -0.3364  1.9441
   71MOL    H2316963   2.411   1.292   2.000 -1.0088 -1.1066 -2.4310
   71MOL    H2416964   2.252   1.113   2.105 -1.4769 -1.0409  0.4175
   71MOL    H2516965   2.314   0.951   2.155  1.0592 -1.8109  0.0424
   71MOL    O2616966   2.334   0.855   1.909  0.3843 -1.0758 -0.0505
   71MOL    C2716967   2.351   0.824   1.764 -0.3090  0.4079 -0.0328
   71MOL    C2816968   2.481   0.892   1.716 -0.1554  0.8223  0.3762
   71MOL    C2916969   2.357   0.667   1.745 -0.2705 -0.0675  0.2052
   71MOL    C3016970   2.221   0.610   1.707  0.6851 -0.4027 -0.8456
   71MOL    O3116971   2.146   0.537   1.775 -0.2325  0.6173 -0.0127
   71MOL    H3216972   2.268   0.864   1.706 -0.6228  1.5231  1.1477
   71MOL    H3316973   2.485   0.884   1.608 -0.4938 -1.7512  0.5323
   71MOL    H3416974   2.576   0.855   1.753  0.5399  0.7072 -1.5067
   71MOL    H3516975   2.479   0.999   1.740 -2.9440  0.9330 -0.1859
   71MOL    H3616976   2.394   0.613   1.832  2.4771  1.0677 -0.1877
   71MOL    H3716977   2.423   0.638   1.663  0.4264 -1.6339  1.2943
   71MOL    O3816978   2.187   0.655   1.594  0.1810 -0.6210 -0.1638
   71MOL    C3916979   2.049   0.664   1.547 -0.4005  0.1295 -0.1223
   71MOL    C4016980   2.037   0.821   1.526 -0.1554 -0.3695  0.2970
   71MOL    C4116981   2.022   0.587   1.416  0.6382  0.1353 -0.0632
   71MOL    C4216982   1.993   0.439   1.424  0.5085 -0.4187 -0.4296
   71MOL    O4316983   1.877   0.404   1.440 -0.1147 -0.0445  0.5013
   71MOL    H4416984   1.983   0.623   1.623 -1.8254  2.5727  0.0229
   71MOL    H4516985   1.939   0.835   1.479  0.4895  0.2152 -0.9105
   71MOL    H4616986   2.101   0.864   1.449 -1.2979  0.8862  0.0189
   71MOL    H4716987   2.049   0.890   1.609  1.2018  1.0508 -1.0381
   71MOL    H4816988   2.088   0.621   1.337  2.3581  0.1306  1.3528
   71MOL    H4916989   1.926   0.635   1.394  0.7648 -0.8276 -2.9172
   71MOL    O5016990   2.101   0.356   1.412 -0.3167  0.4176 -0.5727
   71MOL    C5116991   2.077   0.223   1.398  0.2803 -0.3111  0.0706
   71MOL    C5216992   2.122   0.190   1.253  0.0378 -0.5639 -0.7925
   71MOL    C5316993   2.163   0.160   1.509 -0.4592 -0.0637  0.2121
   71MOL    C5416994   2.130   0.016   1.528 -0.3396 -0.5182 -0.1034
   71MOL    O5516995   2.037   7.944   1.471 -0.1542 -0.7285  0.6327
   71MOL    H5616996   1.972   0.196   1.413  0.5805 -1.0316  0.9198
   71MOL    H5716997   2.136   0.083   1.239 -1.4234 -0.6680 -1.5706
   71MOL    H5816998   2.220   0.236   1.236  0.0208 -0.8611 -1.7324
   71MOL    H5916999   2.060   0.222   1.170  0.0576  0.4575 -0.4159
   71MOL    H6017000   2.156   0.225   1.597  0.4321  0.9731 -0.4796
   71MOL    H6117001   2.269   0.169   1.487 -0.3653  1.0220  1.0538
   71MOL    O6217002   2.220   7.929   1.612  0.1854  0.1280 -0.0790
   71MOL    C6317003   2.192   7.796   1.668 -0.0243  0.0904 -0.4636
   71MOL    C6417004   2.287   7.688   1.613 -0.3098 -0.3125  0.7429
   71MOL    C6517005   2.179   7.801   1.813  0.5409  0.4118  0.1841
   71MOL    C6617006   2.308   7.790   1.893  0.1941  0.3610 -0.5080
   71MOL    O6717007   2.375   7.886   1.928 -0.4318  0.0794 -0.1436
   71MOL    H6817008   2.093   7.771   1.630  0.0583 -0.3923 -0.3621
   71MOL    H6917009   2.393   7.712   1.624  0.2994 -1.0094 -2.8582
   71MOL    H7017010   2.274   7.686   1.505  2.3381  2.7760  0.2706
   71MOL    H7117011   2.277   7.587   1.653  2.1060 -0.9482 -0.1690
   71MOL    H7217012   2.117   7.721   1.853 -0.0032  0.9410  0.4095
   71MOL    H7317013   2.143   7.900   1.844  3.0715  1.0920  1.1195
   71MOL    O7417014   2.335   7.661   1.924  0.4660 -0.4575  0.0741
   71MOL    C7517015   2.460   7.629   1.990  0.2216  0.1952  0.4242
   71MOL    C7617016   2.435   7.529   2.105  0.9444  0.8987 -0.0062
   71MOL    C7717017   2.566   7.581   1.887 -0.4550 -0.1354  0.7704
   71MOL    C7817018   2.710   7.586   1.932  0.0248  0.0684 -0.1506
   71MOL    O7917019   2.778   7.689   1.939  0.4695 -0.2866  0.5345
   71MOL    H8017020   2.512   7.716   2.028  1.3603 -0.8329  1.2203
   71MOL    H8117021   2.392   7.590   2.184 -0.7635  1.3622 -1.2775
   71MOL    H8217022   2.527   7.477   2.134 -1.3027 -1.8770  2.4862
   71MOL    H8317023   2.362   7.454   2.076 -0.5335  1.5630  1.9105
   71MOL    H8417024   2.568   7.644   1.797  0.6257  0.6476  1.3411
   71MOL    H8517025   2.541   7.479   1.856 -3.1565  0.4983  0.6712
   71MOL    O8617026   2.744   7.472   1.994 -0.2604 -0.0035  0.4146
   71MOL    C8717027   2.874   7.459   2.048 -0.5325  0.4585  0.5867
   71MOL    C8817028   2.872   7.517   2.190  0.0208  0.8296 -0.1255
   71MOL    C8917029   2.918   7.312   2.045 -0.1238 -0.2066 -1.0314
   71MOL    C9017030   2.962   7.273   1.904 -0.3955  0.1837 -0.6657
   71MOL    O9117031   2.898   7.185   1.842  0.6242  0.3862  0.6415
   71MOL    H9217032   2.949   7.515   1.993 -0.6379  0.6011  0.5853
   71MOL    H9317033   2.795   7.466   2.247  1.7964 -2.4024 -0.4922
   71MOL    H9417034   2.870   7.626   2.189 -0.6259  0.8342 -2.6271
   71MOL    H9517035   2.963   7.485   2.241 -1.1561 -2.8434 -0.1627
   71MOL    H9617036   2.835   7.248   2.076  0.7376 -0.6712  0.3566
   71MOL    H9717037   2.998   7.285   2.114 -0.8918 -2.1325 -0.8597
   71MOL    O9817038   3.081   7.337   1.868  0.3072 -0.1010  0.1628
   71MOL    C9917039   3.136   7.315   1.743 -0.8573 -0.3491  0.5793
   71MOL   C10017040   3.149   7.452   1.671 -0.8293  0.4877 -0.2207
   71MOL   C10117041   3.283   7.255   1.762  0.0197 -0.4247  0.3038
   71MOL   C10217042   3.275   7.109   1.779 -0.2368  0.0323 -0.3888
   71MOL   O10317043   3.296   7.039   1.684  0.3993  0.0385 -0.2173
   71MOL   H10417044   3.075   7.245   1.686  0.8378 -1.5724  0.2138
   71MOL   H10517045   3.213   7.523   1.723  0.5742 -0.7206 -0.2424
   71MOL   H10617046   3.049   7.495   1.669 -0.2228  1.8971 -0.1138
   71MOL   H10717047   3.189   7.433   1.572  2.5548  0.5838  1.0514
   71MOL   H10817048   3.338   7.312   1.837 -1.7883  2.1407 -0.2293
   71MOL   H10917049   3.335   7.270   1.667  1.6705 -2.4811  0.8548
   71MOL   O11017050   3.259   7.069   1.908  0.6957 -0.7454  0.3753
   71MOL   C11117051   3.251   6.928   1.943  0.3579  0.4462  0.1805
   71MOL   C11217052   3.384   6.861   1.925 -0.6753  0.2989 -0.2378
   71MOL   C11317053   3.212   6.902   2.097 -0.2509 -0.7321  0.2781
   71MOL   C11417054   3.064   6.926   2.116 -0.5902  0.5038 -0.1098
   71MOL   O11517055   3.028   7.036   2.150 -0.4878 -0.2943  0.0944
   71MOL   H11617056   3.176   6.892   1.872 -0.2732  2.0118  0.0335
   71MOL   H11717057   3.432   6.907   1.838 -1.7563  1.3785 -0.2767
   71MOL   H11817058   3.375   6.753   1.912  0.4208  0.0461  1.1307
   71MOL   H11917059   3.458   6.886   2.000  0.9921 -1.6455 -1.1861
   71MOL   H12017060   3.269   6.971   2.158  4.3556 -2.9593 -1.2757
   71MOL   H12117061   3.224   6.800   2.132 -3.1016 -0.5794  1.9172
   71MOL   O12217062   2.991   6.821   2.082  0.2878  0.9889 -0.5120
   71MOL   C12317063   2.849   6.815   2.100  0.4545 -0.4091  0.3384
   71MOL   C12417064   2.802   6.878   1.966  0.2634 -0.0633 -0.5503
   71MOL   C12517065   2.822   6.668   2.118 -0.3849 -0.7262  0.5051
   71MOL   C12617066   2.836   6.631   2.267  0.3230  0.2462 -0.4216
   71MOL   O12717067   2.812   6.700   2.369 -0.3808  0.0768 -0.0435
   71MOL   H12817068   2.821   6.865   2.193  0.1465 -2.9825  1.6546
   71MOL   H12917069   2.872   6.879   1.882  0.3395  1.4080 -0.4829
   71MOL   H13017070   2.791   6.984   1.987  2.0052 -0.4615  2.7427
   71MOL   H13117071   2.708   6.837   1.929  0.4314 -0.5091 -0.4890
   71MOL   H13217072   2.882   6.609   2.049 -1.3936  1.0128 -1.9863
   71MOL   H13317073   2.718   6.649   2.089 -0.1216  1.6637 -2.3690
   71MOL   O13417074   2.882   6.506   2.265 -0.4613  0.0730 -0.4966
   71MOL   C13517075   2.913   6.438   2.384 -0.6627  0.2127  0.6728
   71MOL   C13617076   2.800   6.329   2.397 -0.3615  0.1435 -0.0616
   71MOL   C13717077   3.057   6.387   2.382  0.2321 -0.8673  0.1479
   71MOL   C13817078   3.159   6.502   2.390 -0.0192 -0.1689  0.9451
   71MOL   O13917079   3.240   6.524   2.301  0.5789  0.0709 -0.0960
   71MOL   H14017080   2.905   6.501   2.472 -0.0466  0.3365  0.6405
   71MOL   H14117081   2.818   6.283   2.494 -0.5632  1.1157  0.4452
   71MOL   H14217082   2.799   6.247   2.325 -0.4469 -0.3556  0.5010
   71MOL   H14317083   2.699   6.370   2.402 -0.3229  0.2860 -0.4286
   71MOL   H14417084   3.075   6.323   2.295 -0.4648  0.5089 -1.0311
   71MOL   H14517085   3.076   6.315   2.461 -0.6228 -0.3477  0.8317
   71MOL   O14617086   3.136   6.591   2.496  0.1413 -0.9735  0.0389
   71MOL   C14717087   3.213   6.708   2.512  0.1558 -0.3713  0.2422
   71MOL   C14817088   3.119   6.816   2.445 -0.7262  0.4932 -0.1397
   71MOL   C14917089   3.245   6.716   2.660 -0.4479 -0.1564 -0.1906
   71MOL   C15017090   3.317   6.846   2.686 -0.1545 -1.1296  0.0518
   71MOL   O15117091   3.433   6.867   2.647 -0.0492 -0.3389 -0.6692
   71MOL   H15217092   3.297   6.723   2.444 -1.1614  0.5176 -1.2454
   71MOL   H15317093   3.036   6.846   2.508  0.3192  0.6857  1.1853
   71MOL   H15417094   3.074   6.772   2.356 -0.7732  1.3628 -0.5476
   71MOL   H15517095   3.176   6.905   2.419 -0.3640 -0.2036 -1.7816
   71MOL   H15617096   3.324   6.646   2.689 -0.0232 -0.4935 -2.0882
   71MOL   H15717097   3.151   6.711   2.715  0.1253  0.3511  0.8634
   71MOL   O15817098   3.257   6.927   2.776  0.6008 -0.7968  0.2825
   71MOL   C15917099   3.311   7.060   2.798  0.5197  0.4187  0.4128
   71MOL   C16017100   3.237   7.163   2.711 -0.9316 -0.2720  0.5071
   71MOL   C16117101   3.284   7.079   2.946 -0.0237 -0.2729  0.5033
   71MOL   C16217102   3.350   7.200   3.011  0.7223  0.5541  0.2433
   71MOL   O16317103   3.448   7.256   2.960 -0.2492  0.0890  0.1467
   71MOL   H16417104   3.418   7.065   2.781  0.7180 -4.0364 -0.2351
   71MOL   H16517105   3.137   7.175   2.754 -0.5072  0.2432  1.3619
   71MOL   H16617106   3.225   7.142   2.605  0.0722 -0.6837  0.4665
   71MOL   H16717107   3.296   7.254   2.721  1.5077 -1.8738  1.1803
   71MOL   H16817108   3.327   6.988   2.987  0.2714 -0.7065 -0.7531
   71MOL   H16917109   3.177   7.071   2.963 -0.2517  2.3974  0.6590
   71MOL   O17017110   3.297   7.235   3.129  0.4937  0.3465 -0.0121
   71MOL   C17117111   3.362   7.330   3.211  0.1867 -0.0875 -0.1692
   71MOL   C17217112   3.292   7.469   3.201 -0.0550  0.0895 -0.2736
   71MOL   C17317113   3.370   7.279   3.349 -0.6036 -0.1367 -0.4430
   71MOL   C17417114   3.459   7.348   3.442 -0.5289 -0.0205  0.6329
   71MOL   O17517115   3.552   7.418   3.401 -0.2268 -0.4829  0.2198
   71MOL   H17617116   3.464   7.333   3.172  0.7582 -0.5746  1.2488
   71MOL   H17717117   3.339   7.536   3.273 -0.2341  0.8402 -0.8521
   71MOL   H17817118   3.185   7.468   3.225  0.4926 -2.4890  2.3377
   71MOL   H17917119   3.315   7.505   3.101  1.6919 -1.2435 -0.3800
   71MOL   H18017120   3.418   7.183   3.329 -0.6820 -0.0404 -1.1092
   71MOL   H18117121   3.266   7.275   3.380 -0.2965  1.3080  0.8461
   71MOL   O18217122   3.422   7.333   3.561  0.3714  0.0168 -0.1911
   71MOL   C18317123   3.514   7.358   3.669  0.0140  0.5829  0.4165
   71MOL   C18417124   3.464   7.492   3.722 -0.3748 -0.8164  0.1192
   71MOL   C18517125   3.502   7.250   3.782 -0.0799 -1.0506 -0.0317
   71MOL   C18617126   3.565   7.116   3.740  0.3486  1.0443  0.3238
   71MOL   O18717127   3.542   7.059   3.633  0.3724  0.7420  0.3039
   71MOL   H18817128   3.619   7.358   3.640  0.3743 -0.4450  1.6439
   71MOL   H18917129   3.520   7.529   3.808 -1.8629  2.2065 -0.1481
   71MOL   H19017130   3.359   7.494   3.753 -0.2188  1.6649  0.6123
   71MOL   H19117131   3.482   7.573   3.652  0.6718 -1.6697 -0.6137
   71MOL   H19217132   3.403   7.230   3.823 -0.3850 -1.0758 -0.7681
   71MOL   H19317133   3.551   7.284   3.874  0.9946 -0.2550 -0.8889
   71MOL   O19417134   3.632   7.055   3.838 -0.1911  0.5372 -0.2312
   71MOL   C19517135   3.679   6.919   3.829  0.8268 -0.1139  0.7201
   71MOL   C19617136   3.788   6.910   3.942 -0.5652 -0.0581 -1.0632
   71MOL   C19717137   3.578   6.807   3.843  0.5232  0.4835 -0.2447
   71MOL   C19817138   3.503   6.782   3.973 -0.5277 -0.4142 -0.5477
   71MOL   O19917139   3.414   6.859   4.009 -0.1484 -0.5334  0.0231
   71MOL   H20017140   3.726   6.909   3.731  1.9939 -0.6685  1.3289
   71MOL   H20117141   3.844   6.817   3.943  0.4161  0.5356  0.8214
   71MOL   H20217142   3.742   6.924   4.040 -1.2434 -1.0600 -1.2286
   71MOL   H20317143   3.858   6.992   3.925 -1.6682  1.1663  0.1286
   71MOL   H20417144   3.633   6.714   3.828 -1.6280 -1.1448  1.4862
   71MOL   H20517145   3.512   6.811   3.756 -0.7038  3.3113  0.7711
   71MOL   O20617146   3.536   6.668   4.037 -0.4141 -0.3725 -0.1162
   71MOL   C20717147   3.475   6.637   4.160  0.4673  0.2017 -0.4221
   71MOL   C20817148   3.403   6.499   4.128 -0.0046  0.3506  0.0962
   71MOL   C20917149   3.589   6.614   4.255 -0.3773 -0.5707  0.7907
   71MOL   C21017150   3.647   6.745   4.308 -0.2358 -0.5106  0.4135
   71MOL   O21117151   3.600   6.857   4.281 -0.1757  0.0840  0.3415
   71MOL   H21217152   3.405   6.707   4.206  1.7863  0.2465  1.5497
   71MOL   H21317153   3.329   6.509   4.047  0.3340  1.3533 -0.0982
   71MOL   H21417154   3.357   6.463   4.220  0.3401  1.6257  0.7735
   71MOL   H21517155   3.465   6.413   4.105 -0.4492  0.3290 -1.0881
   71MOL   H21617156   3.665   6.558   4.203 -1.6114 -1.3396 -0.2139
   71MOL   H21717157   3.563   6.554   4.342  0.3048  0.9089  2.0561
   71MOL   O21817158   3.756   6.723   4.377  0.1075 -0.1031 -0.0818
   71MOL   C21917159   3.825   6.828   4.450  0.4010  0.2674 -0.1195
   71MOL   C22017160   3.905   6.749   4.554  0.3788  0.1281 -0.0616
   71MOL   C22117161   3.897   6.917   4.346 -0.9928 -0.2288  0.9577
   71MOL   C22217162   3.980   7.026   4.408  0.2578  0.7247  0.0865
   71MOL   O22317163   4.096   7.008   4.425 -0.2792  0.2007 -0.7023
   71MOL   H22417164   3.758   6.891   4.509  2.1164  2.5360 -0.5137
   71MOL   H22517165   3.969   6.810   4.618  0.3297 -0.9490  1.0489
   71MOL   H22617166   3.962   6.670   4.506 -0.1454 -0.0988 -0.3151
   71MOL   H22717167   3.832   6.698   4.617 -0.5780  2.1554  0.5292
   71MOL   H22817168   3.822   6.962   4.281  0.2163 -0.7403 -0.8237
   71MOL   H22917169   3.964   6.853   4.289 -0.3177 -0.4171  1.9604
   71MOL   O23017170   3.909   7.134   4.445 -0.7227 -0.4873  0.0775
   71MOL   C23117171   3.974   7.247   4.504  0.4556 -0.5133 -0.4904
   71MOL   C23217172   4.041   7.326   4.383 -0.1623 -0.8635 -0.0257
   71MOL   C23317173   3.857   7.332   4.558  0.4431  0.7276  0.6820
   71MOL   C23417174   3.907   7.422   4.672  0.2496  0.2019  0.6395
   71MOL   O23517175   4.023   7.445   4.696  0.2033 -0.7724  0.0468
   71MOL   H23617176   4.046   7.211   4.577  0.8801  0.0921 -0.6073
   71MOL   H23717177   4.123   7.269   4.339  0.8831  1.7515 -1.5593
   71MOL   H23817178   4.085   7.420   4.416 -0.7074 -1.0877  1.3503
   71MOL   H23917179   3.982   7.348   4.294  0.6294 -0.8385 -0.5535
   71MOL   H24017180   3.782   7.264   4.600  0.7233  0.4167  0.6822
   71MOL   H24117181   3.817   7.390   4.475  1.3742  1.2902  0.6187
   71MOL   H24217182   3.824   7.466   4.729  1.1609  0.9644  1.3906
   72MOL     O117183   6.988   7.222   6.431  0.2388  0.4302  0.0276
   72MOL     C217184   7.028   7.275   6.311  0.4628 -0.5776  0.0168
   72MOL     C317185   7.169   7.244   6.295 -0.3629  0.9648  0.4798
   72MOL     C417186   6.938   7.213   6.196  0.3161 -0.1803 -0.1721
   72MOL     C517187   6.813   7.299   6.167 -0.5061 -0.5228  0.0778
   72MOL     O617188   6.793   7.405   6.223  0.2252 -0.0610  0.2779
   72MOL     H717189   7.019   7.383   6.314 -0.1666 -0.6122 -0.5814
   72MOL     H817190   7.221   7.312   6.227 -0.6261  1.2547  0.5710
   72MOL     H917191   7.188   7.145   6.252  0.8422  1.4816 -0.2077
   72MOL    H1017192   7.219   7.254   6.391 -1.4023  2.7647  0.8437
   72MOL    H1117193   6.914   7.108   6.206  0.1223  0.0813  2.2031
   72MOL    H1217194   7.005   7.230   6.111 -0.6389  0.6834 -0.7722
   72MOL    H1317195   7.010   7.130   6.437 -1.1277  0.1845  1.9486
   72MOL    O1417196   6.731   7.239   6.080 -0.0937  0.6327  0.4170
   72MOL    C1517197   6.600   7.292   6.040  0.0676 -0.0821  0.3132
   72MOL    C1617198   6.631   7.405   5.935 -0.0613  0.3565  0.4086
   72MOL    C1717199   6.518   7.181   5.981  0.2112 -0.5839  0.3232
   72MOL    C1817200   6.374   7.214   6.022  1.0276 -0.1573 -0.3188
   72MOL    O1917201   6.332   7.325   6.046  0.7690  0.4634 -0.2321
   72MOL    H2017202   6.555   7.338   6.128  2.5371  2.5492  0.2877
   72MOL    H2117203   6.548   7.447   5.878  0.0231  0.2686  0.2208
   72MOL    H2217204   6.715   7.375   5.871  0.0043  2.0520 -0.3160
   72MOL    H2317205   6.687   7.486   5.980  2.2425 -1.0750  0.2259
   72MOL    H2417206   6.528   7.082   6.027 -0.1762 -1.1304 -0.7676
   72MOL    H2517207   6.518   7.169   5.873 -0.5023 -3.7035  0.6210
   72MOL    O2617208   6.297   7.103   6.023 -0.5039  0.0297 -0.0315
   72MOL    C2717209   6.158   7.100   6.043 -0.1836 -0.0035  0.1759
   72MOL    C2817210   6.099   7.048   5.918  0.1403 -0.1935  0.0200
   72MOL    C2917211   6.113   7.004   6.158 -0.2417  0.2000 -0.9743
   72MOL    C3017212   6.161   7.052   6.296 -0.4856  0.1557 -0.0790
   72MOL    O3117213   6.082   7.073   6.384  0.4597 -0.1833  0.1159
   72MOL    H3217214   6.128   7.204   6.060 -0.9389 -0.5162  2.0607
   72MOL    H3317215   6.143   6.951   5.896  0.2344 -0.3983  1.1067
   72MOL    H3417216   6.141   7.111   5.839  2.4513  0.0315  1.3691
   72MOL    H3517217   5.990   7.051   5.910  0.2474 -1.0039 -2.1612
   72MOL    H3617218   6.168   6.913   6.134 -1.9463 -1.4442  1.1027
   72MOL    H3717219   6.005   6.991   6.167 -0.1986  0.3527 -0.2194
   72MOL    O3817220   6.293   7.076   6.313  0.1359 -0.4806  0.3089
   72MOL    C3917221   6.354   7.127   6.431 -0.0870  0.4150  0.0408
   72MOL    C4017222   6.499   7.102   6.385  0.6772 -0.3584 -0.2570
   72MOL    C4117223   6.318   7.277   6.440 -0.5660 -0.1468 -0.0742
   72MOL    C4217224   6.385   7.352   6.557 -0.7537 -0.2223 -0.4842
   72MOL    O4317225   6.507   7.353   6.573 -0.4492  0.3302 -0.4335
   72MOL    H4417226   6.318   7.085   6.525 -2.0668  0.4185 -0.6945
   72MOL    H4517227   6.526   7.002   6.417  1.4237 -1.0196 -2.8599
   72MOL    H4617228   6.565   7.177   6.429 -0.9980  1.3848 -0.6185
   72MOL    H4717229   6.527   7.105   6.280 -0.8817  0.4941 -0.6682
   72MOL    H4817230   6.210   7.281   6.450 -0.5613 -0.9394  0.2931
   72MOL    H4917231   6.345   7.330   6.348 -2.0393 -1.1391 -1.1018
   72MOL    O5017232   6.291   7.412   6.637  0.0126 -0.5726  0.0857
   72MOL    C5117233   6.336   7.481   6.755  0.6457  0.6790 -0.4934
   72MOL    C5217234   6.207   7.553   6.816 -0.4158 -0.2716 -0.1153
   72MOL    C5317235   6.398   7.382   6.858 -0.6045  0.5733 -0.1006
   72MOL    C5417236   6.301   7.281   6.910  0.0022 -0.9954 -0.2389
   72MOL    O5517237   6.315   7.169   6.866 -0.4239 -0.1441  0.0440
   72MOL    H5617238   6.403   7.558   6.717 -0.1696  1.1796 -0.9258
   72MOL    H5717239   6.216   7.574   6.922  0.7509  0.3695 -0.3292
   72MOL    H5817240   6.120   7.487   6.817 -1.3431  0.9353  0.1895
   72MOL    H5917241   6.168   7.634   6.753 -1.5239 -0.6423  0.0863
   72MOL    H6017242   6.452   7.427   6.941 -1.0758 -2.0832  1.6951
   72MOL    H6117243   6.463   7.309   6.810  0.3568  1.7421 -0.5847
   72MOL    O6217244   6.222   7.323   7.013 -0.0460 -0.5656 -0.6482
   72MOL    C6317245   6.135   7.242   7.064  0.2724  0.5196  0.7566
   72MOL    C6417246   6.182   7.170   7.193  0.7226 -0.2019 -0.6703
   72MOL    C6517247   6.005   7.326   7.089 -0.2612  0.3070  0.4037
   72MOL    C6617248   5.917   7.341   6.966  0.0498  0.0551 -0.5150
   72MOL    O6717249   5.882   7.452   6.927 -0.1273 -0.2767 -0.3958
   72MOL    H6817250   6.106   7.163   6.995 -0.2119  0.9458  0.4637
   72MOL    H6917251   6.198   7.237   7.278  1.0840  0.6509 -1.4037
   72MOL    H7017252   6.273   7.123   7.157  1.6678  0.4667  0.7826
   72MOL    H7117253   6.112   7.090   7.218 -0.9677  0.8383 -1.9938
   72MOL    H7217254   6.037   7.427   7.116 -0.4803 -0.0117  1.8864
   72MOL    H7317255   5.941   7.290   7.169 -0.3031  0.4730  0.4456
   72MOL    O7417256   5.875   7.224   6.920  0.2315 -0.2595 -0.2785
   72MOL    C7517257   5.820   7.212   6.792  0.0768 -0.2420  0.4564
   72MOL    C7617258   5.889   7.096   6.722  0.0547  0.1750  0.3456
   72MOL    C7717259   5.666   7.217   6.797  0.5470  0.0708  0.3282
   72MOL    C7817260   5.600   7.190   6.658 -0.5772 -0.0100 -0.7560
   72MOL    O7917261   5.509   7.107   6.651 -0.4186  0.5682 -0.5305
   72MOL    H8017262   5.860   7.297   6.737 -3.7052  0.8367 -0.7690
   72MOL    H8117263   5.852   7.002   6.763 -3.0654  0.2258 -2.1298
   72MOL    H8217264   5.996   7.101   6.741 -0.1729  0.9902  1.4354
   72MOL    H8317265   5.871   7.097   6.615  1.7444  0.5819  0.0538
   72MOL    H8417266   5.638   7.314   6.837  0.2888 -0.2583  0.9514
   72MOL    H8517267   5.620   7.143   6.863 -2.2366  1.0291 -0.4710
   72MOL    O8617268   5.651   7.257   6.559  0.0332  0.1844  0.1718
   72MOL    C8717269   5.612   7.219   6.427 -0.0214  0.3283  0.1277
   72MOL    C8817270   5.568   7.346   6.344 -0.1031 -1.0280  0.3359
   72MOL    C8917271   5.728   7.134   6.365 -0.2784  0.6054 -0.2525
   72MOL    C9017272   5.704   7.086   6.228 -0.1679  0.1315  0.2923
   72MOL    O9117273   5.773   7.128   6.131  0.2540 -0.2037  0.0631
   72MOL    H9217274   5.527   7.151   6.427 -1.0836  1.6141  0.1558
   72MOL    H9317275   5.482   7.389   6.396  0.1710  0.8813 -0.7918
   72MOL    H9417276   5.539   7.314   6.244 -1.1070  1.1849 -0.1003
   72MOL    H9517277   5.644   7.424   6.339 -1.4814  0.2383 -1.7161
   72MOL    H9617278   5.756   7.053   6.432  0.7909  0.5904 -0.7194
   72MOL    H9717279   5.809   7.206   6.353 -0.3600  0.5815 -0.9757
   72MOL    O9817280   5.604   6.997   6.220 -0.0275  0.0515 -0.5416
   72MOL    C9917281   5.568   6.932   6.095 -0.3215 -0.1135 -0.4328
   72MOL   C10017282   5.579   6.781   6.116  0.5658  0.5568  0.2993
   72MOL   C10117283   5.434   6.984   6.045  0.1031 -0.4967  0.1188
   72MOL   C10217284   5.437   7.117   5.980  0.3895 -0.0966  0.1394
   72MOL   O10317285   5.382   7.217   6.034 -0.0745  0.3148  0.0595
   72MOL   H10417286   5.633   6.971   6.016  1.2411  0.5334  1.1528
   72MOL   H10517287   5.681   6.743   6.117 -0.0769 -1.3934 -2.4524
   72MOL   H10617288   5.543   6.735   6.024  2.1181  0.6090 -0.3582
   72MOL   H10717289   5.519   6.745   6.199 -0.3668 -2.3001 -1.5287
   72MOL   H10817290   5.351   6.986   6.116 -1.6709  1.0277 -1.9190
   72MOL   H10917291   5.394   6.913   5.972 -2.2814 -0.8314  1.6813
   72MOL   O11017292   5.508   7.125   5.862 -0.1711 -0.4111  0.1576
   72MOL   C11117293   5.542   7.254   5.817  0.7594 -0.6381  0.2470
   72MOL   C11217294   5.676   7.292   5.881 -0.3318 -0.3120  1.2711
   72MOL   C11317295   5.538   7.245   5.660 -0.1080 -0.7153  0.4133
   72MOL   C11417296   5.398   7.267   5.597  0.0090 -0.7214  0.0844
   72MOL   O11517297   5.372   7.280   5.475 -0.0710  0.2044  0.3936
   72MOL   H11617298   5.466   7.325   5.850  1.6922  0.3451  0.3093
   72MOL   H11717299   5.761   7.226   5.864 -0.8296 -1.0367  1.6095
   72MOL   H11817300   5.665   7.290   5.989  0.2441 -0.4526  1.3288
   72MOL   H11917301   5.729   7.382   5.850 -0.1204 -0.1530  2.0867
   72MOL   H12017302   5.566   7.142   5.639  2.7326  0.6112 -2.7695
   72MOL   H12117303   5.612   7.309   5.612 -0.4594 -0.5822  0.0478
   72MOL   O12217304   5.311   7.261   5.695 -0.2651  0.2753  0.0720
   72MOL   C12317305   5.176   7.288   5.664  0.0821  0.3366 -0.1108
   72MOL   C12417306   5.112   7.150   5.633  0.1845 -0.1554  0.1364
   72MOL   C12517307   5.123   7.349   5.793 -0.0300  0.1376 -0.0909
   72MOL   C12617308   4.973   7.398   5.788  0.0104 -0.2595 -0.0602
   72MOL   O12717309   4.878   7.338   5.841  0.0344 -0.0006 -0.3713
   72MOL   H12817310   5.154   7.346   5.574 -0.1257 -2.4124 -1.8830
   72MOL   H12917311   5.008   7.163   5.603  0.5355  1.4583 -0.4042
   72MOL   H13017312   5.116   7.083   5.719 -1.2728  2.2973  2.2080
   72MOL   H13117313   5.153   7.094   5.549  2.3504  1.3123  0.1856
   72MOL   H13217314   5.179   7.441   5.812  3.5598 -2.3127  1.7976
   72MOL   H13317315   5.140   7.289   5.883 -1.9322 -0.0781  0.1451
   72MOL   O13417316   4.967   7.522   5.731 -0.5841  0.2080  0.5694
   72MOL   C13517317   4.846   7.593   5.752  0.1635 -0.0807  0.5333
   72MOL   C13617318   4.877   7.687   5.865 -0.4759  0.2457 -0.4847
   72MOL   C13717319   4.799   7.676   5.629 -0.1906  0.1142  0.3958
   72MOL   C13817320   4.678   7.606   5.562 -0.9115  0.4230  0.1400
   72MOL   O13917321   4.568   7.654   5.580 -0.6031 -0.7291  0.3589
   72MOL   H14017322   4.764   7.526   5.778  1.2966 -1.8326 -0.3457
   72MOL   H14117323   4.798   7.755   5.897  1.0653  0.2761  3.4619
   72MOL   H14217324   4.970   7.743   5.856 -0.1833 -0.0267  0.7216
   72MOL   H14317325   4.896   7.627   5.954  2.9588 -0.9586 -1.9151
   72MOL   H14417326   4.881   7.687   5.558  1.2432 -0.3446  1.9342
   72MOL   H14517327   4.779   7.776   5.666  2.5167  0.9730 -0.3642
   72MOL   O14617328   4.713   7.517   5.475  0.1781  0.3999  0.3380
   72MOL   C14717329   4.617   7.431   5.421  0.3141  0.2951  0.4049
   72MOL   C14817330   4.635   7.438   5.271 -0.4247  0.0403  0.5456
   72MOL   C14917331   4.627   7.281   5.472  0.4356 -0.2892  0.2040
   72MOL   C15017332   4.531   7.188   5.406 -0.4952  0.1498  0.3146
   72MOL   O15117333   4.561   7.090   5.340 -0.2172  0.3534 -0.5030
   72MOL   H15217334   4.514   7.458   5.447  0.8304  2.0869  0.6432
   72MOL   H15317335   4.733   7.405   5.239 -1.7989 -1.7686 -1.9935
   72MOL   H15417336   4.620   7.534   5.222 -2.4456 -0.9355 -0.8475
   72MOL   H15517337   4.566   7.381   5.209  1.1249 -0.8875 -0.3595
   72MOL   H15617338   4.621   7.258   5.579 -0.1164  0.8661  0.4289
   72MOL   H15717339   4.723   7.237   5.442  0.0467  0.0173 -1.5290
   72MOL   O15817340   4.403   7.232   5.426  0.3518  0.2726  0.2908
   72MOL   C15917341   4.294   7.165   5.375  0.5273 -0.0677 -0.1148
   72MOL   C16017342   4.271   7.035   5.461 -0.8139  0.5908  1.3003
   72MOL   C16117343   4.173   7.260   5.408  0.1449 -0.5083 -0.1221
   72MOL   C16217344   4.161   7.389   5.330 -0.3344  0.0659  0.0365
   72MOL   O16317345   4.155   7.499   5.392  0.0369 -0.2986  0.0270
   72MOL   H16417346   4.295   7.145   5.268  0.1728  1.3606 -0.3898
   72MOL   H16517347   4.276   7.036   5.570  1.6355 -0.7942  1.2442
   72MOL   H16617348   4.341   6.958   5.428 -0.6394  1.1932  0.2657
   72MOL   H16717349   4.182   6.985   5.421  1.8070 -2.9993 -0.3228
   72MOL   H16817350   4.186   7.290   5.512  3.1136  0.8777 -0.8343
   72MOL   H16917351   4.076   7.212   5.396 -0.4588  0.9704 -1.3071
   72MOL   O17017352   4.144   7.377   5.198 -0.1392  0.1178  0.4152
   72MOL   C17117353   4.118   7.487   5.119 -0.0567 -0.7087 -0.5724
   72MOL   C17217354   4.177   7.458   4.978 -0.5449 -0.3837  0.1666
   72MOL   C17317355   3.962   7.511   5.106  0.4027  0.2781 -0.3989
   72MOL   C17417356   3.939   7.653   5.056  0.7363  0.2817  0.1580
   72MOL   O17517357   3.931   7.675   4.935 -0.0078 -0.1499 -0.3441
   72MOL   H17617358   4.163   7.577   5.161  0.0435 -1.0098 -0.0375
   72MOL   H17717359   4.285   7.469   4.967 -0.2170 -2.4371  1.1204
   72MOL   H17817360   4.128   7.527   4.909  1.0636  0.8273  0.2087
   72MOL   H17917361   4.152   7.354   4.956 -0.4034 -1.1776  3.4887
   72MOL   H18017362   3.906   7.518   5.200 -1.0489 -0.1296 -1.2257
   72MOL   H18117363   3.917   7.434   5.044 -0.7366  1.0558 -0.5455
   72MOL   O18217364   3.928   7.742   5.158 -0.1622 -0.2850 -0.2672
   72MOL   C18317365   3.935   7.878   5.130  0.2466 -0.1217 -0.1256
   72MOL   C18417366   3.790   7.934   5.134  0.1136 -0.6791 -0.1604
   72MOL   C18517367   4.023   7.952   5.237  0.7154  0.6418  0.8802
   72MOL   C18617368   4.170   7.957   5.199  0.0352 -0.2468  0.0195
   72MOL   O18717369   4.223   0.084   5.219  0.3985  0.3606  0.1202
   72MOL   H18817370   3.986   7.906   5.038  1.6288  1.9953  1.2490
   72MOL   H18917371   3.750   7.941   5.033  1.4872  3.6835 -0.5004
   72MOL   H19017372   3.788   0.053   5.180 -0.0825 -0.7555 -0.0054
   72MOL   H19117373   3.726   7.864   5.189  0.8776 -0.7519  0.6502
   72MOL   H19217374   3.996   7.924   5.339 -1.2788 -0.9024 -0.0220
   72MOL   H19317375   3.980   0.071   5.226 -0.5776 -0.1463 -1.4558
   72MOL   O19417376   4.229   7.841   5.173  0.1682  0.5686  0.0736
   72MOL   C19517377   4.369   7.821   5.155 -0.4746 -0.4907 -0.1167
   72MOL   C19617378   4.422   7.733   5.261 -0.7329 -0.0295  0.4458
   72MOL   C19717379   4.406   7.755   5.022 -0.6006  0.3083 -0.9101
   72MOL   C19817380   4.387   7.831   4.891  0.6132 -0.1356  0.0345
   72MOL   O19917381   4.443   7.939   4.870 -0.4952  0.0183  0.2153
   72MOL   H20017382   4.413   7.921   5.157 -0.3253 -0.5582 -0.0492
   72MOL   H20117383   4.530   7.714   5.257 -1.1394 -2.7004  1.1112
   72MOL   H20217384   4.382   7.632   5.258  1.0252 -0.7048 -0.7276
   72MOL   H20317385   4.416   7.779   5.360  0.1073 -0.6902  0.8153
   72MOL   H20417386   4.357   7.658   5.008  2.1360 -1.2345 -0.1496
   72MOL   H20517387   4.507   7.713   5.022 -0.7554 -0.0699 -1.4520
   72MOL   O20617388   4.315   7.763   4.796  0.4053 -0.6521  0.2488
   72MOL   C20717389   4.286   7.824   4.666  0.4801  0.2934 -0.1371
   72MOL   C20817390   4.303   7.717   4.560  0.3919  0.9286  0.0988
   72MOL   C20917391   4.142   7.876   4.655 -0.0013 -0.3988 -0.1548
   72MOL   C21017392   4.114   0.018   4.744  0.0104  0.2584 -0.1291
   72MOL   O21117393   4.028   0.017   4.834  0.3609  0.1868 -0.2168
   72MOL   H21217394   4.341   7.914   4.639  1.3351 -0.4116 -0.8023
   72MOL   H21317395   4.407   7.685   4.558 -0.6387 -2.6105 -2.1128
   72MOL   H21417396   4.260   7.747   4.465 -0.1604  0.8823  0.3325
   72MOL   H21517397   4.253   7.625   4.590  1.5146  0.2196 -0.1638
   72MOL   H21617398   4.064   7.804   4.678  0.0053  0.5545  3.0693
   72MOL   H21717399   4.131   7.905   4.550 -1.0589  0.7395  0.2529
   72MOL   O21817400   4.192   0.131   4.713 -0.5037 -0.3061  0.2279
   72MOL   C21917401   4.188   0.254   4.792  0.5365 -0.4554  0.3180
   72MOL   C22017402   4.297   0.238   4.907 -0.6714  0.4217  0.3440
   72MOL   C22117403   4.191   0.378   4.695 -0.0093  0.1869  0.0761
   72MOL   C22217404   4.059   0.396   4.616  0.1934 -0.6369 -0.1617
   72MOL   O22317405   4.010   0.508   4.606  0.0808 -0.2471 -0.0582
   72MOL   H22417406   4.086   0.254   4.832  0.3946  2.1317  0.0262
   72MOL   H22517407   4.400   0.223   4.873 -0.1806 -0.4256  2.1064
   72MOL   H22617408   4.275   0.153   4.972 -0.4748 -0.3980 -0.6665
   72MOL   H22717409   4.303   0.326   4.971 -0.9171 -0.0504  1.0210
   72MOL   H22817410   4.272   0.353   4.626 -0.9816  0.9036 -1.3573
   72MOL   H22917411   4.203   0.473   4.746 -0.6360 -0.0086  0.5973
   72MOL   O23017412   4.017   0.291   4.541  0.2196 -0.0301 -0.3470
   72MOL   C23117413   3.908   0.303   4.455  0.1259 -1.1237  0.5569
   72MOL   C23217414   3.902   0.183   4.365  0.5396 -0.4489  0.2601
   72MOL   C23317415   3.775   0.317   4.534  0.3063 -0.2151 -0.1146
   72MOL   C23417416   3.682   0.404   4.457  0.2685 -0.1266  0.1628
   72MOL   O23517417   3.647   0.515   4.506 -0.3300  0.4483  0.3310
   72MOL   H23617418   3.930   0.391   4.394 -0.2082 -2.8976 -2.1897
   72MOL   H23717419   3.877   0.096   4.427  1.2788 -1.6343 -1.0748
   72MOL   H23817420   3.991   0.164   4.305 -0.6340 -1.2900 -1.2518
   72MOL   H23917421   3.818   0.186   4.296  0.5553 -0.8109  0.2204
   72MOL   H24017422   3.785   0.363   4.632  1.4532 -2.8188  1.0445
   72MOL   H24117423   3.736   0.219   4.561  1.6000 -0.1890  1.9260
   72MOL   H24217424   3.641   0.369   4.363  1.3525 -0.6166 -0.1244
   73MOL     O117425   1.262   0.597   0.973 -0.1247  0.1784 -0.2186
   73MOL     C217426   1.289   0.501   1.068 -0.6290  0.3277 -1.2038
   73MOL     C317427   1.152   0.478   1.134 -0.6836  0.4469  0.5147
   73MOL     C417428   1.348   0.377   0.998 -0.1463 -0.3202  0.0722
   73MOL     C517429   1.384   0.242   1.076  0.1071  0.3498 -0.4459
   73MOL     O617430   1.356   0.122   1.038 -0.2500 -0.4600 -0.4992
   73MOL     H717431   1.355   0.539   1.146  1.8070 -3.7117 -1.1453
   73MOL     H817432   1.096   0.413   1.068  0.9986 -1.6595  1.0959
   73MOL     H917433   1.099   0.570   1.157 -1.1910  0.0937  0.7539
   73MOL    H1017434   1.149   0.421   1.227  0.0155  1.5164  1.2163
   73MOL    H1117435   1.430   0.414   0.936 -1.1435  3.1114  0.6941
   73MOL    H1217436   1.263   0.351   0.935  0.7133 -2.2884 -0.3236
   73MOL    H1317437   1.345   0.641   0.961 -0.4505 -0.0617 -4.0916
   73MOL    O1417438   1.441   0.270   1.194 -0.7313 -0.3505  0.6909
   73MOL    C1517439   1.469   0.175   1.294  0.4781  0.0316 -0.9761
   73MOL    C1617440   1.623   0.167   1.307 -0.0450  0.7190 -0.0974
   73MOL    C1717441   1.401   0.207   1.426 -0.3690 -0.7450  0.1471
   73MOL    C1817442   1.258   0.166   1.421  0.7160 -0.2434 -0.6566
   73MOL    O1917443   1.164   0.243   1.414  0.3059 -0.1339 -0.4881
   73MOL    H2017444   1.434   0.080   1.254 -0.5900  0.6101 -1.4285
   73MOL    H2117445   1.670   0.264   1.323  1.6707 -0.5190  2.8412
   73MOL    H2217446   1.668   0.128   1.215 -1.5441 -0.8843 -0.1730
   73MOL    H2317447   1.640   0.102   1.392 -2.0049 -2.1700 -1.8448
   73MOL    H2417448   1.401   0.312   1.455 -1.2382 -0.7472  0.1482
   73MOL    H2517449   1.442   0.147   1.507  1.1100 -0.4678 -0.3819
   73MOL    O2617450   1.240   0.035   1.430 -0.1739  0.6944  0.5482
   73MOL    C2717451   1.112   7.957   1.417 -0.3615 -0.2617  0.3342
   73MOL    C2817452   1.121   7.856   1.296  0.0310 -0.0583 -0.1799
   73MOL    C2917453   1.056   7.888   1.541  0.0348 -0.2416 -0.3188
   73MOL    C3017454   1.032   0.009   1.660 -0.4172 -0.3667 -0.4569
   73MOL    O3117455   0.926   0.067   1.667  0.1481 -0.0256 -0.0627
   73MOL    H3217456   1.042   0.049   1.374  0.9044  2.2610  2.3791
   73MOL    H3317457   1.144   7.911   1.205  1.7700 -1.5386 -0.6616
   73MOL    H3417458   1.031   7.793   1.293 -0.0783  0.0294  0.8712
   73MOL    H3517459   1.202   7.786   1.316 -0.0564 -0.1514 -0.1500
   73MOL    H3617460   1.125   7.813   1.579  1.2716  1.5169  0.9671
   73MOL    H3717461   0.959   7.840   1.527 -0.2706  0.0900  0.6360
   73MOL    O3817462   1.133   0.027   1.738  0.5100  0.7688 -0.4433
   73MOL    C3917463   1.132   0.107   1.849 -0.2173  0.0363  0.2261
   73MOL    C4017464   1.078   0.026   1.970 -0.8282  0.7967  0.0684
   73MOL    C4117465   1.264   0.168   1.880 -1.0565 -0.0614 -0.4772
   73MOL    C4217466   1.315   0.281   1.796  0.0139  0.0082 -0.2544
   73MOL    O4317467   1.425   0.274   1.741  0.5854  0.0590 -0.1888
   73MOL    H4417468   1.074   0.197   1.827  1.6687  1.0511 -0.7511
   73MOL    H4517469   1.052   0.093   2.052 -2.6675  1.4910 -1.0358
   73MOL    H4617470   1.154   7.938   2.009 -2.2612 -1.8832 -1.6203
   73MOL    H4717471   0.989   7.951   1.937  1.0511 -0.7093 -2.7128
   73MOL    H4817472   1.337   0.087   1.872 -0.6972  0.3423 -1.3316
   73MOL    H4917473   1.280   0.189   1.986  1.8124  2.4452 -1.3320
   73MOL    O5017474   1.222   0.391   1.783  0.4052 -0.2292  0.3541
   73MOL    C5117475   1.238   0.484   1.678 -0.8404 -0.0720 -0.2524
   73MOL    C5217476   1.099   0.508   1.628 -0.5365  0.4953  0.3424
   73MOL    C5317477   1.310   0.613   1.722  0.8797 -0.1329  0.0018
   73MOL    C5417478   1.373   0.691   1.613  0.0818  0.0360 -0.2300
   73MOL    O5517479   1.377   0.640   1.500  0.7812  0.0275 -0.3927
   73MOL    H5617480   1.294   0.429   1.603 -0.3812  0.5379 -0.3601
   73MOL    H5717481   1.105   0.568   1.537  0.2440 -0.2412 -0.0989
   73MOL    H5817482   1.028   0.554   1.697 -0.7977 -0.2910  0.6060
   73MOL    H5917483   1.059   0.418   1.581 -1.4577  0.4540  1.1750
   73MOL    H6017484   1.394   0.589   1.787 -0.9522  0.3044  2.6100
   73MOL    H6117485   1.245   0.680   1.779  1.0894  0.8605 -0.9142
   73MOL    O6217486   1.426   0.808   1.660 -0.1817 -0.2183 -0.0526
   73MOL    C6317487   1.509   0.887   1.578  0.1917 -0.0757 -0.6966
   73MOL    C6417488   1.483   1.031   1.625  0.3290  0.0749  0.1805
   73MOL    C6517489   1.657   0.838   1.593  0.5261 -0.1653 -0.8706
   73MOL    C6617490   1.702   0.822   1.737  0.5606 -0.3986  0.4893
   73MOL    O6717491   1.771   0.728   1.775  0.3390  0.5131 -0.2824
   73MOL    H6817492   1.469   0.875   1.477 -2.3422  1.7512  0.0321
   73MOL    H6917493   1.559   1.100   1.587  0.5790  0.6583  1.7188
   73MOL    H7017494   1.473   1.037   1.733  0.2582  0.6970  0.1440
   73MOL    H7117495   1.387   1.065   1.587 -1.4762 -2.5236  2.2807
   73MOL    H7217496   1.718   0.917   1.549  1.0310 -0.3358 -0.4824
   73MOL    H7317497   1.677   0.751   1.530 -0.5752 -0.4617 -0.8188
   73MOL    O7417498   1.676   0.933   1.805  0.1376  0.1751 -0.1897
   73MOL    C7517499   1.696   0.940   1.947  0.0720 -1.1531  0.6909
   73MOL    C7617500   1.787   1.067   1.959 -0.7476  0.0447  0.2207
   73MOL    C7717501   1.565   0.962   2.015  0.1378 -0.0358  0.0498
   73MOL    C7817502   1.481   0.835   2.028 -0.0219  0.3213 -0.3563
   73MOL    O7917503   1.361   0.841   1.995 -0.1243 -0.5213  0.0683
   73MOL    H8017504   1.755   0.852   1.971  1.9618  0.1141  0.8391
   73MOL    H8117505   1.733   1.158   1.934  0.9874  0.8154 -0.8343
   73MOL    H8217506   1.876   1.052   1.899 -0.7674 -0.3659  0.2964
   73MOL    H8317507   1.820   1.082   2.062 -0.8689 -0.7955  0.3833
   73MOL    H8417508   1.510   1.043   1.968 -0.4809  0.4226  1.5104
   73MOL    H8517509   1.598   0.991   2.115 -1.2910  0.0857  0.5111
   73MOL    O8617510   1.540   0.735   2.085  0.5236  0.3167 -0.3198
   73MOL    C8717511   1.475   0.615   2.124  0.4547 -0.1654 -0.1077
   73MOL    C8817512   1.547   0.504   2.036 -0.2106 -0.0838  0.0931
   73MOL    C8917513   1.475   0.603   2.280 -0.0012 -0.2066  0.0393
   73MOL    C9017514   1.402   0.485   2.333 -0.8037  0.1760 -0.9259
   73MOL    O9117515   1.299   0.508   2.397 -0.1281  0.0682 -0.7419
   73MOL    H9217516   1.371   0.617   2.091  0.0522 -0.1392  1.1636
   73MOL    H9317517   1.649   0.485   2.067  0.5012 -0.6734 -2.4774
   73MOL    H9417518   1.544   0.517   1.928 -0.8815  0.7779  0.2076
   73MOL    H9517519   1.505   0.404   2.044  1.3961 -0.8562 -1.0013
   73MOL    H9617520   1.421   0.691   2.316  0.2119  0.0136 -0.1689
   73MOL    H9717521   1.568   0.616   2.336  0.2362  2.2860 -0.8516
   73MOL    O9817522   1.465   0.373   2.309 -0.2902 -0.4990  0.2604
   73MOL    C9917523   1.427   0.263   2.387  0.3040 -0.8109  0.1606
   73MOL   C10017524   1.376   0.142   2.306  0.2979  0.8387 -0.3189
   73MOL   C10117525   1.548   0.238   2.482  0.0682 -0.7998  0.4703
   73MOL   C10217526   1.523   0.110   2.555  0.3546 -0.1295 -0.6141
   73MOL   O10317527   1.569   0.002   2.525 -0.0962 -0.0056  0.1101
   73MOL   H10417528   1.339   0.283   2.448 -0.5057  1.9724 -1.8301
   73MOL   H10517529   1.299   0.172   2.235 -1.7730 -2.1294  0.5567
   73MOL   H10617530   1.331   0.071   2.375  0.3701  0.2725 -0.8463
   73MOL   H10717531   1.462   0.092   2.261 -1.2735  0.2890 -2.7905
   73MOL   H10817532   1.581   0.316   2.550  1.2051  0.0856 -1.0602
   73MOL   H10917533   1.635   0.232   2.416  0.8575  2.5023  1.1372
   73MOL   O11017534   1.450   0.122   2.664  0.2275  0.3063  0.8612
   73MOL   C11117535   1.391   0.007   2.726 -0.1014  0.2406  0.0648
   73MOL   C11217536   1.406   0.024   2.876 -0.8722  0.5382 -0.2244
   73MOL   C11317537   1.253   7.960   2.667 -0.6525 -0.8273  0.1235
   73MOL   C11417538   1.190   7.831   2.719 -0.7371  0.9573  1.3085
   73MOL   O11517539   1.259   7.741   2.764  0.0800 -0.2338 -0.1914
   73MOL   H11617540   1.443   7.892   2.714 -0.5573 -0.1160  0.9042
   73MOL   H11717541   1.512   0.017   2.899 -0.5053  0.5966 -1.8997
   73MOL   H11817542   1.359   7.923   2.933 -0.3515  0.6943  0.4320
   73MOL   H11917543   1.373   0.121   2.915  1.0901  0.9053  0.5794
   73MOL   H12017544   1.276   7.956   2.561  0.8381  2.5027  0.2471
   73MOL   H12117545   1.200   0.073   2.689 -0.4774 -0.2700 -1.7763
   73MOL   O12217546   1.061   7.827   2.704  0.0683  0.2894 -0.8826
   73MOL   C12317547   0.983   7.707   2.728 -0.2380 -0.5569  0.1047
   73MOL   C12417548   0.944   7.713   2.879 -0.0172 -0.1094 -0.1442
   73MOL   C12517549   0.862   7.693   2.634  0.4470 -0.2674  0.0017
   73MOL   C12617550   0.890   7.614   2.505 -0.0056 -0.0764  0.5399
   73MOL   O12717551   0.878   7.667   2.390  0.3599 -0.1069 -0.0178
   73MOL   H12817552   1.048   7.621   2.717  1.5742  0.9872 -1.7572
   73MOL   H12917553   1.031   7.704   2.944  1.5756  0.1167 -2.2005
   73MOL   H13017554   0.858   7.646   2.887 -0.0960  0.3115  3.1292
   73MOL   H13117555   0.903   7.811   2.903 -0.2689 -0.4811  0.9493
   73MOL   H13217556   0.816   7.789   2.615 -1.3940 -1.3620 -1.2468
   73MOL   H13317557   0.783   7.639   2.686 -1.3073  0.4916 -1.8278
   73MOL   O13417558   0.930   7.491   2.530 -0.5534  0.4866  0.1996
   73MOL   C13517559   0.977   7.406   2.429  0.4340  1.2136 -1.1323
   73MOL   C13617560   1.126   7.431   2.411  0.1135  0.2844 -0.5857
   73MOL   C13717561   0.946   7.256   2.458  1.0955 -0.2042 -0.0503
   73MOL   C13817562   0.949   7.167   2.338 -0.2548  0.7143  0.4521
   73MOL   O13917563   1.040   7.084   2.320 -0.1200 -0.3083 -0.8904
   73MOL   H14017564   0.934   7.435   2.333 -1.1995  1.9252 -0.2164
   73MOL   H14117565   1.189   7.384   2.486 -0.7546  0.0525  0.0078
   73MOL   H14217566   1.149   7.535   2.388  0.3538 -0.1419 -2.3726
   73MOL   H14317567   1.166   7.377   2.325 -1.7353 -0.5434 -0.9586
   73MOL   H14417568   0.843   7.253   2.493  0.7914  1.2754 -0.8055
   73MOL   H14517569   1.009   7.204   2.531 -0.4416 -2.4279 -0.2434
   73MOL   O14617570   0.835   7.174   2.260 -0.5833 -0.3191  0.0559
   73MOL   C14717571   0.828   7.102   2.134 -0.0108 -0.0459 -0.2753
   73MOL   C14817572   0.759   6.972   2.182 -1.1090 -0.5820  0.6575
   73MOL   C14917573   0.730   7.167   2.035  0.1856 -0.6901 -0.5514
   73MOL   C15017574   0.782   7.297   1.964  0.1912 -0.0098  0.1917
   73MOL   O15117575   0.825   7.301   1.849 -1.0026 -0.2701  0.1876
   73MOL   H15217576   0.927   7.089   2.090 -1.0881 -1.1903 -2.4386
   73MOL   H15317577   0.828   6.917   2.246  1.8284  2.2576  0.1085
   73MOL   H15417578   0.756   6.900   2.101 -1.5012  0.1845 -0.0147
   73MOL   H15517579   0.673   6.981   2.248 -3.3181  0.6907 -2.3132
   73MOL   H15617580   0.644   7.192   2.096  0.8738 -1.9138  0.9527
   73MOL   H15717581   0.710   7.097   1.953  0.2304 -0.5409 -0.6896
   73MOL   O15817582   0.774   7.402   2.056  0.3035  0.0521 -0.0905
   73MOL   C15917583   0.805   7.536   2.011  0.3365 -0.2327  0.5131
   73MOL   C16017584   0.698   7.629   2.078 -1.1339 -0.1196 -0.6598
   73MOL   C16117585   0.948   7.591   2.051 -0.2317  0.3244  0.4325
   73MOL   C16217586   1.061   7.526   1.973  0.1179 -0.1031 -0.3560
   73MOL   O16317587   1.128   7.436   2.027 -0.4268  0.8011 -0.0253
   73MOL   H16417588   0.787   7.548   1.904  0.9123 -0.7300  0.3565
   73MOL   H16517589   0.703   7.603   2.184  0.7176 -2.5420 -1.2769
   73MOL   H16617590   0.596   7.621   2.042 -0.4562  0.2473 -2.7361
   73MOL   H16717591   0.732   7.732   2.072  0.6971 -0.6684 -0.0826
   73MOL   H16817592   0.953   7.590   2.159  0.5253 -0.1097  0.4010
   73MOL   H16917593   0.965   7.694   2.018 -0.7655 -0.2867 -1.8398
   73MOL   O17017594   1.082   7.574   1.853 -0.3321  0.2211 -0.1652
   73MOL   C17117595   1.166   7.511   1.758 -0.9244  0.1969  0.4833
   73MOL   C17217596   1.086   7.467   1.637  0.5970  0.1279  0.2304
   73MOL   C17317597   1.276   7.610   1.724  0.4986 -0.1849 -0.2313
   73MOL   C17417598   1.388   7.611   1.825  0.4632 -0.0959  0.9059
   73MOL   O17517599   1.501   7.573   1.808  0.5430  0.2666  0.1242
   73MOL   H17617600   1.218   7.422   1.796  1.3023  0.0936 -2.5810
   73MOL   H17717601   1.003   7.406   1.672  1.0161 -0.3906  0.3328
   73MOL   H17817602   1.151   7.403   1.578  0.4701  0.8707 -0.7269
   73MOL   H17917603   1.035   7.544   1.579 -1.2260 -0.7934  0.5857
   73MOL   H18017604   1.243   7.713   1.715 -1.9252 -0.8561  0.4469
   73MOL   H18117605   1.324   7.577   1.632  1.6232  0.2603  0.1882
   73MOL   O18217606   1.339   7.671   1.938 -0.0656 -0.2679  0.2645
   73MOL   C18317607   1.412   7.683   2.057  0.5561  0.0554 -0.2692
   73MOL   C18417608   1.488   7.814   2.060  0.1311  0.3130  0.0112
   73MOL   C18517609   1.310   7.684   2.174  0.9207 -0.3065  0.0836
   73MOL   C18617610   1.363   7.708   2.311 -0.0575  0.6621  0.2991
   73MOL   O18717611   1.324   7.800   2.384 -0.5722 -0.5561 -0.0770
   73MOL   H18817612   1.481   7.600   2.070  0.0660 -0.8486 -3.2495
   73MOL   H18917613   1.421   7.897   2.040  0.3508  0.3022 -0.7951
   73MOL   H19017614   1.551   7.823   1.971  1.6776  2.3959  1.2667
   73MOL   H19117615   1.544   7.836   2.151  1.2210  0.1380 -0.6052
   73MOL   H19217616   1.264   7.585   2.177  0.9822 -0.4000 -1.4307
   73MOL   H19317617   1.234   7.759   2.156 -0.7468 -2.5440 -2.6394
   73MOL   O19417618   1.440   7.614   2.343 -0.3216 -0.0567 -0.3788
   73MOL   C19517619   1.516   7.619   2.468 -0.5086  0.3564 -0.8088
   73MOL   C19617620   1.443   7.549   2.582  0.3632 -0.4581 -0.2079
   73MOL   C19717621   1.662   7.564   2.450 -0.6276  0.2117  0.4052
   73MOL   C19817622   1.770   7.645   2.528  0.1620  0.4757 -0.2584
   73MOL   O19917623   1.849   7.716   2.475  0.2261 -0.0367 -0.0824
   73MOL   H20017624   1.515   7.717   2.517 -2.9098  0.5781 -1.2226
   73MOL   H20117625   1.338   7.579   2.575  0.5048 -0.0139 -0.4557
   73MOL   H20217626   1.474   7.585   2.681 -0.4158 -0.6675  0.1124
   73MOL   H20317627   1.447   7.440   2.578 -0.2412 -0.4336 -1.8260
   73MOL   H20417628   1.695   7.587   2.348  0.7399 -0.8600  0.5968
   73MOL   H20517629   1.677   7.457   2.463  0.2740  0.1743 -0.8840
   73MOL   O20617630   1.750   7.640   2.660 -0.1700 -0.0443  0.3411
   73MOL   C20717631   1.826   7.720   2.751  0.8064 -0.2881 -0.4381
   73MOL   C20817632   1.737   7.836   2.800 -0.7080 -0.0896 -0.4759
   73MOL   C20917633   1.889   7.626   2.851  0.2520  0.3088 -0.0979
   73MOL   C21017634   1.957   7.694   2.972 -0.5726  0.0431  0.3908
   73MOL   O21117635   1.916   7.680   3.090 -0.2153  0.2116  0.1923
   73MOL   H21217636   1.913   7.761   2.699  1.6775 -1.5897 -0.0100
   73MOL   H21317637   1.794   7.910   2.856 -0.3026 -1.1312  0.5228
   73MOL   H21417638   1.666   7.775   2.856  0.3802 -1.9715 -1.0907
   73MOL   H21517639   1.677   7.879   2.720 -1.9352  0.1981  0.5922
   73MOL   H21617640   1.971   7.570   2.807  0.1543  1.3395 -1.6091
   73MOL   H21717641   1.818   7.548   2.877  0.5580 -0.1168 -0.5364
   73MOL   O21817642   2.069   7.752   2.936  0.4579  0.1228  0.3092
   73MOL   C21917643   2.141   7.832   3.030 -0.0182 -0.3802 -0.3257
   73MOL   C22017644   2.282   7.771   3.042 -0.1471  0.3669  0.2812
   73MOL   C22117645   2.163   0.001   2.992  0.0399  0.0996  1.0838
   73MOL   C22217646   2.048   0.091   3.029  0.2032  0.7176 -0.2411
   73MOL   O22317647   2.001   0.175   2.951  0.0666  0.7293 -0.1368
   73MOL   H22417648   2.101   7.832   3.132 -1.3534 -1.5966 -0.8462
   73MOL   H22517649   2.277   7.680   3.102 -0.2196  1.8409  2.5473
   73MOL   H22617650   2.355   7.830   3.096  0.7184 -0.6432  0.2375
   73MOL   H22717651   2.339   7.759   2.950 -0.9761  1.8276 -0.4417
   73MOL   H22817652   2.160   0.016   2.884  0.2982  1.2004  1.2199
   73MOL   H22917653   2.255   0.046   3.029 -0.5560  1.5610  0.8326
   73MOL   O23017654   2.001   0.062   3.152  0.0247 -0.2756 -0.4498
   73MOL   C23117655   1.883   0.120   3.210 -0.1612 -0.3946 -0.4207
   73MOL   C23217656   1.753   0.040   3.182  0.6222  0.4917 -0.1702
   73MOL   C23317657   1.914   0.158   3.359  0.4001  0.1836 -0.1198
   73MOL   C23417658   1.917   0.041   3.457  0.1793 -0.1849 -0.0913
   73MOL   O23517659   1.969   0.052   3.566  0.2329 -0.1996  0.1500
   73MOL   H23617660   1.870   0.218   3.165  1.1036 -0.7533 -1.6136
   73MOL   H23717661   1.665   0.102   3.199 -0.0944 -1.1487  2.4305
   73MOL   H23817662   1.759   7.925   3.235  1.8415  0.5422 -0.1873
   73MOL   H23917663   1.751   0.008   3.078  0.4217 -1.3962  0.3872
   73MOL   H24017664   1.834   0.223   3.393  2.6300  2.3397  1.1510
   73MOL   H24117665   2.012   0.204   3.368  0.2202  0.6687 -0.5623
   73MOL   H24217666   1.864   7.930   3.429 -0.8799  0.3891 -0.0099
   74MOL     O117667   3.922   2.503   1.015  0.7711  0.4712  0.3408
   74MOL     C217668   3.917   2.366   0.968 -0.8449 -0.4793 -0.0639
   74MOL     C317669   3.865   2.280   1.085  0.9530  0.7025  0.1275
   74MOL     C417670   3.826   2.352   0.846 -0.8834  0.7161  0.9327
   74MOL     C517671   3.872   2.227   0.770  0.1483  0.2559 -0.2167
   74MOL     O617672   3.784   2.143   0.737  0.5006 -0.1415 -0.0797
   74MOL     H717673   4.018   2.335   0.942  0.3460  0.4029  3.2236
   74MOL     H817674   3.889   2.176   1.063  2.1352  1.2450 -1.2500
   74MOL     H917675   3.766   2.301   1.124  0.5774 -0.9689  0.1262
   74MOL    H1017676   3.935   2.296   1.168  1.1514  3.2765 -0.4811
   74MOL    H1117677   3.836   2.432   0.772  1.9251 -0.8508 -0.4638
   74MOL    H1217678   3.720   2.353   0.871 -1.3467 -0.8699 -0.8275
   74MOL    H1317679   3.854   2.524   1.077  0.7386  2.8433 -0.4707
   74MOL    O1417680   4.001   2.214   0.739  0.1409 -0.2158 -0.1405
   74MOL    C1517681   4.055   2.101   0.673  0.2281  0.1962 -0.0009
   74MOL    C1617682   4.122   2.142   0.537  0.6258 -0.6479 -0.1761
   74MOL    C1717683   4.157   2.032   0.771  0.0508  0.2804  0.0571
   74MOL    C1817684   4.088   1.921   0.850 -0.4455  0.0307 -0.1069
   74MOL    O1917685   4.088   1.917   0.975 -0.1562 -0.1059  0.0372
   74MOL    H2017686   3.983   2.028   0.638  2.3863 -2.7891  1.5244
   74MOL    H2117687   4.159   2.060   0.476  0.3146 -0.2337 -0.9336
   74MOL    H2217688   4.210   2.189   0.581  0.4620 -0.9573  0.4904
   74MOL    H2317689   4.057   2.194   0.467  0.6092 -2.3083 -1.4394
   74MOL    H2417690   4.203   2.107   0.835  1.9088  0.5025 -1.5194
   74MOL    H2517691   4.230   1.980   0.710 -1.1455 -1.3602 -0.0221
   74MOL    O2617692   4.037   1.823   0.767 -0.1224  0.2128 -0.1305
   74MOL    C2717693   3.999   1.706   0.830  0.5765  0.0474 -0.2919
   74MOL    C2817694   3.852   1.732   0.879 -0.0627 -0.5304 -0.2443
   74MOL    C2917695   4.021   1.582   0.753 -0.4820 -0.1033 -0.5953
   74MOL    C3017696   4.163   1.526   0.758 -0.5154  0.1302 -0.1052
   74MOL    O3117697   4.188   1.434   0.832  0.0640  0.0988 -0.5807
   74MOL    H3217698   4.055   1.689   0.922 -0.7895  1.4741  0.8466
   74MOL    H3317699   3.844   1.817   0.948  2.3138  0.3897 -1.0594
   74MOL    H3417700   3.823   1.642   0.934  1.7435 -0.4714  0.8267
   74MOL    H3517701   3.776   1.736   0.801 -0.3588 -2.3651 -0.0566
   74MOL    H3617702   3.989   1.606   0.652 -1.3071  1.4432  0.0127
   74MOL    H3717703   3.948   1.510   0.792 -0.2850  0.8266  1.5413
   74MOL    O3817704   4.244   1.598   0.676  0.3730  0.0751  0.1510
   74MOL    C3917705   4.381   1.557   0.679 -0.7008  0.1892  0.0682
   74MOL    C4017706   4.400   1.437   0.581 -0.0553  0.0240  0.2192
   74MOL    C4117707   4.468   1.681   0.646 -1.1166  0.1989  0.7411
   74MOL    C4217708   4.620   1.669   0.644 -0.0230 -0.5081  0.2780
   74MOL    O4317709   4.689   1.732   0.717  0.4393 -0.0140 -0.4147
   74MOL    H4417710   4.414   1.521   0.777  2.2380 -0.5584 -1.1581
   74MOL    H4517711   4.503   1.403   0.568  0.5053  0.5415  3.0231
   74MOL    H4617712   4.373   1.484   0.487  0.5961 -0.7484 -0.3661
   74MOL    H4717713   4.331   1.358   0.611 -0.8988  0.7034  0.0826
   74MOL    H4817714   4.439   1.767   0.706 -1.6527  1.1575 -0.8559
   74MOL    H4917715   4.427   1.705   0.548 -2.5828  0.2423  1.3443
   74MOL    O5017716   4.660   1.581   0.546 -0.3286 -0.7450  0.0953
   74MOL    C5117717   4.800   1.550   0.545 -0.1999  0.0921  1.3214
   74MOL    C5217718   4.813   1.408   0.486  0.5264  0.8354 -0.3055
   74MOL    C5317719   4.862   1.655   0.451  0.0519  0.8718  0.5096
   74MOL    C5417720   5.011   1.665   0.474  0.0350  0.1971  0.0818
   74MOL    O5517721   5.094   1.653   0.388 -0.6265 -1.1187  0.0891
   74MOL    H5617722   4.838   1.550   0.647 -2.5153  1.8835  2.2277
   74MOL    H5717723   4.917   1.376   0.475  0.3548 -0.2124  0.9098
   74MOL    H5817724   4.763   1.403   0.390 -0.9426  1.2830  0.4217
   74MOL    H5917725   4.762   1.340   0.555  1.3544 -0.3221 -0.8127
   74MOL    H6017726   4.816   1.750   0.475  3.4209  2.8317 -0.5531
   74MOL    H6117727   4.835   1.632   0.348  0.3324 -1.9950  1.0161
   74MOL    O6217728   5.037   1.685   0.613 -0.1740  0.4789 -0.1715
   74MOL    C6317729   5.168   1.715   0.664  0.9860 -0.8419 -0.1615
   74MOL    C6417730   5.197   1.862   0.642 -0.6264 -0.1245 -0.5818
   74MOL    C6517731   5.181   1.662   0.806  0.2031  0.3223 -0.1300
   74MOL    C6617732   5.315   1.596   0.834 -0.2762 -0.4156 -0.5978
   74MOL    O6717733   5.339   1.476   0.810 -0.3590 -0.0555  0.0769
   74MOL    H6817734   5.231   1.655   0.597  0.2701  1.0568 -2.6327
   74MOL    H6917735   5.218   1.879   0.536  1.8051  1.7706  0.1553
   74MOL    H7017736   5.284   1.904   0.692 -0.4077  0.5068 -1.4627
   74MOL    H7117737   5.110   1.916   0.677 -0.5113 -0.3193  0.0106
   74MOL    H7217738   5.112   1.578   0.816  1.0564 -0.5901 -1.7497
   74MOL    H7317739   5.172   1.739   0.883  1.1105  0.8234 -0.5091
   74MOL    O7417740   5.402   1.680   0.887  0.5024 -0.1737  0.2154
   74MOL    C7517741   5.520   1.626   0.953  0.0018 -0.3347 -0.2575
   74MOL    C7617742   5.638   1.618   0.862 -0.4418 -0.7226  0.2194
   74MOL    C7717743   5.534   1.725   1.073 -0.2109  0.0334 -0.6991
   74MOL    C7817744   5.649   1.696   1.166 -0.9130  0.5617  0.6404
   74MOL    O7917745   5.751   1.767   1.168 -0.0930  0.2085  0.6550
   74MOL    H8017746   5.499   1.525   0.988  2.0471 -1.2779 -1.6180
   74MOL    H8117747   5.733   1.594   0.909 -0.8676 -0.9531  0.9529
   74MOL    H8217748   5.659   1.719   0.825 -2.0668  0.5836  2.7196
   74MOL    H8317749   5.625   1.552   0.776 -0.5037  1.0528 -1.1709
   74MOL    H8417750   5.443   1.733   1.132 -0.4064 -1.0532 -0.8449
   74MOL    H8517751   5.549   1.820   1.023 -1.4288  1.3166  1.3055
   74MOL    O8617752   5.621   1.602   1.252  0.5586 -0.2516  0.1248
   74MOL    C8717753   5.710   1.557   1.349  0.4503 -0.3297  0.3194
   74MOL    C8817754   5.614   1.533   1.461 -0.1623  0.5233  0.7400
   74MOL    C8917755   5.790   1.438   1.290 -0.5253  0.3406 -0.1121
   74MOL    C9017756   5.906   1.470   1.198  0.5295 -0.9478 -0.2762
   74MOL    O9117757   5.898   1.458   1.075  0.2618  0.3900 -0.2451
   74MOL    H9217758   5.782   1.635   1.373  0.2035  0.2241 -0.6955
   74MOL    H9317759   5.664   1.492   1.549  1.6517  1.2494  0.0922
   74MOL    H9417760   5.535   1.469   1.422  0.0064 -0.0800  1.3804
   74MOL    H9517761   5.566   1.624   1.496 -0.0357  1.3319 -1.1417
   74MOL    H9617762   5.717   1.374   1.241  0.2545  0.1354 -1.0218
   74MOL    H9717763   5.830   1.378   1.372 -0.8575  0.3006  0.0235
   74MOL    O9817764   6.003   1.531   1.261  0.0931 -0.6088 -0.0931
   74MOL    C9917765   6.106   1.588   1.184 -0.0284 -0.1196  0.8101
   74MOL   C10017766   6.150   1.709   1.271 -0.2382 -0.9992 -0.0910
   74MOL   C10117767   6.218   1.477   1.163  0.1313  0.4693 -0.2290
   74MOL   C10217768   6.329   1.540   1.087 -0.2710  0.0304 -0.0413
   74MOL   O10317769   6.442   1.578   1.135  0.1397  0.2047  0.0608
   74MOL   H10417770   6.058   1.627   1.094  0.4376  1.3026  1.1483
   74MOL   H10517771   6.056   1.763   1.285 -0.3327 -0.8115 -1.4138
   74MOL   H10617772   6.216   1.774   1.214 -1.3898 -1.7208 -2.2941
   74MOL   H10717773   6.183   1.678   1.371 -3.1772 -0.8083  0.9906
   74MOL   H10817774   6.179   1.395   1.103  0.9673 -0.9933  1.1941
   74MOL   H10917775   6.261   1.443   1.257  1.9520  0.1412 -1.1540
   74MOL   O11017776   6.298   1.533   0.957  0.0200 -0.6631 -0.1174
   74MOL   C11117777   6.400   1.561   0.857  0.5115  0.2638 -0.3210
   74MOL   C11217778   6.371   1.450   0.752 -0.2539  0.3698  0.2744
   74MOL   C11317779   6.366   1.704   0.814  0.3443  0.5875  0.1922
   74MOL   C11417780   6.473   1.762   0.720  0.7115 -0.7583 -0.0223
   74MOL   O11517781   6.593   1.754   0.734 -0.4092  0.2727  0.1493
   74MOL   H11617782   6.501   1.544   0.894 -0.0774 -0.5199  0.9152
   74MOL   H11717783   6.379   1.347   0.788  0.2876  0.7719  1.3325
   74MOL   H11817784   6.440   1.457   0.668  0.2078  0.5940  0.6697
   74MOL   H11917785   6.269   1.454   0.713  0.0452 -1.4779 -0.7872
   74MOL   H12017786   6.368   1.770   0.900 -3.0250  0.4412  0.4584
   74MOL   H12117787   6.270   1.702   0.762  0.4018 -1.5241  0.1023
   74MOL   O12217788   6.422   1.841   0.629  0.1896 -0.1229  0.6080
   74MOL   C12317789   6.511   1.943   0.573  0.4755  0.6341  0.1486
   74MOL   C12417790   6.543   1.905   0.423 -0.0198 -0.2836 -0.1717
   74MOL   C12517791   6.422   2.068   0.579 -0.0297 -0.2695  0.5333
   74MOL   C12617792   6.487   2.203   0.540 -0.2002 -0.5060 -0.2792
   74MOL   O12717793   6.433   2.277   0.458 -0.2892  0.4604  0.6349
   74MOL   H12817794   6.598   1.959   0.636  1.0397 -0.0090 -0.4490
   74MOL   H12917795   6.453   1.898   0.363 -0.7163  0.8828  0.7088
   74MOL   H13017796   6.589   1.806   0.419 -1.6074 -1.0551  0.3267
   74MOL   H13117797   6.610   1.985   0.392 -3.2812  3.0709  1.0155
   74MOL   H13217798   6.381   2.077   0.680 -1.0996 -0.5764  0.1339
   74MOL   H13317799   6.337   2.054   0.512 -0.5155  2.1639  0.5734
   74MOL   O13417800   6.602   2.232   0.599  0.5903 -0.5039 -0.0323
   74MOL   C13517801   6.668   2.350   0.557 -0.4519  0.3390 -0.3293
   74MOL   C13617802   6.748   2.407   0.676  0.0038  0.0340 -0.8536
   74MOL   C13717803   6.753   2.328   0.427 -0.0899 -0.0525 -0.2080
   74MOL   C13817804   6.834   2.448   0.392 -0.5902  0.4252  0.0406
   74MOL   O13917805   6.958   2.452   0.410 -0.5816 -0.5423  0.4112
   74MOL   H14017806   6.589   2.423   0.536  0.0949  1.4683  1.4522
   74MOL   H14117807   6.813   2.493   0.659  1.2725 -0.9086 -0.8065
   74MOL   H14217808   6.824   2.333   0.701 -0.4940  0.1873  1.2381
   74MOL   H14317809   6.685   2.416   0.765 -0.7597 -3.5260 -0.9760
   74MOL   H14417810   6.707   2.294   0.334  1.0415  0.0480 -0.8047
   74MOL   H14517811   6.832   2.254   0.442  0.2617  0.0708 -1.3933
   74MOL   O14617812   6.756   2.546   0.353  0.2605 -0.6729  0.2960
   74MOL   C14717813   6.805   2.670   0.305 -0.3629 -0.1022 -0.3320
   74MOL   C14817814   6.766   2.695   0.160 -0.3597  0.6118  0.0513
   74MOL   C14917815   6.744   2.781   0.396  0.6407 -0.8115 -0.8067
   74MOL   C15017816   6.790   2.784   0.537 -0.5423  0.3229 -0.5323
   74MOL   O15117817   6.713   2.787   0.631  0.1117  0.4078  0.1242
   74MOL   H15217818   6.913   2.658   0.316 -0.1299  1.2863 -1.0575
   74MOL   H15317819   6.794   2.789   0.113  1.8383 -0.2639 -0.4777
   74MOL   H15417820   6.657   2.695   0.157 -0.4049  1.2517  1.3459
   74MOL   H15517821   6.813   2.625   0.090 -0.3148 -1.0393  1.6991
   74MOL   H15617822   6.635   2.786   0.400  0.7512  1.1624  0.1548
   74MOL   H15717823   6.755   2.883   0.361 -0.2132 -0.0881  0.9686
   74MOL   O15817824   6.921   2.796   0.553  0.2197 -0.1233  0.8028
   74MOL   C15917825   6.992   2.772   0.677 -0.1439 -0.1838 -0.3302
   74MOL   C16017826   7.083   2.643   0.680 -0.1283 -0.3443 -0.3304
   74MOL   C16117827   7.080   2.900   0.700 -0.1876  0.5041 -0.2788
   74MOL   C16217828   6.995   3.022   0.742 -0.0759  0.8140 -0.0088
   74MOL   O16317829   6.995   3.122   0.670 -0.0110 -0.3222 -0.1168
   74MOL   H16417830   6.921   2.765   0.760 -0.4417  1.2674 -0.4585
   74MOL   H16517831   7.157   2.646   0.601  0.4523  1.7889  0.2511
   74MOL   H16617832   7.034   2.546   0.678  0.9819 -0.9119 -0.2911
   74MOL   H16717833   7.134   2.634   0.776 -1.3440 -2.6193  0.1388
   74MOL   H16817834   7.131   2.926   0.607 -1.5074 -1.8794 -1.7181
   74MOL   H16917835   7.158   2.876   0.772 -0.9833 -0.1098  0.3891
   74MOL   O17017836   6.922   2.999   0.845  0.3723 -0.3679  0.0809
   74MOL   C17117837   6.826   3.103   0.892 -0.4833  0.4826 -0.3942
   74MOL   C17217838   6.715   3.014   0.949  0.7074  0.5194  0.0330
   74MOL   C17317839   6.889   3.187   0.996 -0.2358  0.4511 -0.4510
   74MOL   C17417840   6.819   3.320   1.015 -0.5242 -0.2125  0.4548
   74MOL   O17517841   6.720   3.328   1.088  0.3601  0.3492 -0.2571
   74MOL   H17617842   6.795   3.169   0.811  1.2650  1.5879 -0.1752
   74MOL   H17717843   6.763   2.957   1.029  1.9988  2.2111  0.4986
   74MOL   H17817844   6.685   2.933   0.883  0.0060 -0.9237  2.0817
   74MOL   H17917845   6.626   3.068   0.980  0.1521 -0.0574 -0.5441
   74MOL   H18017846   6.985   3.210   0.950  0.0005 -0.0774 -0.2161
   74MOL   H18117847   6.893   3.132   1.090 -0.4755  2.7985  0.9601
   74MOL   O18217848   6.872   3.419   0.948 -0.1188 -0.5745  0.3744
   74MOL   C18317849   6.809   3.551   0.947 -0.4518 -0.0603 -0.3829
   74MOL   C18417850   6.876   3.625   1.057 -0.7434 -0.3591 -0.7438
   74MOL   C18517851   6.803   3.623   0.813  0.4330  0.0879 -0.4826
   74MOL   C18617852   6.932   3.655   0.742  0.2260  0.8525  0.8815
   74MOL   O18717853   6.983   3.574   0.661  0.0707  0.2027 -0.5581
   74MOL   H18817854   6.705   3.540   0.978 -0.6847  2.0255 -0.3821
   74MOL   H18917855   6.867   3.569   1.150 -1.5867  0.8445 -0.0977
   74MOL   H19017856   6.827   3.721   1.070 -0.5455 -0.0994 -1.8914
   74MOL   H19117857   6.980   3.644   1.032 -0.8896  0.6700 -0.5669
   74MOL   H19217858   6.744   3.714   0.825 -0.8414 -0.8881  0.9865
   74MOL   H19317859   6.740   3.551   0.759 -1.3864  1.2747  0.0119
   74MOL   O19417860   6.980   3.772   0.778  0.1908 -0.4381 -0.0107
   74MOL   C19517861   7.117   3.800   0.731  0.8181  0.2946 -0.8030
   74MOL   C19617862   7.103   3.874   0.594 -0.2316  0.3624 -0.2299
   74MOL   C19717863   7.197   3.885   0.838  0.2812  0.2565 -0.2044
   74MOL   C19817864   7.279   3.800   0.939  0.5232  0.0773 -0.0601
   74MOL   O19917865   7.316   3.683   0.913 -0.1213 -0.2113  0.1192
   74MOL   H20017866   7.171   3.707   0.719  0.7740  0.2171 -0.3786
   74MOL   H20117867   7.042   3.823   0.520 -2.0843 -1.8911  2.7113
   74MOL   H20217868   7.197   3.895   0.543 -0.2509  0.2092 -0.3284
   74MOL   H20317869   7.052   3.969   0.608 -0.0056  0.5475 -0.6475
   74MOL   H20417870   7.129   3.933   0.909 -0.4468 -2.6443  1.1224
   74MOL   H20517871   7.265   3.962   0.803 -1.0022  2.5580  2.2017
   74MOL   O20617872   7.308   3.866   1.052  0.3857  0.0578 -0.3261
   74MOL   C20717873   7.375   3.805   1.158 -0.3638 -0.4321  0.6147
   74MOL   C20817874   7.512   3.863   1.186 -0.2933 -0.6171 -0.2028
   74MOL   C20917875   7.296   3.821   1.291  0.7242 -0.5086  0.5867
   74MOL   C21017876   7.172   3.732   1.302 -0.7448 -0.0373 -0.3503
   74MOL   O21117877   7.060   3.780   1.267 -0.2207  0.0627  0.2460
   74MOL   H21217878   7.380   3.698   1.141  1.9143 -0.0573 -1.2980
   74MOL   H21317879   7.585   3.848   1.106 -0.6902 -0.7613 -0.5380
   74MOL   H21417880   7.551   3.804   1.269  0.6467  0.3948  0.0938
   74MOL   H21517881   7.508   3.970   1.207  0.2686 -0.4063 -1.0955
   74MOL   H21617882   7.267   3.919   1.329  1.1119  0.5434 -1.7536
   74MOL   H21717883   7.359   3.776   1.368 -1.8800  0.1852  3.2574
   74MOL   O21817884   7.196   3.617   1.367  0.0679  0.2409 -0.3442
   74MOL   C21917885   7.089   3.521   1.374  0.1019  0.0000  0.4108
   74MOL   C22017886   7.111   3.421   1.258 -0.0075 -0.6145 -0.2213
   74MOL   C22117887   7.083   3.448   1.510 -0.3095 -0.4789 -0.6989
   74MOL   C22217888   7.043   3.535   1.631 -0.2368  0.0018 -0.0855
   74MOL   O22317889   6.963   3.494   1.715  0.1758 -0.3075  0.2145
   74MOL   H22417890   6.993   3.572   1.372  1.1847  2.0696 -1.7514
   74MOL   H22517891   7.030   3.350   1.244 -0.6989 -0.1557  1.2520
   74MOL   H22617892   7.206   3.368   1.267  0.7944  1.0842  1.9307
   74MOL   H22717893   7.122   3.473   1.163  0.7440 -1.9286 -0.8691
   74MOL   H22817894   7.180   3.410   1.542 -0.1854  0.9493  0.6650
   74MOL   H22917895   7.024   3.356   1.503  0.6863 -1.1117 -0.8029
   74MOL   O23017896   7.105   3.647   1.638  0.2180  0.1616  0.5719
   74MOL   C23117897   7.079   3.748   1.736 -0.5900 -0.0705 -0.5735
   74MOL   C23217898   7.139   3.702   1.872 -0.3888 -0.3674 -0.0177
   74MOL   C23317899   7.150   3.876   1.679  0.4120 -0.2078 -0.2484
   74MOL   C23417900   7.303   3.869   1.647 -0.3688  0.3658  0.6752
   74MOL   O23517901   7.356   3.957   1.578 -0.0263 -0.3280  0.3135
   74MOL   H23617902   6.973   3.775   1.741 -0.5523 -0.1818  0.9522
   74MOL   H23717903   7.246   3.686   1.888  0.6652  2.2975 -3.7971
   74MOL   H23817904   7.089   3.612   1.907 -0.0667 -0.1555  1.0331
   74MOL   H23917905   7.116   3.781   1.944 -1.2946 -0.6450  0.0044
   74MOL   H24017906   7.135   3.964   1.743  0.5583  0.8076 -1.5899
   74MOL   H24117907   7.100   3.908   1.588  1.8180  0.3927 -0.8328
   74MOL   H24217908   7.364   3.794   1.697  0.3801  1.1661  0.9771
   75MOL     O117909   7.244   7.758   5.676  0.1782 -0.2728 -0.1149
   75MOL     C217910   7.135   7.784   5.586  0.3268  0.4727 -0.5474
   75MOL     C317911   7.173   7.715   5.448 -0.7508 -0.3008 -0.1767
   75MOL     C417912   7.006   7.726   5.646 -0.1822 -0.3851  0.4954
   75MOL     C517913   6.881   7.766   5.563 -0.0771 -0.1254  0.0300
   75MOL     O617914   6.843   7.701   5.469 -0.5848 -0.1162  0.0857
   75MOL     H717915   7.124   7.892   5.576  0.6204  0.5558  0.0198
   75MOL     H817916   7.278   7.688   5.434 -0.3033  0.7759  0.9550
   75MOL     H917917   7.132   7.784   5.375 -0.0321  1.3332  0.9282
   75MOL    H1017918   7.127   7.616   5.438 -0.9026 -0.4657  1.8284
   75MOL    H1117919   6.982   7.764   5.746  0.0905 -0.0066  0.4178
   75MOL    H1217920   7.014   7.618   5.656  0.7837 -0.4477 -0.9457
   75MOL    H1317921   7.314   7.817   5.653  0.2131 -0.7897 -1.3834
   75MOL    O1417922   6.830   7.883   5.603  0.9738 -0.3242  0.1828
   75MOL    C1517923   6.733   7.958   5.512 -0.1700  0.3500 -0.1318
   75MOL    C1617924   6.641   0.056   5.607 -0.4611  0.5708  0.3581
   75MOL    C1717925   6.812   0.071   5.413  0.1528  0.5549 -0.0825
   75MOL    C1817926   6.750   0.074   5.274 -0.5427 -0.4574  0.0272
   75MOL    O1917927   6.641   0.027   5.254 -0.3007  0.3062  0.0630
   75MOL    H2017928   6.683   7.873   5.466  1.2897 -0.0109 -1.0949
   75MOL    H2117929   6.590   7.963   5.670 -0.4920  1.6779  1.6299
   75MOL    H2217930   6.582   0.131   5.556 -0.8653  0.6414  0.9324
   75MOL    H2317931   6.694   0.114   5.682  0.8256 -2.3640  1.8131
   75MOL    H2417932   6.915   0.035   5.412  0.6391  1.9203  0.6322
   75MOL    H2517933   6.815   0.170   5.459  0.9687  0.8283 -0.7274
   75MOL    O2617934   6.833   0.136   5.185 -0.4103  0.3288 -0.6043
   75MOL    C2717935   6.792   0.141   5.047 -0.3384 -0.1413 -0.1022
   75MOL    C2817936   6.791   0.286   5.001 -0.3781  0.3339 -0.1836
   75MOL    C2917937   6.909   0.074   4.974  0.3547 -0.4654  0.1664
   75MOL    C3017938   6.883   0.042   4.831  0.5609 -0.3891  0.0949
   75MOL    O3117939   6.956   0.085   4.740  0.5475 -0.4110 -0.5452
   75MOL    H3217940   6.695   0.091   5.034 -0.7859  0.1108  2.1186
   75MOL    H3317941   6.724   0.337   5.070  0.4772  0.3960  0.6217
   75MOL    H3417942   6.756   0.311   4.901  1.9116 -2.0841 -1.6461
   75MOL    H3517943   6.886   0.336   5.022 -0.1130 -0.8737  1.6272
   75MOL    H3617944   6.919   7.964   5.035 -1.0762 -0.8024 -0.0882
   75MOL    H3717945   7.000   0.133   4.985  2.2461 -3.5229  1.8003
   75MOL    O3817946   6.767   7.954   4.809  0.0593 -0.1038  0.0970
   75MOL    C3917947   6.725   7.903   4.681 -0.1568  0.1990 -0.3691
   75MOL    C4017948   6.689   7.760   4.705  0.8770  0.3810 -0.3384
   75MOL    C4117949   6.602   0.005   4.635  0.8401 -0.7084  0.3606
   75MOL    C4217950   6.634   0.144   4.580 -0.4327 -0.1350  0.4713
   75MOL    O4317951   6.668   0.240   4.651  0.2716 -0.7295  0.1037
   75MOL    H4417952   6.811   7.918   4.616  0.2346 -1.4227 -0.2281
   75MOL    H4517953   6.653   7.715   4.612 -0.2275  0.7607 -0.1062
   75MOL    H4617954   6.609   7.776   4.778  3.1575  0.7416  2.1591
   75MOL    H4717955   6.767   7.696   4.746  1.1651  1.1116  0.2630
   75MOL    H4817956   6.524   0.011   4.711 -1.0420  1.6058 -1.6741
   75MOL    H4917957   6.557   7.930   4.552 -0.7310  2.0475 -0.6841
   75MOL    O5017958   6.582   0.153   4.451 -0.2643 -0.1265 -0.2692
   75MOL    C5117959   6.614   0.268   4.375  0.2859 -0.1009 -0.7958
   75MOL    C5217960   6.629   0.223   4.232 -0.1517 -0.2537  0.3208
   75MOL    C5317961   6.516   0.385   4.400 -0.3246  0.5219 -0.0164
   75MOL    C5417962   6.578   0.523   4.390 -0.3333  0.2900  0.1521
   75MOL    O5517963   6.669   0.547   4.313 -0.5463  0.5939  0.3219
   75MOL    H5617964   6.710   0.305   4.412 -1.0071  1.2410  1.3369
   75MOL    H5717965   6.542   0.167   4.197 -0.8642  1.0084  0.0402
   75MOL    H5817966   6.720   0.164   4.216 -1.6184 -2.7643  0.9147
   75MOL    H5917967   6.652   0.316   4.180  2.0621  0.7072  2.9068
   75MOL    H6017968   6.467   0.388   4.496 -0.4696  1.9374 -0.1242
   75MOL    H6117969   6.433   0.372   4.330 -1.0191 -0.3847  0.9684
   75MOL    O6217970   6.522   0.609   4.478 -0.1604  0.0347  0.1938
   75MOL    C6317971   6.566   0.749   4.487 -0.2103  0.2959  0.1060
   75MOL    C6417972   6.447   0.841   4.512  0.6551  0.1539 -0.2043
   75MOL    C6517973   6.672   0.773   4.600  0.0790 -0.2013 -0.0228
   75MOL    C6617974   6.783   0.871   4.567  0.0356  0.0762  0.0448
   75MOL    O6717975   6.784   0.949   4.467 -0.6858  0.0826 -0.1927
   75MOL    H6817976   6.605   0.777   4.389  0.3384  1.5526  0.6778
   75MOL    H6917977   6.410   0.829   4.614  2.1541 -0.4384  0.2767
   75MOL    H7017978   6.370   0.812   4.441 -0.4745  2.9971 -0.2088
   75MOL    H7117979   6.474   0.946   4.496  2.5541  0.0125  1.7238
   75MOL    H7217980   6.720   0.679   4.625  0.0325  0.3367  2.2211
   75MOL    H7317981   6.626   0.799   4.696  2.4685  1.6600  0.6779
   75MOL    O7417982   6.876   0.871   4.659  0.1354 -0.1882 -0.3443
   75MOL    C7517983   6.998   0.941   4.643  0.2271  0.0736 -0.4339
   75MOL    C7617984   6.978   1.084   4.684  0.3012 -0.5877 -0.0731
   75MOL    C7717985   7.091   0.871   4.738 -0.3075 -0.4581 -0.0771
   75MOL    C7817986   7.125   0.724   4.705  0.5463 -0.2768  0.0763
   75MOL    O7917987   7.242   0.695   4.686 -0.2039 -0.2374  0.1015
   75MOL    H8017988   7.044   0.927   4.545  5.0189  2.0751  1.3410
   75MOL    H8117989   6.914   1.095   4.771  2.8790  1.7348  1.6092
   75MOL    H8217990   6.930   1.138   4.603 -1.1374 -0.9998  0.4959
   75MOL    H8317991   7.078   1.124   4.702  0.5665  0.1654 -2.9161
   75MOL    H8417992   7.057   0.867   4.841  0.7216 -0.6238  0.2683
   75MOL    H8517993   7.177   0.939   4.746 -0.1610 -0.8121  1.4574
   75MOL    O8617994   7.016   0.642   4.690  0.4822 -0.0865 -0.0904
   75MOL    C8717995   7.034   0.517   4.630 -0.3294 -0.5705 -0.0154
   75MOL    C8817996   6.992   0.421   4.736 -0.3769 -1.2061  0.0102
   75MOL    C8917997   6.952   0.512   4.503  0.3644  0.7486  1.0517
   75MOL    C9017998   7.024   0.581   4.384 -0.4959  0.1248  0.2726
   75MOL    O9117999   7.137   0.549   4.349 -0.5652 -0.5937  0.2264
   75MOL    H9218000   7.139   0.490   4.617  0.1788  0.1752  2.3435
   75MOL    H9318001   7.071   0.411   4.811 -0.3650  3.2023  0.7101
   75MOL    H9418002   6.966   0.328   4.685 -0.0412 -1.3071  0.0216
   75MOL    H9518003   6.900   0.436   4.794  0.5385  1.4258  0.8172
   75MOL    H9618004   6.855   0.557   4.525 -0.1260 -0.4973  1.4917
   75MOL    H9718005   6.924   0.408   4.486 -0.6591  1.2787 -0.6812
   75MOL    O9818006   6.958   0.689   4.330 -0.3171 -0.4282  0.0928
   75MOL    C9918007   7.001   0.750   4.215 -0.1325 -0.7688  0.1219
   75MOL   C10018008   6.879   0.810   4.152  0.3941  0.2603  0.2411
   75MOL   C10118009   7.105   0.852   4.247 -0.4603  0.4727 -0.3786
   75MOL   C10218010   7.181   0.897   4.120 -0.1506 -0.5054  0.3553
   75MOL   O10318011   7.159   0.840   4.014 -0.7757  0.4932  0.0728
   75MOL   H10418012   7.040   0.671   4.151  1.8388  0.6470 -0.4772
   75MOL   H10518013   6.820   0.867   4.224 -0.1893 -0.5254  0.3954
   75MOL   H10618014   6.816   0.735   4.104  0.5592 -0.2115  0.7667
   75MOL   H10718015   6.908   0.883   4.076 -2.9741  1.1472 -0.2792
   75MOL   H10818016   7.180   0.818   4.318 -2.1071 -1.2514  0.5880
   75MOL   H10918017   7.062   0.932   4.307 -0.7155 -0.0901  0.2078
   75MOL   O11018018   7.265   0.997   4.140  0.1880  0.2013  0.1575
   75MOL   C11118019   7.352   1.051   4.038  0.4631  1.0622 -0.0317
   75MOL   C11218020   7.350   1.206   4.054  0.3010 -0.3825  0.6901
   75MOL   C11318021   7.490   0.989   4.062 -0.4431 -0.1779 -0.3314
   75MOL   C11418022   7.590   0.997   3.947  0.4046  0.3837 -0.3192
   75MOL   O11518023   7.623   0.898   3.878  0.1557 -0.1881  0.4244
   75MOL   H11618024   7.325   1.022   3.936 -1.1948 -3.1781  1.4902
   75MOL   H11718025   7.373   1.234   4.157  0.1162  1.5158  0.2386
   75MOL   H11818026   7.254   1.245   4.020 -0.6419 -1.2068  2.3837
   75MOL   H11918027   7.426   1.244   3.985  0.5124  0.5326  1.4196
   75MOL   H12018028   7.468   0.884   4.084 -0.0664 -0.2088 -0.0963
   75MOL   H12118029   7.533   1.044   4.146 -0.5479  1.8248 -1.5685
   75MOL   O12218030   7.622   1.125   3.912 -0.0427  1.0622 -0.0531
   75MOL   C12318031   7.676   1.155   3.784  0.7591  0.2246 -0.9421
   75MOL   C12418032   7.635   1.298   3.731 -0.4978  0.2910  0.2960
   75MOL   C12518033   7.830   1.151   3.801  0.3275 -0.0871 -0.5169
   75MOL   C12618034   7.911   1.189   3.684  0.0354 -0.1225 -0.6406
   75MOL   O12718035   0.011   1.289   3.681  0.0220 -0.0707 -0.5408
   75MOL   H12818036   7.647   1.076   3.715  1.2772 -1.8201  1.1075
   75MOL   H12918037   7.693   1.335   3.646  2.1718  1.8907  2.6919
   75MOL   H13018038   7.653   1.372   3.810  1.4358  2.0407 -1.7182
   75MOL   H13118039   7.530   1.309   3.704  0.0687 -1.9483 -3.0756
   75MOL   H13218040   7.861   1.053   3.837 -0.3443 -0.9289 -2.1703
   75MOL   H13318041   7.864   1.220   3.878 -0.5444 -0.0500 -0.1698
   75MOL   O13418042   7.895   1.098   3.589  0.0541  0.2292  0.8127
   75MOL   C13518043   7.970   1.110   3.465  0.4069 -1.3725  0.2728
   75MOL   C13618044   0.112   1.017   3.469 -0.6042  0.5424  0.3514
   75MOL   C13718045   7.875   1.081   3.347  0.0779 -0.4064 -0.3144
   75MOL   C13818046   7.757   1.178   3.335  0.0005 -0.2853 -0.4730
   75MOL   O13918047   7.642   1.134   3.351 -0.0206  0.0635  0.1391
   75MOL   H14018048   0.021   1.214   3.457 -2.2156 -0.2538  3.2783
   75MOL   H14118049   0.191   1.064   3.527 -0.2888  1.3343 -0.7035
   75MOL   H14218050   0.153   0.998   3.370 -3.2194 -0.5057 -0.5959
   75MOL   H14318051   0.093   0.922   3.520 -2.4318 -0.4520 -2.0497
   75MOL   H14418052   7.829   0.984   3.333  0.6825 -0.5432 -1.3902
   75MOL   H14518053   7.932   1.101   3.256  0.8045  0.6821  0.3502
   75MOL   O14618054   7.781   1.305   3.315  0.3275  0.0093 -0.4386
   75MOL   C14718055   7.677   1.400   3.275  0.1975  0.5353 -0.5584
   75MOL   C14818056   7.703   1.531   3.348  0.6338  0.1127  0.0890
   75MOL   C14918057   7.688   1.411   3.123  0.5941 -0.0799 -0.8605
   75MOL   C15018058   7.576   1.504   3.059  0.4882  0.0134 -0.3387
   75MOL   O15118059   7.470   1.521   3.121 -0.5183  0.1794  0.0839
   75MOL   H15218060   7.585   1.355   3.314  0.6570 -0.0191 -0.1161
   75MOL   H15318061   7.770   1.596   3.292  2.6593 -0.3849  1.8645
   75MOL   H15418062   7.745   1.512   3.447  1.3636 -1.9188 -0.5903
   75MOL   H15518063   7.603   1.574   3.359  0.7762  0.3656  0.3898
   75MOL   H15618064   7.670   1.313   3.080  1.0076 -1.9973  3.0994
   75MOL   H15718065   7.784   1.452   3.092 -0.0603  1.3924 -0.9822
   75MOL   O15818066   7.608   1.564   2.940 -0.2913  0.0148 -0.3279
   75MOL   C15918067   7.509   1.632   2.865 -0.0333  0.3494 -0.5323
   75MOL   C16018068   7.536   1.782   2.885  0.2944  0.5335  0.9404
   75MOL   C16118069   7.524   1.576   2.722  0.3949 -0.6807 -0.6907
   75MOL   C16218070   7.391   1.574   2.641 -0.0101  0.3238  0.0317
   75MOL   O16318071   7.374   1.646   2.540 -0.5096 -0.0689  0.1790
   75MOL   H16418072   7.411   1.597   2.897  0.3909  0.4538  0.9167
   75MOL   H16518073   7.636   1.820   2.864  0.4595 -0.7090 -0.6722
   75MOL   H16618074   7.512   1.803   2.989 -1.0310 -1.2481  1.0125
   75MOL   H16718075   7.457   1.833   2.829  0.4782 -0.5878 -0.3880
   75MOL   H16818076   7.563   1.474   2.723  2.0788 -0.0603 -0.1152
   75MOL   H16918077   7.599   1.633   2.667 -0.4197  1.5810  0.4690
   75MOL   O17018078   7.304   1.482   2.690 -0.0559 -0.0593 -0.2106
   75MOL   C17118079   7.174   1.469   2.632  1.1119 -0.2552 -0.1157
   75MOL   C17218080   7.159   1.329   2.576 -0.0838  0.0931 -0.3964
   75MOL   C17318081   7.065   1.491   2.737  1.3330  0.3964 -0.1159
   75MOL   C17418082   7.073   1.639   2.770  0.4246  0.1752 -0.4204
   75MOL   O17518083   7.102   1.670   2.885 -0.2341  0.3153 -0.5626
   75MOL   H17618084   7.156   1.545   2.556 -0.8757 -1.3766 -0.7686
   75MOL   H17718085   7.176   1.260   2.658 -0.0732  0.6271  0.0533
   75MOL   H17818086   7.238   1.301   2.505 -0.0515  0.2152 -0.4089
   75MOL   H17918087   7.065   1.301   2.529 -0.3447 -1.0873  0.7989
   75MOL   H18018088   7.091   1.432   2.825  0.9837  1.8257  0.9553
   75MOL   H18118089   6.971   1.456   2.695  2.6717 -0.9186 -2.1193
   75MOL   O18218090   7.039   1.721   2.671 -0.1442  0.7971 -0.2153
   75MOL   C18318091   6.986   1.849   2.701 -0.6157  0.4552 -0.1959
   75MOL   C18418092   7.100   1.953   2.693 -0.4533 -0.2344 -0.1476
   75MOL   C18518093   6.860   1.876   2.610 -0.2904  0.1462  0.2104
   75MOL   C18618094   6.734   1.810   2.661  0.1507  0.4440  0.2899
   75MOL   O18718095   6.627   1.876   2.678  0.0831 -0.2412  0.4796
   75MOL   H18818096   6.949   1.860   2.803  0.9243 -0.4940  0.4854
   75MOL   H18918097   7.072   2.057   2.676 -1.1783 -0.3842  0.1131
   75MOL   H19018098   7.160   1.929   2.606 -0.4113  0.4812 -0.3230
   75MOL   H19118099   7.174   1.944   2.772 -0.1949  0.7971 -0.2559
   75MOL   H19218100   6.872   1.842   2.508 -2.2873 -0.7752  0.2647
   75MOL   H19318101   6.841   1.982   2.598 -2.1999 -0.1044  0.8224
   75MOL   O19418102   6.757   1.673   2.686 -0.8754 -0.5378  0.4344
   75MOL   C19518103   6.656   1.580   2.725 -0.3317 -0.0669 -0.2224
   75MOL   C19618104   6.611   1.502   2.611 -0.4780  0.0562  1.1504
   75MOL   C19718105   6.714   1.501   2.844  0.2985  0.2257 -0.0155
   75MOL   C19818106   6.607   1.447   2.932  0.0443  0.9120  0.0530
   75MOL   O19918107   6.492   1.437   2.906  0.3455  0.8435 -0.1783
   75MOL   H20018108   6.575   1.639   2.768 -0.5711  0.4363 -1.3683
   75MOL   H20118109   6.690   1.453   2.552  0.6119  1.0392  1.7718
   75MOL   H20218110   6.568   1.572   2.540 -1.5780 -0.2103  1.5470
   75MOL   H20318111   6.534   1.430   2.637 -0.0368  0.0852  2.5821
   75MOL   H20418112   6.775   1.572   2.900  0.3184  0.8127 -0.7612
   75MOL   H20518113   6.767   1.411   2.816  1.0319  0.4277  0.7402
   75MOL   O20618114   6.653   1.420   3.054 -0.0137  0.2966 -0.1954
   75MOL   C20718115   6.563   1.370   3.152  0.8773 -0.0248 -0.2116
   75MOL   C20818116   6.490   1.482   3.229  1.0819  0.3009  0.7028
   75MOL   C20918117   6.492   1.237   3.119  0.1250  0.8548 -0.2773
   75MOL   C21018118   6.427   1.150   3.230 -0.2365 -0.2364 -0.1124
   75MOL   O21118119   6.350   1.059   3.206 -0.5504  0.5573  0.0204
   75MOL   H21218120   6.634   1.338   3.228  1.1524  1.0136 -0.0097
   75MOL   H21318121   6.465   1.437   3.325 -1.5111 -3.1981 -1.4926
   75MOL   H21418122   6.395   1.510   3.183  0.3947 -2.0823  0.6016
   75MOL   H21518123   6.563   1.560   3.249 -0.5270  1.7286  1.1582
   75MOL   H21618124   6.565   1.175   3.067 -1.1332 -1.8237  1.0304
   75MOL   H21718125   6.408   1.255   3.052  1.2542  2.1898 -1.3634
   75MOL   O21818126   6.470   1.184   3.355 -0.4972  0.1373  0.3485
   75MOL   C21918127   6.418   1.123   3.473 -0.9587  0.2483  0.3282
   75MOL   C22018128   6.504   0.998   3.509  0.4522 -0.3938 -0.7232
   75MOL   C22118129   6.428   1.227   3.584 -0.4267  0.6214  0.4397
   75MOL   C22218130   6.295   1.308   3.600 -0.1666 -0.4780  0.8015
   75MOL   O22318131   6.254   1.350   3.711 -0.3162  0.1866 -0.0412
   75MOL   H22418132   6.319   1.082   3.454 -1.1044  0.6407  0.2543
   75MOL   H22518133   6.608   1.011   3.539  0.2669 -0.7175  0.0876
   75MOL   H22618134   6.487   0.915   3.441  0.7700  0.4516 -1.8450
   75MOL   H22718135   6.461   0.957   3.601  1.9573 -1.7269 -0.5903
   75MOL   H22818136   6.515   1.291   3.568 -0.0054 -0.4041 -1.5285
   75MOL   H22918137   6.448   1.181   3.681 -0.7668 -0.6034 -0.0601
   75MOL   O23018138   6.241   1.343   3.478 -0.3244  0.3094 -0.2634
   75MOL   C23118139   6.124   1.426   3.473  1.1332  0.3908  0.2125
   75MOL   C23218140   6.114   1.471   3.328  0.6207 -0.2138 -0.1204
   75MOL   C23318141   6.004   1.348   3.523 -0.2896  0.1169  0.3618
   75MOL   C23418142   5.881   1.443   3.551 -0.4472 -0.6291  0.6278
   75MOL   O23518143   5.852   1.535   3.477 -0.0759 -0.3832  0.5358
   75MOL   H23618144   6.144   1.518   3.527 -2.0312  1.4989 -0.4528
   75MOL   H23718145   6.021   1.525   3.309 -1.0623 -2.9527  0.1663
   75MOL   H23818146   6.120   1.393   3.252  1.1430 -1.1789  0.9110
   75MOL   H23918147   6.202   1.534   3.313 -0.0938  1.0474  0.8152
   75MOL   H24018148   6.031   1.300   3.618  1.9355 -1.0838 -0.8403
   75MOL   H24118149   5.983   1.272   3.448 -1.6722  1.2945 -0.4606
   75MOL   H24218150   5.822   1.422   3.641 -4.3195  1.5927 -1.2363
   76MOL     O118151   0.913   5.436   1.242 -0.2499 -0.9037 -0.2807
   76MOL     C218152   0.803   5.456   1.151  0.0332 -0.1203  0.2268
   76MOL     C318153   0.701   5.539   1.226 -0.5638  0.1034 -0.4768
   76MOL     C418154   0.850   5.512   1.016 -0.1956  0.0344  0.3385
   76MOL     C518155   0.748   5.488   0.904 -0.1533 -0.0395 -0.7557
   76MOL     O618156   0.755   5.378   0.840 -0.7802 -0.1945 -0.6808
   76MOL     H718157   0.754   5.361   1.133 -0.1982  0.4032 -2.1271
   76MOL     H818158   0.706   5.646   1.211 -0.7835 -0.0408 -1.6335
   76MOL     H918159   0.690   5.500   1.327  0.1767  2.3526  0.4933
   76MOL    H1018160   0.606   5.507   1.184 -0.7456  0.9373 -0.6908
   76MOL    H1118161   0.938   5.458   0.980  0.0142  0.3087  0.4344
   76MOL    H1218162   0.887   5.614   1.019 -0.5286  0.1409  0.9567
   76MOL    H1318163   0.992   5.420   1.193  0.1206  1.2181 -0.4431
   76MOL    O1418164   0.648   5.567   0.911 -0.5181 -0.1352  0.1171
   76MOL    C1518165   0.567   5.576   0.797  0.4121 -0.8880  0.0627
   76MOL    C1618166   0.422   5.614   0.837  0.0445  0.1528  0.3242
   76MOL    C1718167   0.620   5.673   0.685  0.1062  0.3686 -0.0560
   76MOL    C1818168   0.633   5.819   0.727  0.3587  0.3701 -0.1213
   76MOL    O1918169   0.572   5.904   0.666 -0.0048  0.0250 -0.2829
   76MOL    H2018170   0.561   5.478   0.749 -2.2398  0.2642 -2.0441
   76MOL    H2118171   0.371   5.635   0.743  2.1343  1.2422 -0.6170
   76MOL    H2218172   0.416   5.694   0.910 -1.1387  1.1206 -0.8220
   76MOL    H2318173   0.372   5.532   0.888  1.4941  0.6069  2.5290
   76MOL    H2418174   0.550   5.675   0.602  1.4011  0.5860 -1.1478
   76MOL    H2518175   0.706   5.628   0.636 -0.2363  0.2016 -0.4983
   76MOL    O2618176   0.724   5.839   0.828 -0.3244 -0.1956 -0.5918
   76MOL    C2718177   0.748   5.972   0.879  0.4753  0.8761 -0.7423
   76MOL    C2818178   0.633   6.006   0.984  0.5313 -0.2331  1.0876
   76MOL    C2918179   0.896   5.988   0.918 -0.2923  0.3067 -0.1702
   76MOL    C3018180   0.951   5.908   1.033  0.8968  0.0017 -0.0991
   76MOL    O3118181   0.883   5.895   1.139 -0.1620  0.1173 -0.2696
   76MOL    H3218182   0.734   6.044   0.798 -2.3732  1.7858  0.4895
   76MOL    H3318183   0.538   6.001   0.930  1.7673  0.0970 -1.2073
   76MOL    H3418184   0.632   6.110   1.017  1.7268  0.8733 -2.1298
   76MOL    H3518185   0.620   5.943   1.071  0.3290 -1.2060  0.3607
   76MOL    H3618186   0.914   6.092   0.944 -2.7541  0.7282 -0.0409
   76MOL    H3718187   0.960   5.972   0.831  1.5843  0.1782  1.1996
   76MOL    O3818188   1.081   5.869   1.012 -0.2873 -0.3138  0.6997
   76MOL    C3918189   1.138   5.771   1.099 -0.9671 -0.0139  0.4950
   76MOL    C4018190   1.228   5.686   1.007  0.6698  0.2952  0.1106
   76MOL    C4118191   1.208   5.858   1.215 -0.2391  0.6931 -0.1989
   76MOL    C4218192   1.275   5.780   1.328 -0.1191  0.0512  0.0823
   76MOL    O4318193   1.367   5.831   1.396 -0.1257 -0.2969 -0.5555
   76MOL    H4418194   1.053   5.714   1.136 -0.7333  0.2416  1.4412
   76MOL    H4518195   1.262   5.590   1.046 -0.6659  1.1537  3.6237
   76MOL    H4618196   1.307   5.754   0.976 -0.0673  1.5386  0.9027
   76MOL    H4718197   1.180   5.674   0.910 -1.5003 -0.4411  1.2137
   76MOL    H4818198   1.145   5.930   1.266  2.0141  1.2018  1.9970
   76MOL    H4918199   1.284   5.923   1.170  1.6789 -0.8616  0.7065
   76MOL    O5018200   1.228   5.654   1.345  0.3671 -0.6799  0.5749
   76MOL    C5118201   1.253   5.579   1.469 -0.5772  0.3741 -0.1503
   76MOL    C5218202   1.113   5.532   1.510  0.1209  0.6205 -0.2160
   76MOL    C5318203   1.353   5.465   1.428 -0.5499 -0.0603 -0.3985
   76MOL    C5418204   1.401   5.387   1.548  0.2806 -0.0640 -0.7902
   76MOL    O5518205   1.350   5.404   1.654 -0.2201  0.3644 -0.2144
   76MOL    H5618206   1.302   5.636   1.547  0.1459  1.2114 -1.1981
   76MOL    H5718207   1.121   5.496   1.612  1.2778 -1.8323 -1.1401
   76MOL    H5818208   1.071   5.453   1.448 -0.0578 -0.6808  1.5202
   76MOL    H5918209   1.044   5.616   1.508  0.8019  1.1873 -0.0459
   76MOL    H6018210   1.440   5.489   1.367  0.5613 -0.2288  1.0689
   76MOL    H6118211   1.298   5.394   1.367 -1.3308  0.3232 -0.1515
   76MOL    O6218212   1.492   5.287   1.517 -0.5039  0.7251  0.1259
   76MOL    C6318213   1.523   5.201   1.618  1.0441  0.5526 -0.5792
   76MOL    C6418214   1.419   5.086   1.624  0.0861  0.7454 -0.8258
   76MOL    C6518215   1.665   5.143   1.606  0.0801 -0.4497 -0.1013
   76MOL    C6618216   1.789   5.233   1.633 -0.0116 -0.6551 -0.2594
   76MOL    O6718217   1.896   5.216   1.580 -0.3060  0.3127 -0.2908
   76MOL    H6818218   1.513   5.249   1.715 -0.1533 -0.9249  0.0517
   76MOL    H6918219   1.408   5.036   1.528 -2.3262  2.0919 -1.2867
   76MOL    H7018220   1.322   5.121   1.659 -1.5052 -2.1829 -2.2149
   76MOL    H7118221   1.455   5.016   1.700 -1.3021  1.7379  0.8004
   76MOL    H7218222   1.675   5.088   1.512 -1.7646 -0.4330 -0.3203
   76MOL    H7318223   1.672   5.062   1.679  0.7820 -0.0841  0.2437
   76MOL    O7418224   1.759   5.334   1.718  0.1205 -0.0560 -0.4182
   76MOL    C7518225   1.858   5.427   1.758  0.3008 -0.3401 -1.3125
   76MOL    C7618226   1.777   5.555   1.771 -0.7573  0.0890 -0.4111
   76MOL    C7718227   1.934   5.381   1.885  0.4415  0.1165  0.2548
   76MOL    C7818228   2.074   5.440   1.898  0.2171  0.2851 -0.1118
   76MOL    O7918229   2.126   5.514   1.808  0.4787 -0.1284  0.2154
   76MOL    H8018230   1.925   5.439   1.673  2.3711 -0.7950  0.2208
   76MOL    H8118231   1.720   5.575   1.680 -1.4015  0.1797  0.0107
   76MOL    H8218232   1.840   5.642   1.787  1.9627 -1.5157 -2.0558
   76MOL    H8318233   1.700   5.553   1.848 -0.2434 -0.0209  0.0976
   76MOL    H8418234   1.942   5.277   1.853 -1.6540  0.2687 -0.8963
   76MOL    H8518235   1.863   5.395   1.967 -0.3518 -0.1917 -0.3778
   76MOL    O8618236   2.126   5.422   2.017  0.1394  0.4245 -0.3727
   76MOL    C8718237   2.258   5.457   2.047  0.0651 -0.3151  0.5278
   76MOL    C8818238   2.257   5.482   2.192 -0.0739 -0.0379 -0.6981
   76MOL    C8918239   2.356   5.345   2.006  0.1245  0.1617 -0.2818
   76MOL    C9018240   2.493   5.402   1.972 -0.2481 -0.6091  0.3527
   76MOL    O9118241   2.586   5.419   2.052  0.1915 -0.4531 -0.3170
   76MOL    H9218242   2.280   5.554   2.001 -0.2807 -1.1211 -1.3778
   76MOL    H9318243   2.359   5.511   2.218  0.3147 -2.1457  0.2464
   76MOL    H9418244   2.231   5.388   2.241 -2.4548  1.1614  0.3844
   76MOL    H9518245   2.195   5.568   2.218 -0.5011 -0.4923 -0.1981
   76MOL    H9618246   2.316   5.303   1.914 -0.9859  1.0588 -0.2171
   76MOL    H9718247   2.355   5.258   2.072  2.2882 -0.3463 -0.8604
   76MOL    O9818248   2.494   5.452   1.841  0.1863  0.5579 -0.1778
   76MOL    C9918249   2.614   5.515   1.789  0.5233 -0.5062  0.1683
   76MOL   C10018250   2.707   5.407   1.744 -0.1535  0.5784  0.6106
   76MOL   C10118251   2.581   5.622   1.675 -0.1898 -0.1795  0.2561
   76MOL   C10218252   2.519   5.755   1.723 -0.4767 -0.4878  0.0709
   76MOL   O10318253   2.417   5.761   1.790  0.8339 -0.0370  0.6030
   76MOL   H10418254   2.671   5.560   1.870 -0.0425 -1.3377  1.0392
   76MOL   H10518255   2.744   5.335   1.816  3.1826  1.5849 -0.0239
   76MOL   H10618256   2.797   5.453   1.702  0.3664  0.3472  1.4629
   76MOL   H10718257   2.654   5.355   1.664 -0.4703 -0.3333  1.4110
   76MOL   H10818258   2.499   5.575   1.619  0.1657 -1.5210  0.8366
   76MOL   H10918259   2.673   5.626   1.616 -0.2633  0.8895  0.2080
   76MOL   O11018260   2.589   5.854   1.679  0.0673 -0.0152 -0.2691
   76MOL   C11118261   2.533   5.986   1.684  0.1508  0.4002 -0.9022
   76MOL   C11218262   2.604   6.080   1.783  0.6690 -0.4864 -0.3924
   76MOL   C11318263   2.545   6.034   1.536 -0.2198  0.2618 -0.2079
   76MOL   C11418264   2.476   6.169   1.502 -0.1414  0.7075  0.4791
   76MOL   O11518265   2.544   6.267   1.485  0.3457  0.6957 -0.0162
   76MOL   H11618266   2.426   5.987   1.702  0.2207 -1.4944 -0.2266
   76MOL   H11718267   2.589   6.047   1.886  0.7703 -1.7641 -0.7907
   76MOL   H11818268   2.554   6.178   1.786  0.8450 -0.4205  0.5502
   76MOL   H11918269   2.710   6.099   1.767  0.6021  1.5146  1.2903
   76MOL   H12018270   2.501   5.957   1.473 -1.4716 -0.4818  1.5484
   76MOL   H12118271   2.648   6.046   1.504  0.1272  0.6510  1.0243
   76MOL   O12218272   2.341   6.165   1.488  0.0654  0.0689 -0.1515
   76MOL   C12318273   2.265   6.282   1.454  0.5631 -0.3243 -0.7195
   76MOL   C12418274   2.252   6.280   1.307 -0.0839 -0.4442 -0.0830
   76MOL   C12518275   2.118   6.281   1.512  0.5390  0.0012 -0.5519
   76MOL   C12618276   2.052   6.416   1.526  0.0133 -0.1733  0.3428
   76MOL   O12718277   2.113   6.523   1.515  0.0691 -0.1140  0.3726
   76MOL   H12818278   2.323   6.360   1.504  0.2358 -0.4808 -0.0894
   76MOL   H12918279   2.197   6.192   1.273 -0.1389  0.0238 -1.2175
   76MOL   H13018280   2.352   6.290   1.267  0.0823  0.0018  0.4371
   76MOL   H13118281   2.192   6.365   1.277  3.0321  0.5348 -3.8226
   76MOL   H13218282   2.122   6.239   1.612 -1.0801  0.9088 -0.0930
   76MOL   H13318283   2.043   6.223   1.459  1.4516 -0.6402 -1.1686
   76MOL   O13418284   1.915   6.414   1.538 -0.0611 -0.6057 -0.0450
   76MOL   C13518285   1.842   6.535   1.526 -0.2734 -0.7771 -0.1364
   76MOL   C13618286   1.827   6.580   1.380 -0.4113  0.8427  0.0425
   76MOL   C13718287   1.698   6.527   1.582 -0.4304 -0.2679  0.0037
   76MOL   C13818288   1.690   6.511   1.736 -0.4818 -0.4927 -0.6685
   76MOL   O13918289   1.793   6.497   1.806 -0.3779 -0.5081 -0.1255
   76MOL   H14018290   1.893   6.620   1.572  1.2690 -1.5205 -0.4164
   76MOL   H14118291   1.810   6.497   1.312  0.7822  0.1206  0.6229
   76MOL   H14218292   1.916   6.632   1.343  0.6890 -0.8257  0.3199
   76MOL   H14318293   1.748   6.653   1.362 -0.1713  1.1114  0.0648
   76MOL   H14418294   1.653   6.444   1.528  1.3377 -1.8723  0.9457
   76MOL   H14518295   1.643   6.613   1.543 -1.2953 -0.2238  1.2835
   76MOL   O14618296   1.564   6.515   1.782  0.3819 -0.7132  0.0986
   76MOL   C14718297   1.523   6.502   1.914 -0.0069 -0.4263 -0.1681
   76MOL   C14818298   1.385   6.575   1.920 -0.5594  0.8088  0.2578
   76MOL   C14918299   1.515   6.349   1.938 -0.5070  0.6798  0.6728
   76MOL   C15018300   1.619   6.291   2.039  0.5967 -0.3617 -0.6470
   76MOL   O15118301   1.579   6.254   2.152 -0.0965  0.6233 -0.2832
   76MOL   H15218302   1.604   6.546   1.973 -0.2033  2.3342 -1.8508
   76MOL   H15318303   1.341   6.574   2.020  0.7581  0.5367  0.8389
   76MOL   H15418304   1.316   6.533   1.847 -0.3732  0.2243  0.4185
   76MOL   H15518305   1.412   6.675   1.885 -0.0969 -0.1797 -2.3066
   76MOL   H15618306   1.511   6.291   1.846  1.5023 -1.2611  1.7371
   76MOL   H15718307   1.419   6.335   1.987 -0.3423 -0.2223  0.7452
   76MOL   O15818308   1.748   6.300   2.013  0.2057  0.0473 -0.2102
   76MOL   C15918309   1.851   6.271   2.102  0.3888 -0.3652  0.2681
   76MOL   C16018310   1.972   6.262   2.010 -0.0767  0.1424  0.0491
   76MOL   C16118311   1.871   6.381   2.205  0.5320  0.2387  0.8842
   76MOL   C16218312   1.928   6.513   2.160 -0.5587 -0.5271  0.6042
   76MOL   O16318313   2.051   6.535   2.167 -0.4512  0.0846  0.1947
   76MOL   H16418314   1.828   6.171   2.140  0.0831 -1.0047 -1.5207
   76MOL   H16518315   1.992   6.348   1.945 -3.1307  1.8985  1.3261
   76MOL   H16618316   1.960   6.183   1.936 -1.2822  1.5642 -1.3172
   76MOL   H16718317   2.061   6.243   2.070 -0.3069  1.3830  0.8070
   76MOL   H16818318   1.945   6.342   2.275  2.1198 -0.9913 -1.3964
   76MOL   H16918319   1.779   6.395   2.261 -0.6580 -1.8380 -0.4807
   76MOL   O17018320   1.829   6.599   2.121 -0.1047  0.2528 -0.1677
   76MOL   C17118321   1.852   6.737   2.101 -0.0644 -0.2159  0.5250
   76MOL   C17218322   1.883   6.773   1.959  0.1463 -0.0407 -1.1259
   76MOL   C17318323   1.734   6.814   2.145 -0.2739  0.7218  0.5825
   76MOL   C17418324   1.744   6.831   2.295 -0.8515  0.3248  0.3471
   76MOL   O17518325   1.709   6.746   2.375 -0.0762  0.9633  0.1115
   76MOL   H17618326   1.942   6.761   2.159  0.6767 -1.9083  0.0824
   76MOL   H17718327   1.906   6.878   1.942  2.1114 -0.2843 -0.1966
   76MOL   H17818328   1.789   6.751   1.908 -2.1926  0.3022  2.8272
   76MOL   H17918329   1.966   6.713   1.922  2.2205  0.1978  2.8577
   76MOL   H18018330   1.654   6.747   2.113  0.9939  0.2790 -1.7990
   76MOL   H18118331   1.721   6.912   2.098  0.0460 -0.1416 -1.3229
   76MOL   O18218332   1.800   6.945   2.331  0.1680 -0.1371  0.0276
   76MOL   C18318333   1.813   6.981   2.474  0.3072  0.3892  0.4745
   76MOL   C18418334   1.950   6.917   2.514  0.5271  0.3366  0.0631
   76MOL   C18518335   1.799   7.136   2.502  0.5128  0.3248 -0.0719
   76MOL   C18618336   1.659   7.184   2.484  0.6469 -0.0629  0.1835
   76MOL   O18718337   1.603   7.236   2.581 -0.2795  0.3734  0.0263
   76MOL   H18818338   1.737   6.931   2.534  0.6634 -1.9183 -0.9443
   76MOL   H18918339   2.035   6.962   2.463  1.3699  0.2677  1.3834
   76MOL   H19018340   1.942   6.813   2.482  2.1194  0.1915  0.0643
   76MOL   H19118341   1.969   6.924   2.621  1.7948  0.0521 -0.1316
   76MOL   H19218342   1.863   7.203   2.444  0.4389  0.0503 -0.4745
   76MOL   H19318343   1.833   7.151   2.604 -0.0721 -0.7198  0.2877
   76MOL   O19418344   1.591   7.149   2.365  0.2960  0.0103 -0.0650
   76MOL   C19518345   1.466   7.206   2.335  0.4839  0.2232 -0.7160
   76MOL   C19618346   1.487   7.314   2.227 -0.4746  0.1224 -0.0367
   76MOL   C19718347   1.366   7.089   2.312  0.4770 -0.5086  0.0949
   76MOL   C19818348   1.382   7.027   2.169  0.6104  0.2565 -0.2760
   76MOL   O19918349   1.444   6.920   2.148 -0.0807  0.7319 -0.5153
   76MOL   H20018350   1.432   7.262   2.422  0.8610 -1.9826  0.8954
   76MOL   H20118351   1.393   7.336   2.175 -1.2964 -0.4972  1.1760
   76MOL   H20218352   1.543   7.262   2.149 -1.0805  1.7767 -1.5976
   76MOL   H20318353   1.550   7.399   2.250  0.8170 -0.2659 -1.9810
   76MOL   H20418354   1.266   7.131   2.317  1.1035  1.1669 -0.7809
   76MOL   H20518355   1.363   7.006   2.382 -1.8137  0.5925  1.3419
   76MOL   O20618356   1.320   7.102   2.082 -0.3843 -0.1925  0.0993
   76MOL   C20718357   1.297   7.070   1.947 -0.5434  0.1981  0.7667
   76MOL   C20818358   1.161   7.106   1.895 -0.0543 -0.1877  0.0699
   76MOL   C20918359   1.415   7.121   1.856 -0.2698  0.2966 -0.1537
   76MOL   C21018360   1.379   7.143   1.704  0.0737 -0.1771  0.0836
   76MOL   O21118361   1.357   7.255   1.656 -0.5268  0.9940  0.2322
   76MOL   H21218362   1.300   6.961   1.940 -0.5241  0.2211  0.4176
   76MOL   H21318363   1.078   7.092   1.965  0.2380 -2.7514 -0.0395
   76MOL   H21418364   1.142   7.054   1.801 -0.7849  1.0054 -0.4476
   76MOL   H21518365   1.163   7.211   1.868  1.4652 -0.3045 -0.2804
   76MOL   H21618366   1.496   7.050   1.873 -0.9968 -0.3430  0.7127
   76MOL   H21718367   1.461   7.212   1.892  0.6326  0.0524 -0.6712
   76MOL   O21818368   1.383   7.028   1.635  0.7043  0.2106  0.5650
   76MOL   C21918369   1.379   7.032   1.491  0.7545 -0.0785  0.1050
   76MOL   C22018370   1.438   6.893   1.440  0.3699  0.7681  0.6359
   76MOL   C22118371   1.237   7.067   1.433 -0.0474  0.3363 -0.1740
   76MOL   C22218372   1.257   7.139   1.299  0.2581 -0.2004  0.4538
   76MOL   O22318373   1.292   7.083   1.198  0.6051 -0.1452  0.1782
   76MOL   H22418374   1.447   7.111   1.458  1.3351 -0.7270 -0.2564
   76MOL   H22518375   1.374   6.807   1.457  1.3395  0.1107  0.9883
   76MOL   H22618376   1.532   6.888   1.495 -0.7800  0.9220  2.6357
   76MOL   H22718377   1.455   6.918   1.335 -0.1651 -0.1327  0.3334
   76MOL   H22818378   1.180   7.120   1.510 -1.3136 -1.7644  0.3502
   76MOL   H22918379   1.179   6.978   1.410  0.3919 -0.3495  1.2905
   76MOL   O23018380   1.256   7.270   1.321  0.2049 -0.6867  0.1651
   76MOL   C23118381   1.270   7.374   1.219 -0.5584  0.0260  0.1726
   76MOL   C23218382   1.186   7.491   1.268  0.3750 -0.4739 -0.0110
   76MOL   C23318383   1.420   7.416   1.170  0.3989  0.4121 -0.2804
   76MOL   C23418384   1.486   7.508   1.275  0.1645  0.5918  0.3393
   76MOL   O23518385   1.501   7.628   1.249  0.3564  0.2946 -0.4861
   76MOL   H23618386   1.217   7.332   1.133 -1.8899  0.2936  0.8561
   76MOL   H23718387   1.183   7.574   1.198  0.9536  0.7935  1.4226
   76MOL   H23818388   1.227   7.534   1.360  1.7886 -1.7239 -0.0462
   76MOL   H23918389   1.084   7.465   1.295  0.3639 -1.5972 -1.1208
   76MOL   H24018390   1.416   7.452   1.067  3.0570  0.1279 -0.5181
   76MOL   H24118391   1.489   7.331   1.171  2.4078  1.9935 -0.0399
   76MOL   H24218392   1.534   7.464   1.362  2.4901  0.0572 -1.1820
   77MOL     O118393   7.219   5.618   5.036 -0.2977 -0.0528 -0.5159
   77MOL     C218394   7.288   5.725   5.096 -0.4429 -0.6525 -0.1736
   77MOL     C318395   7.419   5.672   5.160  0.3886 -0.6794  0.8490
   77MOL     C418396   7.325   5.833   4.987  0.7177  0.0762 -0.1649
   77MOL     C518397   7.374   5.967   5.044 -0.1982 -0.1457 -0.4093
   77MOL     O618398   7.419   5.976   5.156 -0.0781  0.0542  0.2894
   77MOL     H718399   7.236   5.780   5.175  0.5550 -1.1381  0.8350
   77MOL     H818400   7.386   5.579   5.206 -1.0434 -0.6842 -0.1683
   77MOL     H918401   7.456   5.746   5.232  1.1997 -0.2020 -0.0542
   77MOL    H1018402   7.500   5.667   5.088 -0.1621  0.2053  0.1575
   77MOL    H1118403   7.233   5.867   4.939  0.6361 -0.8020 -0.6342
   77MOL    H1218404   7.378   5.797   4.898  1.7623  1.1452  0.0054
   77MOL    H1318405   7.169   5.575   5.104  2.6746  0.6030  2.2183
   77MOL    O1418406   7.354   6.066   4.958  0.5860  0.0549 -0.7697
   77MOL    C1518407   7.402   6.194   4.988 -0.7626 -0.3063  0.4604
   77MOL    C1618408   7.498   6.234   4.878 -0.1205  0.0414  0.3233
   77MOL    C1718409   7.277   6.293   4.993  0.2019 -0.3158  0.2497
   77MOL    C1818410   7.163   6.256   5.089 -0.2684  0.5195 -0.2030
   77MOL    O1918411   7.052   6.230   5.047 -0.0693 -0.7874  0.0343
   77MOL    H2018412   7.456   6.200   5.082 -2.4629 -2.7621  1.6495
   77MOL    H2118413   7.542   6.332   4.901  0.2529 -0.4801  1.8696
   77MOL    H2218414   7.475   6.232   4.772 -1.0297 -3.8286  0.5525
   77MOL    H2318415   7.572   6.156   4.896  0.2138  0.1330 -0.6484
   77MOL    H2418416   7.235   6.289   4.892 -1.1690 -0.6178  0.8274
   77MOL    H2518417   7.294   6.398   5.015  3.3544 -0.6521 -0.2808
   77MOL    O2618418   7.195   6.264   5.218 -0.0917  0.0471 -0.6145
   77MOL    C2718419   7.104   6.212   5.321  0.0777  0.6267  0.5539
   77MOL    C2818420   7.144   6.071   5.350 -0.3022 -0.1207 -0.0049
   77MOL    C2918421   7.104   6.311   5.437  0.0314 -0.0509  0.4334
   77MOL    C3018422   6.989   6.298   5.538  0.2167  0.4147 -0.5370
   77MOL    O3118423   6.888   6.222   5.514  0.2891  0.2471 -0.0788
   77MOL    H3218424   7.000   6.218   5.287 -0.5484  0.2932  2.3351
   77MOL    H3318425   7.101   6.023   5.438  1.3686 -0.6260  0.5637
   77MOL    H3418426   7.252   6.062   5.361 -0.5199 -0.4024  2.0545
   77MOL    H3518427   7.124   5.998   5.271 -0.0931 -0.2036  0.0151
   77MOL    H3618428   7.109   6.416   5.408  2.2686  0.5642  2.8789
   77MOL    H3718429   7.199   6.301   5.488  0.3401 -0.1380 -0.1602
   77MOL    O3818430   7.000   6.372   5.650 -0.1272  0.4070  0.3757
   77MOL    C3918431   6.897   6.371   5.751 -0.4067  0.1990 -0.6627
   77MOL    C4018432   6.948   6.319   5.883 -0.3431 -0.0200  0.0505
   77MOL    C4118433   6.861   6.513   5.758 -0.5429  0.1048 -0.4811
   77MOL    C4218434   6.771   6.553   5.639 -0.1493 -0.3343  0.2546
   77MOL    O4318435   6.805   6.622   5.548 -0.1268  0.4896  0.2284
   77MOL    H4418436   6.819   6.301   5.721  1.3327 -1.4888 -1.3025
   77MOL    H4518437   6.892   6.363   5.966  0.7777  0.2643  0.6603
   77MOL    H4618438   7.045   6.356   5.915 -0.8142  0.6627  0.7380
   77MOL    H4718439   6.942   6.211   5.892  0.6201 -0.3113 -2.5158
   77MOL    H4818440   6.947   6.579   5.771  0.2890 -1.1340  0.4343
   77MOL    H4918441   6.806   6.532   5.851 -0.1685  0.1245 -0.2629
   77MOL    O5018442   6.644   6.508   5.652 -0.5067  0.2136 -0.0187
   77MOL    C5118443   6.551   6.536   5.546  0.6430 -0.0113 -0.1696
   77MOL    C5218444   6.510   6.402   5.489 -0.2365  0.0814  0.5775
   77MOL    C5318445   6.432   6.615   5.602 -0.3416  0.7200 -0.0647
   77MOL    C5418446   6.451   6.767   5.600  0.6677 -0.0241 -0.2701
   77MOL    O5518447   6.369   6.851   5.560  0.2382 -0.3379  0.2681
   77MOL    H5618448   6.593   6.597   5.466  1.0297  1.2814  1.0064
   77MOL    H5718449   6.599   6.338   5.483  1.2423  1.7505  3.7072
   77MOL    H5818450   6.458   6.408   5.393 -0.5127  1.0191  0.7808
   77MOL    H5918451   6.435   6.358   5.555  2.3174 -4.6587  0.5318
   77MOL    H6018452   6.411   6.586   5.705  0.4612  1.2582  0.2510
   77MOL    H6118453   6.344   6.590   5.542  0.0899  0.0137 -0.4042
   77MOL    O6218454   6.576   6.795   5.654 -0.6338 -0.1286 -0.2110
   77MOL    C6318455   6.623   6.934   5.644  0.5175  0.2205  0.2728
   77MOL    C6418456   6.677   6.960   5.782  0.4183  0.0419 -0.2185
   77MOL    C6518457   6.734   6.939   5.540 -0.3610 -0.0536  0.0663
   77MOL    C6618458   6.688   6.970   5.398  0.2149  0.5436 -0.3726
   77MOL    O6718459   6.733   7.066   5.333  0.1840 -0.4329 -0.9388
   77MOL    H6818460   6.552   7.005   5.603 -0.7289 -0.0271  1.9516
   77MOL    H6918461   6.747   6.887   5.822 -0.5273  0.1903  1.7286
   77MOL    H7018462   6.588   6.953   5.844  0.2546  0.7259 -0.3716
   77MOL    H7118463   6.728   7.057   5.787 -1.8621  1.2738 -0.1141
   77MOL    H7218464   6.790   6.846   5.531  0.8713  0.7885 -1.1582
   77MOL    H7318465   6.799   7.022   5.567 -0.3007 -0.0032 -0.2432
   77MOL    O7418466   6.603   6.880   5.358 -0.4222 -0.7895 -0.1409
   77MOL    C7518467   6.556   6.880   5.222 -0.1608  0.2557 -0.0740
   77MOL    C7618468   6.662   6.814   5.128  0.1983 -0.2452  0.0942
   77MOL    C7718469   6.410   6.838   5.220  0.3798 -0.3321  0.6861
   77MOL    C7818470   6.378   6.693   5.201  1.1966 -0.5365 -0.0852
   77MOL    O7918471   6.333   6.624   5.295  0.6148 -0.6848  0.2403
   77MOL    H8018472   6.547   6.985   5.194 -0.8784 -0.0593 -1.0577
   77MOL    H8118473   6.683   6.715   5.168 -3.9192 -0.8851  0.9242
   77MOL    H8218474   6.754   6.872   5.127  0.6370 -0.9449 -0.9844
   77MOL    H8318475   6.625   6.798   5.027 -2.9532  0.7928  1.0188
   77MOL    H8418476   6.359   6.889   5.137  1.4803 -1.2535 -0.5582
   77MOL    H8518477   6.360   6.878   5.309 -2.3045 -1.3382 -0.2999
   77MOL    O8618478   6.392   6.643   5.073  0.3366  0.3752 -0.4804
   77MOL    C8718479   6.364   6.508   5.045  0.3509 -0.5860 -0.3650
   77MOL    C8818480   6.210   6.501   5.013 -0.3063  0.0494 -0.0034
   77MOL    C8918481   6.449   6.470   4.925 -0.0641  0.0989  0.2127
   77MOL    C9018482   6.599   6.448   4.963  0.3000 -0.0498  0.8757
   77MOL    O9118483   6.691   6.500   4.899  0.3462 -0.4783  0.1526
   77MOL    H9218484   6.387   6.443   5.129 -0.7772 -1.0004 -0.3603
   77MOL    H9318485   6.141   6.518   5.096 -0.4316 -1.3948  0.2177
   77MOL    H9418486   6.183   6.405   4.967  0.0177 -0.6630  1.2500
   77MOL    H9518487   6.173   6.580   4.948 -1.3408  1.0871  1.8064
   77MOL    H9618488   6.458   6.559   4.864  0.8542 -0.0313  0.1605
   77MOL    H9718489   6.406   6.381   4.878 -1.1259  0.2339  0.9018
   77MOL    O9818490   6.611   6.370   5.073 -0.1588  0.6105  0.0539
   77MOL    C9918491   6.732   6.338   5.142 -0.6394  0.0882  0.6268
   77MOL   C10018492   6.801   6.461   5.211  0.0114  0.5170  0.7967
   77MOL   C10118493   6.703   6.209   5.224  0.1792 -0.6718  0.3977
   77MOL   C10218494   6.719   6.074   5.151 -0.0616 -0.9003  0.0128
   77MOL   O10318495   6.622   6.027   5.091  0.3446  0.0797  0.0275
   77MOL   H10418496   6.793   6.298   5.062 -1.0014 -1.0777  0.9219
   77MOL   H10518497   6.890   6.438   5.270  1.3951  0.4271 -1.2696
   77MOL   H10618498   6.728   6.510   5.276  0.6687  0.9090  1.2405
   77MOL   H10718499   6.819   6.540   5.138 -0.9944  1.1537  1.2187
   77MOL   H10818500   6.604   6.220   5.268 -2.5123 -2.5213 -4.7416
   77MOL   H10918501   6.778   6.212   5.304 -2.4749  1.5397  2.8881
   77MOL   O11018502   6.838   6.020   5.151 -0.2841  0.1709  0.2012
   77MOL   C11118503   6.860   5.889   5.094  0.3063 -0.3550 -0.7489
   77MOL   C11218504   6.998   5.898   5.019  0.2916  0.6219  0.5424
   77MOL   C11318505   6.852   5.784   5.209 -0.0244  0.3715  0.0713
   77MOL   C11418506   6.911   5.646   5.167 -0.3012 -0.2513 -0.0787
   77MOL   O11518507   6.984   5.574   5.238 -0.0644 -0.2644  0.6462
   77MOL   H11618508   6.778   5.861   5.028 -0.6643  2.4448 -0.7877
   77MOL   H11718509   7.077   5.890   5.093  0.2794  3.6798  0.9460
   77MOL   H11818510   7.011   5.989   4.960 -1.6692  0.4678 -0.1552
   77MOL   H11918511   7.001   5.818   4.946  0.5644  0.5725  0.6082
   77MOL   H12018512   6.752   5.788   5.251  0.5948 -0.1544  1.6451
   77MOL   H12118513   6.919   5.820   5.287  0.7384  0.4244 -0.5978
   77MOL   O12218514   6.864   5.618   5.050  0.2789 -0.1235 -0.4032
   77MOL   C12318515   6.901   5.497   4.987 -0.1016 -0.5153 -0.1065
   77MOL   C12418516   6.790   5.396   4.969 -0.3648 -0.3698 -0.2181
   77MOL   C12518517   6.973   5.525   4.845 -0.0104  0.1726 -0.3843
   77MOL   C12618518   6.880   5.576   4.732  0.4287 -1.2640 -0.1010
   77MOL   O12718519   6.878   5.697   4.707 -0.1131  0.3699  0.3568
   77MOL   H12818520   6.963   5.436   5.053  0.5636 -0.0345 -0.2819
   77MOL   H12918521   6.704   5.457   4.941 -1.0417 -0.2073  2.0989
   77MOL   H13018522   6.772   5.351   5.067  2.3350 -1.3080 -0.1126
   77MOL   H13118523   6.803   5.326   4.887  3.0445  1.0935 -1.0342
   77MOL   H13218524   7.024   5.434   4.813 -1.2681 -0.8309  0.4522
   77MOL   H13318525   7.058   5.593   4.856 -0.4222  0.6648 -0.2612
   77MOL   O13418526   6.804   5.483   4.670 -0.0135 -0.0417  0.2903
   77MOL   C13518527   6.737   5.522   4.552 -0.1276 -0.0830 -0.2691
   77MOL   C13618528   6.788   5.456   4.428  0.2660 -0.2654  0.1901
   77MOL   C13718529   6.590   5.497   4.587 -0.0979  0.1110  0.2934
   77MOL   C13818530   6.541   5.349   4.605 -0.5051 -0.5049 -0.3040
   77MOL   O13918531   6.586   5.248   4.549 -0.3511  0.2673 -0.3514
   77MOL   H14018532   6.732   5.630   4.534  0.4971  0.1853  1.0993
   77MOL   H14118533   6.896   5.466   4.418  0.5168  0.0740  2.8515
   77MOL   H14218534   6.732   5.490   4.341 -1.8206 -1.9405  0.8178
   77MOL   H14318535   6.777   5.348   4.417 -1.3546 -0.1875  0.9097
   77MOL   H14418536   6.528   5.554   4.519  0.3473 -0.9927 -1.0574
   77MOL   H14518537   6.571   5.532   4.688  3.0935  2.0712  0.3115
   77MOL   O14618538   6.439   5.341   4.695  0.0028 -0.3410  0.2454
   77MOL   C14718539   6.393   5.214   4.732  0.0127  0.2232 -0.5161
   77MOL   C14818540   6.401   5.213   4.890  0.7798 -0.0217 -0.9826
   77MOL   C14918541   6.255   5.197   4.657 -0.9613 -0.0238 -0.1398
   77MOL   C15018542   6.206   5.046   4.640  0.1694  0.0094 -0.0079
   77MOL   O15118543   6.087   5.020   4.646  0.2084  0.1758 -0.2066
   77MOL   H15218544   6.452   5.129   4.698 -0.5022  0.7796 -2.9117
   77MOL   H15318545   6.502   5.233   4.924 -0.3631 -1.2893  3.4638
   77MOL   H15418546   6.370   5.122   4.941  4.3040 -0.8336 -0.1658
   77MOL   H15518547   6.343   5.290   4.940  0.9601 -0.2705 -0.3880
   77MOL   H15618548   6.265   5.237   4.556  2.4241  0.3974  0.2946
   77MOL   H15718549   6.173   5.256   4.698  0.0954  1.0194  0.5357
   77MOL   O15818550   6.294   4.945   4.636 -0.7524 -0.0935  0.0987
   77MOL   C15918551   6.259   4.807   4.628  0.1918  0.1636  0.1360
   77MOL   C16018552   6.340   4.751   4.513 -0.9988  0.3316 -0.1606
   77MOL   C16118553   6.276   4.750   4.775 -0.6681  0.5154 -0.3828
   77MOL   C16218554   6.196   4.625   4.798 -0.6606 -0.0121 -0.3195
   77MOL   O16318555   6.090   4.633   4.864 -0.2196  0.1542 -0.2908
   77MOL   H16418556   6.156   4.791   4.596  0.1039  0.7360  0.1130
   77MOL   H16518557   6.324   4.643   4.507  0.0652  0.1341  0.5655
   77MOL   H16618558   6.447   4.770   4.522 -1.6494  3.2776  1.8172
   77MOL   H16718559   6.304   4.793   4.419  0.3558  2.3623  0.1969
   77MOL   H16818560   6.237   4.819   4.849 -1.3623  0.7794 -0.9969
   77MOL   H16918561   6.380   4.726   4.799 -0.4861  1.0083 -0.6772
   77MOL   O17018562   6.242   4.520   4.734 -0.4996  0.0300 -0.1164
   77MOL   C17118563   6.172   4.399   4.756 -0.3890  0.1695 -0.1312
   77MOL   C17218564   6.060   4.388   4.656 -1.0982 -0.9427  0.4018
   77MOL   C17318565   6.269   4.287   4.730  0.0642  0.5362  1.3946
   77MOL   C17418566   6.403   4.286   4.802 -0.1753  0.4543 -0.8202
   77MOL   O17518567   6.423   4.195   4.881 -0.2823  0.2745 -0.8087
   77MOL   H17618568   6.127   4.399   4.855  0.7129  1.1152  0.3789
   77MOL   H17718569   6.095   4.400   4.553 -0.6295  0.8713  0.7529
   77MOL   H17818570   5.988   4.470   4.660 -1.8762 -1.5893 -0.3276
   77MOL   H17918571   6.013   4.290   4.663 -1.2706 -0.7528  2.1607
   77MOL   H18018572   6.281   4.278   4.622  0.1877  2.9276  1.1759
   77MOL   H18118573   6.222   4.189   4.739 -1.4673  0.9774 -1.2518
   77MOL   O18218574   6.492   4.377   4.765 -0.2819 -0.1279 -0.8435
   77MOL   C18318575   6.633   4.360   4.791  0.3617 -0.3344  0.2145
   77MOL   C18418576   6.702   4.317   4.668 -0.4289  0.4522 -0.0136
   77MOL   C18518577   6.685   4.495   4.838 -0.3462  0.0587 -0.5682
   77MOL   C18618578   6.670   4.525   4.989  0.1966 -0.1198 -0.1193
   77MOL   O18718579   6.775   4.542   5.051 -0.1723  0.4495  0.1726
   77MOL   H18818580   6.653   4.285   4.868  1.1148 -0.4165 -0.0547
   77MOL   H18918581   6.809   4.327   4.686 -0.4886 -0.0743  0.6530
   77MOL   H19018582   6.676   4.371   4.577  0.1614  1.4740  0.4146
   77MOL   H19118583   6.677   4.213   4.648  0.0477  0.5383 -1.0446
   77MOL   H19218584   6.650   4.581   4.781 -1.7200 -1.0647 -1.4446
   77MOL   H19318585   6.793   4.500   4.820 -0.6319  0.9473 -2.1560
   77MOL   O19418586   6.536   4.535   5.031 -0.5483 -0.1135 -0.0749
   77MOL   C19518587   6.507   4.571   5.172 -0.0791 -0.6613 -0.1761
   77MOL   C19618588   6.418   4.695   5.185 -0.2516  0.3495  0.3613
   77MOL   C19718589   6.434   4.451   5.238  0.0860 -0.2926  0.4200
   77MOL   C19818590   6.454   4.426   5.394 -0.7396 -0.8866 -0.0681
   77MOL   O19918591   6.527   4.499   5.460 -0.2670  0.4741 -0.6346
   77MOL   H20018592   6.604   4.598   5.215  0.5214  0.4242 -2.1765
   77MOL   H20118593   6.369   4.702   5.282 -0.7537  1.6080  0.0192
   77MOL   H20218594   6.343   4.694   5.106  1.0837 -1.7889 -0.9177
   77MOL   H20318595   6.483   4.780   5.162 -1.7099  0.9431 -1.6915
   77MOL   H20418596   6.476   4.364   5.189 -0.2084 -1.0179  1.4372
   77MOL   H20518597   6.330   4.444   5.204  0.3436  0.3827 -0.5353
   77MOL   O20618598   6.394   4.313   5.443 -0.1131 -0.1258 -0.1804
   77MOL   C20718599   6.421   4.269   5.574 -0.1469 -0.0960 -0.0687
   77MOL   C20818600   6.330   4.335   5.671  0.7005 -0.1155 -0.0160
   77MOL   C20918601   6.410   4.116   5.571  0.6085  0.4095 -0.5090
   77MOL   C21018602   6.451   4.037   5.686  0.3193 -0.6340 -0.5202
   77MOL   O21118603   6.378   3.943   5.721  0.1326  0.2076 -0.2302
   77MOL   H21218604   6.527   4.277   5.595  0.4433 -2.3743 -1.8979
   77MOL   H21318605   6.341   4.444   5.663 -1.4999  0.1110 -0.4896
   77MOL   H21418606   6.353   4.299   5.771 -1.0346 -1.8731 -0.2129
   77MOL   H21518607   6.228   4.305   5.645  0.6517 -2.0201  2.3004
   77MOL   H21618608   6.474   4.071   5.495 -1.2163  0.9651 -2.4403
   77MOL   H21718609   6.306   4.092   5.547  0.4195  0.8809 -0.1672
   77MOL   O21818610   6.555   4.076   5.744  0.4322  0.3790 -0.1182
   77MOL   C21918611   6.600   4.031   5.871  0.4172  0.4431 -0.1839
   77MOL   C22018612   6.752   4.003   5.845 -0.3692 -0.3356  0.2069
   77MOL   C22118613   6.572   4.143   5.977 -0.4427  0.4968  0.6317
   77MOL   C22218614   6.656   4.269   5.963 -0.3165  0.1233 -0.2314
   77MOL   O22318615   6.756   4.287   6.034 -0.7565  0.2466 -0.5295
   77MOL   H22418616   6.547   3.940   5.898 -0.2148  0.3675 -1.6117
   77MOL   H22518617   6.812   4.091   5.822  1.3270 -2.1265 -2.3535
   77MOL   H22618618   6.762   3.942   5.756 -1.8579  2.9393 -2.3283
   77MOL   H22718619   6.797   3.959   5.934  3.9497  2.2457 -0.5886
   77MOL   H22818620   6.593   4.114   6.080  0.3282  1.6328  0.8011
   77MOL   H22918621   6.467   4.162   5.954 -0.4068  0.3563  0.3413
   77MOL   O23018622   6.606   4.364   5.872 -0.2464  0.6631 -0.6807
   77MOL   C23118623   6.689   4.472   5.844  0.3950  0.6314 -0.1113
   77MOL   C23218624   6.793   4.421   5.742 -0.0867 -0.3290 -0.0040
   77MOL   C23318625   6.595   4.579   5.797  0.7332  0.5444 -0.0280
   77MOL   C23418626   6.656   4.705   5.738  0.4811 -0.2718  0.1975
   77MOL   O23518627   6.767   4.750   5.778 -0.0073  0.0424 -0.2521
   77MOL   H23618628   6.729   4.503   5.940 -1.8720 -0.9469  1.3955
   77MOL   H23718629   6.859   4.486   5.685  2.7943 -1.0197  2.4155
   77MOL   H23818630   6.740   4.359   5.670 -0.3378 -1.1586  0.8746
   77MOL   H23918631   6.856   4.347   5.791  0.0007 -1.3405 -1.6151
   77MOL   H24018632   6.540   4.621   5.882 -0.7771 -0.1283 -0.6541
   77MOL   H24118633   6.521   4.549   5.723 -0.2579  0.1229  1.1135
   77MOL   H24218634   6.606   4.746   5.651  0.6792 -3.0395 -1.2745
   78MOL     O118635   6.460   1.127   5.923 -0.0207  0.0120 -0.0748
   78MOL     C218636   6.438   0.996   5.970  0.3594  0.3102 -0.0450
   78MOL     C318637   6.524   0.891   5.905 -0.4629  0.0174  0.0584
   78MOL     C418638   6.458   1.005   6.123  0.0769  0.6020 -0.4322
   78MOL     C518639   6.353   0.917   6.200  0.4135  0.3080 -0.1025
   78MOL     O618640   6.339   0.798   6.191 -0.5450  0.0132  0.1584
   78MOL     H718641   6.335   0.970   5.946 -0.5454  0.7792  3.1423
   78MOL     H818642   6.630   0.890   5.930 -0.2702 -1.9719 -0.7450
   78MOL     H918643   6.513   0.894   5.796  1.0151  3.6712 -0.0370
   78MOL    H1018644   6.498   0.791   5.940  1.8210 -1.2342 -1.7069
   78MOL    H1118645   6.443   1.108   6.157  2.1285  0.2915  1.5700
   78MOL    H1218646   6.550   0.956   6.155 -0.1702 -0.2763 -1.0460
   78MOL    H1318647   6.438   1.120   5.831  2.3801  0.3105 -0.7155
   78MOL    O1418648   6.290   1.001   6.285 -0.5656 -0.6596 -0.1135
   78MOL    C1518649   6.165   0.958   6.328  0.6628  0.2352  0.1347
   78MOL    C1618650   6.162   0.966   6.482 -0.1826 -0.4210  0.2702
   78MOL    C1718651   6.051   1.028   6.248 -0.0644 -0.5727  0.0231
   78MOL    C1818652   6.056   1.180   6.269 -0.3808 -0.9420 -0.2492
   78MOL    O1918653   5.991   1.232   6.358  0.1653 -0.0886 -0.4621
   78MOL    H2018654   6.136   0.854   6.314 -4.1112  1.5131 -0.6274
   78MOL    H2118655   6.131   1.063   6.522  0.0586 -0.7946  1.3722
   78MOL    H2218656   6.257   0.934   6.525  0.1100 -1.3992 -1.0676
   78MOL    H2318657   6.084   0.900   6.521  0.1021 -1.7274 -1.3239
   78MOL    H2418658   5.954   0.994   6.287  0.8135 -2.3308  0.7460
   78MOL    H2518659   6.057   1.008   6.141 -0.7752  0.0483 -0.1358
   78MOL    O2618660   6.149   1.239   6.190  0.1536  0.2002 -0.0250
   78MOL    C2718661   6.190   1.366   6.217  0.9862 -0.4207 -0.7027
   78MOL    C2818662   6.340   1.347   6.258 -0.5947  0.1856 -0.7189
   78MOL    C2918663   6.158   1.460   6.100  0.5371 -0.2812  0.4967
   78MOL    C3018664   6.179   1.608   6.132  0.3140  0.0986  0.2663
   78MOL    O3118665   6.193   1.650   6.248 -0.2836  0.5125  0.5981
   78MOL    H3218666   6.143   1.413   6.303  0.2700  1.6287 -2.1878
   78MOL    H3318667   6.402   1.322   6.172 -0.6899 -0.5548 -0.5708
   78MOL    H3418668   6.365   1.275   6.336 -3.4803 -1.0841 -0.8881
   78MOL    H3518669   6.383   1.440   6.294 -1.1726  0.3299 -0.3867
   78MOL    H3618670   6.064   1.438   6.049  0.0172  0.2173  1.2400
   78MOL    H3718671   6.222   1.445   6.013  1.6055  2.1781  0.8281
   78MOL    O3818672   6.158   1.690   6.027  0.1027 -0.1091 -0.4513
   78MOL    C3918673   6.141   1.834   6.046  0.1526 -0.2859  0.1968
   78MOL    C4018674   6.271   1.897   6.003  0.1642  0.3394 -0.1957
   78MOL    C4118675   6.012   1.874   5.965 -0.6813 -0.7559  0.2867
   78MOL    C4218676   5.881   1.831   6.032  0.2874 -0.1229  0.5788
   78MOL    O4318677   5.859   1.856   6.151  0.0257  0.0533  0.0980
   78MOL    H4418678   6.123   1.864   6.150 -0.7469  1.4856 -0.4500
   78MOL    H4518679   6.290   1.880   5.897 -0.9052 -0.5558 -0.2449
   78MOL    H4618680   6.356   1.852   6.055  0.1387 -0.3119 -0.7128
   78MOL    H4718681   6.275   2.004   6.023  0.0271 -0.0757  2.1223
   78MOL    H4818682   6.014   1.856   5.858  1.2257  0.8712  0.0193
   78MOL    H4918683   6.014   1.983   5.966  2.8766 -0.7874  0.9768
   78MOL    O5018684   5.796   1.771   5.945  0.1348 -0.6837  0.0713
   78MOL    C5118685   5.668   1.739   5.988  0.3980  0.2691 -0.3581
   78MOL    C5218686   5.556   1.800   5.904  0.1315 -0.3514  0.6643
   78MOL    C5318687   5.653   1.586   5.990  0.2302  0.1083 -0.8114
   78MOL    C5418688   5.739   1.530   6.110  0.1853  0.3839 -0.2480
   78MOL    O5518689   5.826   1.446   6.083  0.2378 -0.0789  0.5297
   78MOL    H5618690   5.640   1.775   6.087 -0.6721  1.3035 -1.0313
   78MOL    H5718691   5.560   1.909   5.908 -1.6058 -0.1336 -1.9897
   78MOL    H5818692   5.451   1.780   5.926  0.8532 -2.8330  2.0651
   78MOL    H5918693   5.580   1.775   5.801  0.3781  1.5683  0.2379
   78MOL    H6018694   5.690   1.546   5.896  1.1124 -1.6619  0.2647
   78MOL    H6118695   5.547   1.565   5.999  0.1286  1.2685  1.0756
   78MOL    O6218696   5.702   1.573   6.229  0.0215 -0.1377  0.5025
   78MOL    C6318697   5.766   1.523   6.345 -0.5801 -0.0289  0.7628
   78MOL    C6418698   5.834   1.635   6.407  0.2708  0.3029 -0.1873
   78MOL    C6518699   5.653   1.464   6.441 -0.0569 -0.2714 -0.6794
   78MOL    C6618700   5.586   1.335   6.405  0.3947 -0.9143  0.7633
   78MOL    O6718701   5.465   1.331   6.401 -0.5658 -0.1095 -0.5392
   78MOL    H6818702   5.845   1.451   6.327  0.4972  1.7149 -1.8403
   78MOL    H6918703   5.878   1.614   6.505 -1.3852 -1.8472  0.1237
   78MOL    H7018704   5.760   1.714   6.420 -0.1100 -0.1686  0.5332
   78MOL    H7118705   5.911   1.686   6.348 -2.3676  3.8309 -0.7468
   78MOL    H7218706   5.579   1.542   6.460  2.2900  1.6853  0.7032
   78MOL    H7318707   5.700   1.442   6.537 -2.6169 -0.7535  0.5078
   78MOL    O7418708   5.676   1.236   6.392  0.5620  0.0335 -0.7498
   78MOL    C7518709   5.637   1.096   6.381 -0.0034 -0.4916  0.1664
   78MOL    C7618710   5.637   1.042   6.237 -0.2852 -0.0355 -0.2682
   78MOL    C7718711   5.732   1.031   6.488  0.4277 -0.5223 -0.0705
   78MOL    C7818712   5.723   0.879   6.509  0.2942 -0.3751 -0.7623
   78MOL    O7918713   5.619   0.817   6.489 -0.4496 -0.7156  0.7795
   78MOL    H8018714   5.532   1.097   6.411 -0.5030 -0.6072 -1.5198
   78MOL    H8118715   5.591   1.120   6.176 -2.0030 -1.3900 -0.7254
   78MOL    H8218716   5.579   0.950   6.234 -0.6015  0.1444  0.4393
   78MOL    H8318717   5.737   1.019   6.200 -0.1222 -0.5716  0.5071
   78MOL    H8418718   5.727   1.070   6.590  0.2776 -1.1796  0.1766
   78MOL    H8518719   5.834   1.052   6.457  0.4037 -0.5797 -0.1883
   78MOL    O8618720   5.832   0.822   6.542  0.1138 -0.0602 -0.0911
   78MOL    C8718721   5.837   0.688   6.576 -0.0242 -0.7810  0.2816
   78MOL    C8818722   5.976   0.635   6.535  0.0070  0.2589 -0.2678
   78MOL    C8918723   5.803   0.659   6.722 -0.0367  0.0366  0.2434
   78MOL    C9018724   5.892   0.718   6.835 -0.2043 -0.3663 -0.6195
   78MOL    O9118725   5.954   0.651   6.914 -0.3530  0.8479  0.2259
   78MOL    H9218726   5.764   0.633   6.517 -0.4520  1.9744 -1.8891
   78MOL    H9318727   5.993   0.533   6.569 -0.7624  0.1413 -0.2170
   78MOL    H9418728   6.057   0.687   6.585  1.5359 -1.6046 -0.7809
   78MOL    H9518729   5.985   0.631   6.426 -1.5859 -0.1145 -0.4108
   78MOL    H9618730   5.803   0.551   6.739  0.4122 -0.1307 -0.7615
   78MOL    H9718731   5.701   0.693   6.740  0.9606  2.9446  0.6600
   78MOL    O9818732   5.878   0.852   6.838 -0.2278  0.1006 -0.5468
   78MOL    C9918733   5.939   0.937   6.933  0.4701  0.6955  0.4524
   78MOL   C10018734   6.027   1.029   6.848 -0.3553  0.0559  0.1221
   78MOL   C10118735   5.845   1.014   7.018 -0.1178  0.1120 -0.0507
   78MOL   C10218736   5.763   0.928   7.111 -0.2873  0.2025  0.2960
   78MOL   O10318737   5.638   0.935   7.108 -0.5037  0.2646  0.4370
   78MOL   H10418738   6.006   0.883   7.000 -0.5220 -0.6953  0.3580
   78MOL   H10518739   6.062   1.111   6.912  0.3545 -1.1542  1.3026
   78MOL   H10618740   5.971   1.076   6.767 -0.7656  0.6478  0.7493
   78MOL   H10718741   6.114   0.979   6.804 -0.9913 -0.2240 -0.8290
   78MOL   H10818742   5.784   1.080   6.956  0.7876 -0.1860 -1.2755
   78MOL   H10918743   5.892   1.090   7.080 -1.3768  1.2879 -0.5145
   78MOL   O11018744   5.840   0.858   7.191 -0.0692  0.2796 -0.0962
   78MOL   C11118745   5.788   0.760   7.285  0.0591 -0.5992  0.1348
   78MOL   C11218746   5.876   0.634   7.284 -0.2111 -0.1222  0.8981
   78MOL   C11318747   5.770   0.821   7.423  0.1733  0.3356 -0.2546
   78MOL   C11418748   5.715   0.727   7.528 -0.2068  0.1416 -0.9002
   78MOL   O11518749   5.777   0.709   7.631 -0.0006  0.1455  0.2136
   78MOL   H11618750   5.687   0.737   7.250 -0.6514  2.3574  0.1480
   78MOL   H11718751   5.838   0.558   7.352 -0.8256 -1.7309 -1.1627
   78MOL   H11818752   5.974   0.652   7.326 -0.6023  0.5417  1.5448
   78MOL   H11918753   5.891   0.592   7.184  1.8390 -0.7413  1.4582
   78MOL   H12018754   5.705   0.906   7.406  2.4266  2.2571  0.4609
   78MOL   H12118755   5.865   0.856   7.464  0.1572 -2.2060  2.1086
   78MOL   O12218756   5.599   0.669   7.487 -0.0276  0.8029  0.5133
   78MOL   C12318757   5.531   0.564   7.552 -0.8944 -0.2734  0.1036
   78MOL   C12418758   5.389   0.597   7.592 -0.5998  0.0102 -0.0750
   78MOL   C12518759   5.547   0.443   7.460  0.0454  0.1184 -0.0128
   78MOL   C12618760   5.522   0.305   7.525 -0.2707  0.0862 -0.0175
   78MOL   O12718761   5.464   0.224   7.459  0.4260 -0.1380  0.0440
   78MOL   H12818762   5.583   0.559   7.648 -2.5890  0.7703  1.1033
   78MOL   H12918763   5.371   0.693   7.641 -0.6508 -1.1943  2.3728
   78MOL   H13018764   5.358   0.517   7.660 -1.1489 -2.0674 -2.7242
   78MOL   H13118765   5.333   0.584   7.500 -0.3772  1.6391 -0.4634
   78MOL   H13218766   5.652   0.435   7.431 -0.1332 -0.5686 -0.4899
   78MOL   H13318767   5.491   0.447   7.366 -0.4913 -1.1663  0.2267
   78MOL   O13418768   5.586   0.289   7.646  0.3007  0.8217  0.2179
   78MOL   C13518769   5.572   0.164   7.717 -0.0268  0.1192 -0.1617
   78MOL   C13618770   5.689   0.155   7.816  0.1812 -0.1873 -0.4239
   78MOL   C13718771   5.425   0.139   7.773  0.4983  0.0861 -0.7533
   78MOL   C13818772   5.410   0.002   7.839 -0.1278  0.7067  0.5865
   78MOL   O13918773   5.440   7.960   7.957  0.1757 -0.0424  0.0425
   78MOL   H14018774   5.603   0.096   7.638  0.6827  0.4491 -0.1757
   78MOL   H14118775   5.790   0.160   7.774  0.9729 -1.9316  1.2071
   78MOL   H14218776   5.704   0.055   7.856 -1.2575  0.6636  2.3922
   78MOL   H14318777   5.698   0.228   7.897  0.0783  0.1494 -0.7132
   78MOL   H14418778   5.351   0.148   7.694 -0.4635  1.0538  0.2524
   78MOL   H14518779   5.409   0.219   7.845  0.7330  0.9858 -1.6852
   78MOL   O14618780   5.351   7.889   7.751  0.0138  0.4264 -0.0021
   78MOL   C14718781   5.309   7.765   7.800  0.4133  0.3991 -0.2978
   78MOL   C14818782   5.152   7.782   7.826  0.0510 -0.7304  0.2470
   78MOL   C14918783   5.343   7.656   7.692  0.2308  0.2437 -0.4659
   78MOL   C15018784   5.308   7.514   7.730 -0.2842  0.7223  0.3423
   78MOL   O15118785   5.385   7.443   7.794 -0.0793  0.1885  0.6265
   78MOL   H15218786   5.357   7.738   7.894 -1.4242 -0.5490  0.3747
   78MOL   H15318787   5.101   7.790   7.730 -0.4020 -0.0562  0.5417
   78MOL   H15418788   5.112   7.868   7.880 -1.2562 -2.1122  1.5407
   78MOL   H15518789   5.108   7.691   7.867 -0.2184 -1.0470 -0.7486
   78MOL   H15618790   5.448   7.666   7.663  0.3923 -0.1544 -0.0387
   78MOL   H15718791   5.294   7.694   7.603  0.8483 -0.8358 -1.2864
   78MOL   O15818792   5.182   7.475   7.694 -0.0149 -0.8422  0.1915
   78MOL   C15918793   5.145   7.339   7.702  0.2422 -0.2589  0.0664
   78MOL   C16018794   5.025   7.322   7.789 -0.3046  0.3609  0.3530
   78MOL   C16118795   5.114   7.276   7.561 -0.1463 -0.7123 -0.0044
   78MOL   C16218796   5.237   7.209   7.492 -0.1427  0.1787 -0.0176
   78MOL   O16318797   5.260   7.091   7.511  0.3111 -0.1528 -0.2001
   78MOL   H16418798   5.213   7.266   7.749 -0.4634 -0.9590  0.0120
   78MOL   H16518799   5.044   7.363   7.888 -2.5526  1.8803  0.1969
   78MOL   H16618800   4.989   7.219   7.791 -1.7220  0.7623 -2.3726
   78MOL   H16718801   4.946   7.387   7.750  0.8858  1.8304  0.3283
   78MOL   H16818802   5.053   7.332   7.491  1.1323 -2.3749 -2.5444
   78MOL   H16918803   5.048   7.191   7.582  0.1040 -1.0791 -0.7036
   78MOL   O17018804   5.319   7.290   7.418 -0.1695  0.0981 -0.0482
   78MOL   C17118805   5.442   7.242   7.359  0.4055  0.1370 -0.1197
   78MOL   C17218806   5.462   7.305   7.221  0.1613  0.0764  0.2260
   78MOL   C17318807   5.568   7.264   7.441  0.0734  1.1054 -0.0197
   78MOL   C17418808   5.577   7.406   7.505 -0.4749  0.5217  0.5920
   78MOL   O17518809   5.503   7.504   7.482 -0.1748  0.4756  0.2630
   78MOL   H17618810   5.427   7.135   7.343 -0.8373  0.1077  1.1750
   78MOL   H17718811   5.372   7.292   7.163 -0.5407  0.7388  1.1489
   78MOL   H17818812   5.544   7.263   7.163 -1.0515 -1.7375 -0.1934
   78MOL   H17918813   5.479   7.413   7.225  1.6307 -0.1738  1.3690
   78MOL   H18018814   5.666   7.245   7.396  0.0357  1.6364 -0.3275
   78MOL   H18118815   5.564   7.195   7.525 -0.4411  0.2598 -0.7372
   78MOL   O18218816   5.687   7.418   7.585 -0.3700  0.6708 -0.0507
   78MOL   C18318817   5.725   7.542   7.649 -0.0960 -0.0500  0.0622
   78MOL   C18418818   5.806   7.495   7.775 -0.0529 -0.4171  0.1775
   78MOL   C18518819   5.811   7.634   7.562 -0.0500  0.0903  0.5388
   78MOL   C18618820   5.835   7.776   7.627 -0.2026 -0.5633 -0.0947
   78MOL   O18718821   5.741   7.855   7.637 -0.1949 -0.0597 -0.4530
   78MOL   H18818822   5.634   7.598   7.672  2.1079  4.3052 -1.2488
   78MOL   H18918823   5.817   7.577   7.846 -0.5903 -2.2948  2.4644
   78MOL   H19018824   5.907   7.464   7.748  0.1132  0.6441 -0.4532
   78MOL   H19118825   5.750   7.414   7.821  1.6807 -0.1962  2.7269
   78MOL   H19218826   5.746   7.649   7.476 -1.5815  0.0034  1.6655
   78MOL   H19318827   5.902   7.577   7.543  0.6563  1.1530  0.7136
   78MOL   O19418828   5.965   7.788   7.674  0.0233  0.0583  0.1009
   78MOL   C19518829   6.001   7.892   7.766  0.0330 -0.4019  0.5546
   78MOL   C19618830   5.999   7.841   7.913 -0.3338  0.1806 -0.2545
   78MOL   C19718831   6.140   7.947   7.718  0.3727 -0.0836 -0.9032
   78MOL   C19818832   6.131   0.035   7.576  0.4130 -0.5253  0.6919
   78MOL   O19918833   6.177   7.955   7.478 -0.5702 -0.0809 -0.3390
   78MOL   H20018834   5.928   7.973   7.761  0.5956  0.0843  0.1658
   78MOL   H20118835   5.901   7.808   7.946  0.6049 -1.6525  0.7947
   78MOL   H20218836   6.024   7.917   0.007 -2.8302 -1.1422  2.0278
   78MOL   H20318837   6.069   7.758   7.926 -1.7099 -0.9101  0.3692
   78MOL   H20418838   6.195   7.853   7.711  0.6013  0.0580 -1.0074
   78MOL   H20518839   6.201   0.032   7.780  1.0249  0.1981 -1.8365
   78MOL   O20618840   6.058   0.150   7.577  0.0718  0.0384 -0.3669
   78MOL   C20718841   6.021   0.209   7.458  0.1936  0.1874  0.3736
   78MOL   C20818842   5.884   0.283   7.477 -0.4666  0.0752 -0.1773
   78MOL   C20918843   6.141   0.293   7.412 -0.0941 -0.1723  0.3757
   78MOL   C21018844   6.116   0.356   7.273  0.0753  0.1139  0.3288
   78MOL   O21118845   6.070   0.295   7.174 -0.4064 -0.0013 -0.0791
   78MOL   H21218846   6.014   0.128   7.385 -0.6848 -1.0909  1.8435
   78MOL   H21318847   5.889   0.386   7.513  1.1540  0.7730 -2.3277
   78MOL   H21418848   5.818   0.221   7.538  0.5791  0.4173  1.3439
   78MOL   H21518849   5.843   0.286   7.376 -2.0193 -0.1621  0.4235
   78MOL   H21618850   6.238   0.244   7.412 -0.0528 -0.1223  1.7359
   78MOL   H21718851   6.134   0.377   7.481  1.3690  0.6068 -0.4121
   78MOL   O21818852   6.173   0.476   7.275  0.8433  0.1070  0.0752
   78MOL   C21918853   6.236   0.528   7.162  0.0427  1.4385  0.6447
   78MOL   C22018854   6.191   0.674   7.150 -0.2163  0.0555 -0.0197
   78MOL   C22118855   6.386   0.485   7.169 -0.4125  0.3871  0.1491
   78MOL   C22218856   6.450   0.478   7.034  0.6450  0.2310  0.1337
   78MOL   O22318857   6.548   0.548   7.007  0.0005 -0.0879 -0.2848
   78MOL   H22418858   6.187   0.475   7.080  1.0739  0.6315  0.5386
   78MOL   H22518859   6.226   0.738   7.231  0.1509  1.2684 -1.1219
   78MOL   H22618860   6.082   0.676   7.142 -0.2817 -0.3002  0.7676
   78MOL   H22718861   6.220   0.714   7.053 -0.5139  3.4187  1.2048
   78MOL   H22818862   6.394   0.380   7.197 -2.8757 -0.2689 -1.4188
   78MOL   H22918863   6.446   0.547   7.236  0.3891  1.1337 -1.2201
   78MOL   O23018864   6.388   0.398   6.945 -0.3064  0.4104 -0.3812
   78MOL   C23118865   6.416   0.396   6.812 -0.5092 -0.2098 -0.3474
   78MOL   C23218866   6.542   0.308   6.793 -0.5466 -0.4625  0.1295
   78MOL   C23318867   6.287   0.351   6.741  0.4284  0.5827 -0.2547
   78MOL   C23418868   6.277   0.361   6.591  1.0370  0.1600 -0.6482
   78MOL   O23518869   6.345   0.447   6.536 -0.5998  0.6394  0.1813
   78MOL   H23618870   6.447   0.497   6.787 -0.3095  0.6701  3.1902
   78MOL   H23718871   6.632   0.322   6.853  0.4806 -0.7590 -1.3192
   78MOL   H23818872   6.568   0.327   6.689 -1.0585  1.3391  0.3151
   78MOL   H23918873   6.522   0.202   6.798  1.2587 -0.7472  2.0930
   78MOL   H24018874   6.229   0.436   6.779  1.9924  1.8623 -0.6576
   78MOL   H24118875   6.252   0.257   6.784  1.9064 -0.7983 -2.0089
   78MOL   H24218876   6.215   0.280   6.551 -1.1988  0.1155  2.7283
   79MOL     O118877   1.276   0.820   7.594 -0.1363 -0.8031  0.0676
   79MOL     C218878   1.182   0.836   7.709  0.1779 -0.6799  0.1729
   79MOL     C318879   1.259   0.865   7.839  0.7090 -0.1086  0.3477
   79MOL     C418880   1.081   0.947   7.673  0.1683 -0.3463 -0.1180
   79MOL     C518881   0.948   0.950   7.755  1.1537 -0.6009  0.3449
   79MOL     O618882   0.852   1.019   7.719 -0.6588  0.0845 -0.8229
   79MOL     H718883   1.137   0.738   7.724  1.2701 -1.0912  0.7832
   79MOL     H818884   1.308   0.962   7.852 -0.5714  0.0566  4.5063
   79MOL     H918885   1.347   0.800   7.843 -0.3728 -1.6007 -0.0137
   79MOL    H1018886   1.201   0.864   7.931  0.8286 -0.6863  0.4184
   79MOL    H1118887   1.054   0.934   7.569  2.2761 -0.8006 -0.6297
   79MOL    H1218888   1.128   1.046   7.680 -2.5970  0.9092  1.4676
   79MOL    H1318889   1.307   0.907   7.573 -0.6579 -0.9595 -1.3981
   79MOL    O1418890   0.957   0.875   7.868  0.0331  0.0549 -0.0857
   79MOL    C1518891   0.845   0.865   7.955  0.7360 -0.8291 -0.4918
   79MOL    C1618892   0.765   0.742   7.929 -0.2658 -0.2846  0.3671
   79MOL    C1718893   0.893   0.870   0.125 -0.1137  0.0360 -0.3718
   79MOL    C1818894   0.930   1.018   0.164  0.3636  0.2525 -0.3159
   79MOL    O1918895   0.868   1.117   0.121 -0.3935 -0.3966  0.3611
   79MOL    H2018896   0.772   0.943   7.938  1.6914  0.4657  1.2044
   79MOL    H2118897   0.732   0.732   7.825 -0.0279 -0.7986  0.3397
   79MOL    H2218898   0.682   0.740   0.020 -0.0207  2.2778  0.7693
   79MOL    H2318899   0.830   0.659   7.957 -2.0986 -1.7937  0.2535
   79MOL    H2418900   0.981   0.808   0.145  0.6630  1.5714  1.1435
   79MOL    H2518901   0.819   0.820   0.188 -0.9385  1.2716 -0.3265
   79MOL    O2618902   1.026   1.026   0.261  0.0403  0.1945 -0.1201
   79MOL    C2718903   1.048   1.150   0.327  0.0573  0.7385 -0.1295
   79MOL    C2818904   0.969   1.157   0.466  0.3446  0.3994  0.3764
   79MOL    C2918905   1.199   1.164   0.347 -0.0756 -0.3100 -0.5552
   79MOL    C3018906   1.280   1.180   0.219  0.2288 -0.6873 -0.3543
   79MOL    O3118907   1.392   1.128   0.209 -0.5105  0.0493 -0.9131
   79MOL    H3218908   1.010   1.238   0.275  0.2055  0.9534  0.1195
   79MOL    H3318909   0.977   1.249   0.525 -1.5689  1.2095 -0.5688
   79MOL    H3418910   0.993   1.070   0.527  1.5948  0.3151 -0.2279
   79MOL    H3518911   0.865   1.154   0.432  0.5102  0.1638 -0.1119
   79MOL    H3618912   1.238   1.076   0.398 -0.2767 -0.4989 -0.7193
   79MOL    H3718913   1.229   1.240   0.418  0.9085  1.4923 -2.8187
   79MOL    O3818914   1.218   1.256   0.128  0.6610  0.2164 -0.0929
   79MOL    C3918915   1.267   1.265   0.000 -0.6416  0.4510  0.1335
   79MOL    C4018916   1.151   1.219   7.890 -0.2530 -0.3084  0.2413
   79MOL    C4118917   1.308   1.407   7.940 -0.0949 -0.9727 -0.3927
   79MOL    C4218918   1.368   1.407   7.800 -0.6925  0.0433 -0.3462
   79MOL    O4318919   1.310   1.446   7.701  0.2411 -1.0035 -0.0269
   79MOL    H4418920   1.352   1.200   7.960 -1.5646 -0.1231 -2.1331
   79MOL    H4518921   1.072   1.291   7.870  0.9395  0.3413 -2.2942
   79MOL    H4618922   1.106   1.126   7.925  0.3729 -0.0870  1.6563
   79MOL    H4718923   1.192   1.210   7.790  0.0599 -1.0932  0.4382
   79MOL    H4818924   1.386   1.435   0.031 -1.5463  0.6489  0.6124
   79MOL    H4918925   1.220   1.471   7.951  1.2056  0.8618 -0.4649
   79MOL    O5018926   1.489   1.359   7.797 -0.1510 -0.0558 -0.5659
   79MOL    C5118927   1.568   1.364   7.670  0.4786 -0.2171 -0.8920
   79MOL    C5218928   1.708   1.333   7.706  0.4919  0.0983 -0.5388
   79MOL    C5318929   1.500   1.278   7.550 -0.3225  0.2289  0.5299
   79MOL    C5418930   1.492   1.134   7.583  0.2641 -0.7017  0.0692
   79MOL    O5518931   1.383   1.076   7.580  0.5893  0.2551  0.2271
   79MOL    H5618932   1.559   1.469   7.644  1.9629  0.8671  2.6849
   79MOL    H5718933   1.739   1.408   7.779 -1.0491 -1.9060  2.3092
   79MOL    H5818934   1.781   1.331   7.626 -0.5174  1.2631 -1.5044
   79MOL    H5918935   1.716   1.236   7.757 -1.1335  0.0709 -0.3110
   79MOL    H6018936   1.555   1.282   7.456 -0.9494 -1.3551  0.0851
   79MOL    H6118937   1.397   1.303   7.523 -0.5359 -0.4337  0.7262
   79MOL    O6218938   1.606   1.079   7.609  0.0831  0.2744 -0.0834
   79MOL    C6318939   1.610   0.938   7.640 -0.0588 -0.0712  0.0328
   79MOL    C6418940   1.629   0.855   7.509  0.5714 -0.3128  0.2294
   79MOL    C6518941   1.732   0.912   7.722 -0.9864 -0.8911 -0.0939
   79MOL    C6618942   1.710   0.945   7.875  0.2428  0.6570  0.2355
   79MOL    O6718943   1.607   0.904   7.930 -0.0423 -0.0634  0.0475
   79MOL    H6818944   1.521   0.904   7.694 -0.3689  1.9564  0.8552
   79MOL    H6918945   1.581   0.758   7.519 -2.8683  1.3485  0.7860
   79MOL    H7018946   1.730   0.827   7.482  0.8970  1.7990 -0.9229
   79MOL    H7118947   1.577   0.902   7.425 -0.0581 -0.6587  0.4174
   79MOL    H7218948   1.821   0.965   7.689 -0.1479 -2.9831 -1.3126
   79MOL    H7318949   1.766   0.809   7.713  2.5298  0.1917  0.0763
   79MOL    O7418950   1.793   1.037   7.927 -0.0280 -0.1031 -0.2496
   79MOL    C7518951   1.802   1.059   0.083  0.5852  0.2738 -0.0209
   79MOL    C7618952   1.943   1.118   0.098 -1.0513 -0.2261 -0.6510
   79MOL    C7718953   1.685   1.150   0.130 -0.2742 -0.6018  0.0068
   79MOL    C7818954   1.710   1.301   0.142 -0.5304  0.0451 -0.0889
   79MOL    O7918955   1.745   1.360   0.042 -0.5436  0.0800  0.2808
   79MOL    H8018956   1.785   0.969   0.141 -1.5421  1.2047  0.8279
   79MOL    H8118957   2.026   1.050   0.079 -1.9309 -1.6133  0.3332
   79MOL    H8218958   1.962   1.164   0.195  2.6197  2.1157 -2.3646
   79MOL    H8318959   1.960   1.195   0.024  1.3821 -0.2600 -0.1582
   79MOL    H8418960   1.652   1.120   0.230  0.0007 -0.0679  0.2601
   79MOL    H8518961   1.599   1.149   0.062 -0.5265  0.4454  0.2965
   79MOL    O8618962   1.688   1.360   0.265 -0.2856 -0.3373 -0.2655
   79MOL    C8718963   1.707   1.502   0.284 -0.8644 -0.2140 -0.2579
   79MOL    C8818964   1.589   1.582   0.213  0.1198 -0.2780 -0.0024
   79MOL    C8918965   1.716   1.530   0.437  0.4363 -0.1986  0.0624
   79MOL    C9018966   1.591   1.515   0.519  0.6134  0.5568  0.0731
   79MOL    O9118967   1.497   1.439   0.486 -0.6691 -0.2259  0.0337
   79MOL    H9218968   1.793   1.546   0.234 -0.9417 -1.6006 -1.6475
   79MOL    H9318969   1.490   1.555   0.248 -0.4102  1.5319 -0.0657
   79MOL    H9418970   1.601   1.584   0.104  0.3409  0.7984  0.0339
   79MOL    H9518971   1.601   1.688   0.236  2.2711 -0.0714 -1.8619
   79MOL    H9618972   1.754   1.631   0.454  0.0222 -0.3454  1.9677
   79MOL    H9718973   1.785   1.458   0.480 -1.3521 -1.1972  1.3052
   79MOL    O9818974   1.604   1.599   0.626 -0.3996  0.3635 -0.2041
   79MOL    C9918975   1.514   1.582   0.733 -0.0130  0.5104  0.2663
   79MOL   C10018976   1.588   1.621   0.863  0.1158  0.0606 -0.2444
   79MOL   C10118977   1.400   1.676   0.711 -0.0575 -0.5063 -0.3390
   79MOL   C10218978   1.265   1.648   0.788  1.4673  0.5087  0.1582
   79MOL   O10318979   1.241   1.538   0.838  0.0175 -0.0596 -0.0356
   79MOL   H10418980   1.471   1.482   0.735  0.7123  0.1213 -2.0587
   79MOL   H10518981   1.680   1.563   0.876  0.1033 -0.5707 -2.6188
   79MOL   H10618982   1.520   1.609   0.947  1.2941  0.9521  0.8406
   79MOL   H10718983   1.629   1.721   0.854  0.3768 -0.0181  0.0510
   79MOL   H10818984   1.377   1.681   0.604 -0.7149  1.0969 -0.1506
   79MOL   H10918985   1.434   1.778   0.727 -1.0634 -0.1679 -0.2899
   79MOL   O11018986   1.180   1.748   0.773  0.1971 -0.4976 -0.2774
   79MOL   C11118987   1.054   1.737   0.836 -0.1344 -0.6848 -0.8486
   79MOL   C11218988   1.031   1.875   0.893  0.4253 -0.7929  0.1644
   79MOL   C11318989   0.948   1.699   0.739 -0.1676  0.3024  0.0937
   79MOL   C11418990   0.938   1.554   0.694  1.1786 -0.3988 -1.6797
   79MOL   O11518991   1.006   1.515   0.598 -0.3757  0.1455 -0.4346
   79MOL   H11618992   1.051   1.666   0.918 -2.7921 -0.8192 -1.0090
   79MOL   H11718993   0.931   1.876   0.935  1.2788 -1.6051  2.2479
   79MOL   H11818994   1.038   1.939   0.805  1.8610  1.6779  2.0149
   79MOL   H11918995   1.103   1.910   0.966 -1.0817 -2.5844  2.5558
   79MOL   H12018996   0.941   1.767   0.654 -1.2776 -0.2432 -0.2591
   79MOL   H12118997   0.858   1.712   0.799 -0.5556  0.1609 -0.4532
   79MOL   O12218998   0.842   1.488   0.761 -0.0682 -0.3330  0.1908
   79MOL   C12318999   0.815   1.345   0.767 -0.0383 -0.4290  0.0835
   79MOL   C12419000   0.890   1.300   0.885 -0.1901  0.1536 -0.2795
   79MOL   C12519001   0.663   1.323   0.781  1.1567 -0.4952  0.1117
   79MOL   C12619002   0.592   1.337   0.647  0.6443  0.3024  0.6698
   79MOL   O12719003   0.491   1.407   0.635 -0.1223 -0.6604  0.4873
   79MOL   H12819004   0.852   1.292   0.679  2.8400 -0.8900  1.5147
   79MOL   H12919005   0.867   1.194   0.895 -2.8754  0.6445 -0.7842
   79MOL   H13019006   0.858   1.357   0.972  1.7005 -0.4810  0.8500
   79MOL   H13119007   0.996   1.313   0.865 -0.2184  2.1388  0.7391
   79MOL   H13219008   0.614   1.393   0.848  0.8895 -0.1821 -0.4096
   79MOL   H13319009   0.643   1.225   0.825 -0.8752 -0.8954 -1.6319
   79MOL   O13419010   0.643   1.263   0.543 -0.6893  0.1293 -0.1519
   79MOL   C13519011   0.577   1.266   0.414 -0.1229  0.0179 -0.0784
   79MOL   C13619012   0.671   1.334   0.308 -0.2398  0.0405 -0.0070
   79MOL   C13719013   0.541   1.123   0.361 -0.2939  0.4340 -0.6514
   79MOL   C13819014   0.393   1.111   0.323 -1.0748  0.8983 -0.0902
   79MOL   O13919015   0.330   1.039   0.394 -0.1130  0.0433  0.1132
   79MOL   H14019016   0.489   1.329   0.423 -0.1894  0.2110 -2.0257
   79MOL   H14119017   0.762   1.283   0.276 -1.4546 -0.8375 -2.1928
   79MOL   H14219018   0.703   1.435   0.332 -0.3889 -0.0671  0.6363
   79MOL   H14319019   0.611   1.349   0.218 -2.6825  4.6679  2.2514
   79MOL   H14419020   0.577   1.056   0.439  0.5848  0.4569 -1.0351
   79MOL   H14519021   0.600   1.098   0.273  1.0886  2.0588 -0.2159
   79MOL   O14619022   0.344   1.164   0.207 -0.0016  0.4866 -0.0217
   79MOL   C14719023   0.219   1.121   0.153  0.3402  0.4446 -0.4840
   79MOL   C14819024   0.145   1.243   0.092  0.2877 -0.5564  0.5773
   79MOL   C14919025   0.279   1.025   0.035  0.6299  0.4416  0.1041
   79MOL   C15019026   0.174   0.926   7.956 -0.6414  0.2688 -0.2568
   79MOL   O15119027   0.162   0.812   0.019 -0.7192  0.0922 -0.2055
   79MOL   H15219028   0.151   1.064   0.216 -1.7377  0.7428 -2.4171
   79MOL   H15319029   0.118   1.296   0.183 -1.1300 -2.1785  1.1407
   79MOL   H15419030   0.054   1.202   0.047  1.4070 -0.6676 -1.6804
   79MOL   H15519031   0.211   1.294   0.022  0.5075 -0.9315  0.5108
   79MOL   H15619032   0.366   0.973   0.074  2.1053  0.8110 -2.5582
   79MOL   H15719033   0.322   1.095   7.943  1.6359 -1.4554 -1.1778
   79MOL   O15819034   0.090   0.980   7.874 -0.3414  0.2112 -0.1869
   79MOL   C15919035   7.956   0.905   7.829  0.5477 -0.2051  0.4725
   79MOL   C16019036   7.832   0.992   7.819 -0.1497  0.2609 -1.4710
   79MOL   C16119037   7.970   0.849   7.685 -0.2337  0.2663  0.5248
   79MOL   C16219038   0.083   0.730   7.677 -0.0088  0.1433  0.1202
   79MOL   O16319039   0.188   0.739   7.613 -0.3193 -0.2044 -0.1341
   79MOL   H16419040   7.933   0.826   7.900  0.9404 -0.0707  0.7535
   79MOL   H16519041   7.843   1.085   7.763 -1.1657 -0.9242 -3.6987
   79MOL   H16619042   7.816   1.015   7.925  1.5486 -3.4271 -0.3254
   79MOL   H16719043   7.742   0.946   7.778 -0.2224  0.0637 -1.0951
   79MOL   H16819044   0.037   0.931   7.630 -1.3001  0.9236  0.5759
   79MOL   H16919045   7.874   0.836   7.636 -0.3634 -3.0768  1.5144
   79MOL   O17019046   0.039   0.624   7.757 -0.1592  0.2987  0.1444
   79MOL   C17119047   0.118   0.513   7.784  0.0137  0.2398  0.4780
   79MOL   C17219048   0.078   0.462   7.922  0.0858 -0.4582  0.6062
   79MOL   C17319049   0.103   0.407   7.665  0.1167  0.2208  0.2199
   79MOL   C17419050   0.204   0.297   7.671 -0.0187 -0.1331 -0.1424
   79MOL   O17519051   0.177   0.176   7.652 -0.1955 -0.0434 -0.7984
   79MOL   H17619052   0.221   0.549   7.785  0.9352 -2.3052  1.7589
   79MOL   H17719053   0.086   0.536   0.022 -0.5832 -0.7345  0.9267
   79MOL   H17819054   0.119   0.372   7.968 -1.2679 -1.5629 -0.3158
   79MOL   H17919055   7.950   0.447   7.923 -0.0571  0.1261 -2.4806
   79MOL   H18019056   0.118   0.461   7.571 -0.4992  0.8393  0.4750
   79MOL   H18119057   0.006   0.356   7.670  0.1701 -0.1201 -1.7743
   79MOL   O18219058   0.323   0.344   7.684 -0.3130  0.1012 -0.0119
   79MOL   C18319059   0.425   0.254   7.710 -0.7691  0.1717  1.1301
   79MOL   C18419060   0.491   0.226   7.580  0.4834 -0.7717 -0.2552
   79MOL   C18519061   0.520   0.314   7.812 -0.4659  0.0809 -0.1647
   79MOL   C18619062   0.482   0.277   7.950  0.3217  0.1425 -0.1666
   79MOL   O18719063   0.363   0.277   0.007 -0.5920 -0.1251 -0.0852
   79MOL   H18819064   0.385   0.160   7.748 -2.9011  0.2442 -0.8065
   79MOL   H18919065   0.572   0.155   7.593 -0.3032 -1.4732  0.8639
   79MOL   H19019066   0.538   0.319   7.547 -1.7660  0.3419 -0.4329
   79MOL   H19119067   0.424   0.182   7.507 -0.4752  0.4628 -0.1452
   79MOL   H19219068   0.532   0.420   7.792 -0.4413 -0.0260 -0.7195
   79MOL   H19319069   0.619   0.269   7.804 -0.4054 -0.8080  4.3436
   79MOL   O19419070   0.587   0.240   0.043 -0.5295  0.1082  0.2969
   79MOL   C19519071   0.566   0.199   0.177 -0.2559  0.4012  0.2312
   79MOL   C19619072   0.591   0.043   0.176  0.8907 -0.2959  0.6705
   79MOL   C19719073   0.664   0.268   0.273 -0.4998  0.1602 -0.4457
   79MOL   C19819074   0.651   0.419   0.283 -0.7835 -0.5228  0.2722
   79MOL   O19919075   0.752   0.484   0.295  0.3144 -0.1959 -0.4206
   79MOL   H20019076   0.463   0.221   0.205 -1.2220 -0.5650 -2.4606
   79MOL   H20119077   0.524   7.977   0.103  0.7743 -0.7156  1.0409
   79MOL   H20219078   0.576   0.010   0.279  1.0182  1.8935  1.4134
   79MOL   H20319079   0.691   0.013   0.144  0.3001  0.8124 -2.4101
   79MOL   H20419080   0.766   0.243   0.244 -0.3854 -2.7961  2.2676
   79MOL   H20519081   0.655   0.212   0.366  0.4125  1.4725  0.4456
   79MOL   O20619082   0.521   0.462   0.283  0.1885  0.1993  0.1058
   79MOL   C20719083   0.490   0.604   0.289 -0.0719  0.5189  0.1969
   79MOL   C20819084   0.382   0.628   0.184 -0.5213  0.3631  0.3981
   79MOL   C20919085   0.453   0.657   0.430 -0.3774 -0.2646 -0.2394
   79MOL   C21019086   0.567   0.679   0.533  0.0116 -0.1678 -0.5935
   79MOL   O21119087   0.574   0.602   0.628 -0.1756 -0.2333 -0.1661
   79MOL   H21219088   0.577   0.657   0.253 -0.4577  0.7535 -0.4009
   79MOL   H21319089   0.294   0.564   0.186  0.6861 -1.2993  2.7783
   79MOL   H21419090   0.430   0.601   0.089  2.5062  0.9751  1.7103
   79MOL   H21519091   0.354   0.732   0.171 -0.5062  0.5250  1.6424
   79MOL   H21619092   0.378   0.590   0.472 -0.0618 -1.3004 -1.3173
   79MOL   H21719093   0.393   0.747   0.417 -1.7550 -1.3456 -1.4994
   79MOL   O21819094   0.639   0.783   0.515 -0.3357 -0.6374 -0.0872
   79MOL   C21919095   0.757   0.810   0.598  0.4059 -0.0854 -0.2219
   79MOL   C22019096   0.883   0.809   0.510 -0.1706 -0.8196  0.0200
   79MOL   C22119097   0.750   0.946   0.660  0.0352 -0.5808 -0.6899
   79MOL   C22219098   0.633   0.950   0.766 -0.4128  0.7676 -0.0461
   79MOL   O22319099   0.651   0.917   0.880  0.0087 -0.3329  0.0885
   79MOL   H22419100   0.761   0.733   0.675 -0.3347  0.7764  0.6964
   79MOL   H22519101   0.893   0.717   0.453 -2.2239 -0.3598 -1.1198
   79MOL   H22619102   0.978   0.807   0.563 -0.4530 -1.0006  0.5186
   79MOL   H22719103   0.885   0.892   0.439 -0.9533  0.7135  1.7457
   79MOL   H22819104   0.723   1.018   0.583 -1.7045  1.2538  1.5254
   79MOL   H22919105   0.843   0.992   0.695 -0.5412  1.9011 -2.2775
   79MOL   O23019106   0.523   1.011   0.727 -0.2056 -0.1744  0.2181
   79MOL   C23119107   0.397   1.003   0.801 -0.1261 -0.6877  1.1088
   79MOL   C23219108   0.311   1.127   0.761 -1.3152 -0.2098 -0.9354
   79MOL   C23319109   0.334   0.875   0.757 -0.2301  0.4354 -0.3368
   79MOL   C23419110   0.215   0.839   0.844 -0.6188 -0.8100 -0.4254
   79MOL   O23519111   0.113   0.785   0.795 -0.1649  0.0208  0.4909
   79MOL   H23619112   0.409   1.014   0.909 -0.1218 -2.8587  1.3453
   79MOL   H23719113   0.369   1.219   0.775 -1.2665 -0.4007  0.1092
   79MOL   H23819114   0.219   1.140   0.817 -0.1248  1.1113  0.7570
   79MOL   H23919115   0.292   1.123   0.654 -0.7731 -0.1549 -1.0355
   79MOL   H24019116   0.399   0.787   0.765 -0.3026  0.3185 -1.0323
   79MOL   H24119117   0.302   0.879   0.653 -1.1977  0.8315 -0.0251
   79MOL   H24219118   0.233   0.873   0.946  0.9889  1.1749 -1.3504
   80MOL     O119119   0.189   5.971   3.623 -0.3347 -0.1381 -0.2727
   80MOL     C219120   0.230   5.898   3.735  0.0756 -0.6592  0.2199
   80MOL     C319121   0.287   5.761   3.690 -0.5789  0.1195 -0.2868
   80MOL     C419122   0.329   5.983   3.813  0.1282  0.3721 -0.4976
   80MOL     C519123   0.398   5.916   3.932 -0.4409 -0.0380  0.1903
   80MOL     O619124   0.343   5.836   4.005  0.0328  0.3019 -0.4934
   80MOL     H719125   0.144   5.870   3.796  0.5890  1.2023  1.8564
   80MOL     H819126   0.286   5.682   3.765  2.1585  1.3836  1.1495
   80MOL     H919127   0.391   5.761   3.659 -0.9258 -0.5431 -1.5028
   80MOL    H1019128   0.228   5.724   3.605 -2.2113  2.7329 -0.3248
   80MOL    H1119129   0.276   6.063   3.864 -0.5958 -0.8301  0.6678
   80MOL    H1219130   0.399   6.006   3.732  1.0081  0.2636  0.2149
   80MOL    H1319131   0.124   5.928   3.570  1.0519  0.0033 -2.1688
   80MOL    O1419132   0.533   5.933   3.926  0.1589 -0.5825 -0.3569
   80MOL    C1519133   0.619   5.865   4.021 -0.7615  0.1706 -0.1853
   80MOL    C1619134   0.744   5.806   3.958 -0.1028  0.4173 -0.3950
   80MOL    C1719135   0.666   5.951   4.144 -0.7781 -0.1196 -0.0808
   80MOL    C1819136   0.758   6.072   4.117 -0.3782  0.3012 -0.4370
   80MOL    O1919137   0.719   6.185   4.101  0.5265 -0.7534  0.4653
   80MOL    H2019138   0.568   5.779   4.064  1.8389 -0.5772  1.4943
   80MOL    H2119139   0.779   5.720   4.015  1.8820  0.9397 -0.7855
   80MOL    H2219140   0.824   5.879   3.942 -0.3744  0.8664  0.2705
   80MOL    H2319141   0.712   5.775   3.859 -1.4747  1.3017 -0.2445
   80MOL    H2419142   0.732   5.888   4.203  1.8652  1.4999 -1.2505
   80MOL    H2519143   0.578   5.985   4.200 -0.8311  1.7089 -1.2155
   80MOL    O2619144   0.891   6.037   4.143  0.3142  0.1772 -0.1100
   80MOL    C2719145   1.000   6.126   4.149 -0.0670 -0.0687 -0.4967
   80MOL    C2819146   1.079   6.115   4.284 -0.6754 -0.3025 -0.0804
   80MOL    C2919147   1.088   6.118   4.025 -0.1042  0.9563  0.2313
   80MOL    C3019148   1.110   5.979   3.977  0.2890  0.7647  0.3366
   80MOL    O3119149   1.054   5.941   3.868  0.0341 -0.0545  0.1970
   80MOL    H3219150   0.963   6.229   4.150 -0.1704 -0.1087  0.0400
   80MOL    H3319151   1.112   6.012   4.298  2.1150  0.5134 -0.2777
   80MOL    H3419152   1.025   6.138   4.375  0.5959  3.5302 -0.1923
   80MOL    H3519153   1.155   6.194   4.281 -0.0589 -0.8539  0.7278
   80MOL    H3619154   1.185   6.160   4.051  0.5428  0.1188 -0.7932
   80MOL    H3719155   1.044   6.170   3.939  0.9628 -0.9408 -1.5055
   80MOL    O3819156   1.180   5.899   4.061  0.3954 -0.1555 -0.0087
   80MOL    C3919157   1.191   5.754   4.031 -0.3216 -0.5694  0.0148
   80MOL    C4019158   1.326   5.726   3.953  0.2360 -0.0009 -0.0089
   80MOL    C4119159   1.162   5.676   4.163  0.3272  0.1042 -0.3901
   80MOL    C4219160   1.165   5.524   4.154  0.4671 -0.0623  0.1313
   80MOL    O4319161   1.258   5.457   4.200  0.0402  0.2491  0.6266
   80MOL    H4419162   1.111   5.727   3.962 -1.2521  0.5388  0.6532
   80MOL    H4519163   1.327   5.620   3.930  0.1826 -0.2598  1.1158
   80MOL    H4619164   1.414   5.748   4.014  0.1786 -0.9410  0.4230
   80MOL    H4719165   1.339   5.788   3.864  0.8226 -0.1995 -0.0607
   80MOL    H4819166   1.061   5.701   4.196  0.8466  1.5344  0.1961
   80MOL    H4919167   1.230   5.713   4.240 -0.6908 -0.9680  1.0542
   80MOL    O5019168   1.056   5.472   4.094  0.5351  0.8592 -0.2343
   80MOL    C5119169   1.029   5.327   4.089 -0.5749 -0.2439  0.6218
   80MOL    C5219170   0.899   5.302   4.153  0.0794 -0.0037 -0.3131
   80MOL    C5319171   1.041   5.302   3.939 -0.2143  0.9776 -0.1538
   80MOL    C5419172   1.047   5.154   3.891  0.3099  0.3296 -0.8228
   80MOL    O5519173   0.944   5.099   3.856 -0.2863  0.0058  0.0781
   80MOL    H5619174   1.106   5.271   4.141 -2.2856 -1.6733  1.7034
   80MOL    H5719175   0.830   5.385   4.134 -1.2682 -0.8482  0.8346
   80MOL    H5819176   0.921   5.308   4.259 -0.7672  0.5231 -0.1581
   80MOL    H5919177   0.858   5.206   4.120 -1.4290  0.6300 -0.3486
   80MOL    H6019178   1.129   5.353   3.900  1.1559  0.3751  2.0755
   80MOL    H6119179   0.956   5.345   3.885 -1.0434  1.2256  1.3120
   80MOL    O6219180   1.165   5.098   3.917  0.1489 -0.5432 -0.1500
   80MOL    C6319181   1.182   4.961   3.914  0.2766  0.5637 -0.1863
   80MOL    C6419182   1.331   4.930   3.915 -0.6110  0.3542 -0.0816
   80MOL    C6519183   1.103   4.890   4.024 -0.0965 -0.4052  1.0581
   80MOL    C6619184   1.148   4.902   4.167 -0.8198  0.5037  0.2134
   80MOL    O6719185   1.155   4.805   4.241 -0.5617  0.1780 -0.9898
   80MOL    H6819186   1.140   4.927   3.819  1.5746 -1.6723  0.0031
   80MOL    H6919187   1.364   4.976   3.821 -0.2546  0.5631  0.1468
   80MOL    H7019188   1.350   4.823   3.906 -2.6669  0.0201 -0.9492
   80MOL    H7119189   1.378   4.989   3.993 -1.6593  1.3539 -0.1816
   80MOL    H7219190   1.117   4.783   4.007 -1.3944 -0.8723  2.7145
   80MOL    H7319191   0.996   4.912   4.020 -0.0880 -0.3041  1.3915
   80MOL    O7419192   1.175   5.026   4.203 -0.0210 -0.5559  0.0156
   80MOL    C7519193   1.229   5.050   4.329 -0.4297 -0.0232  0.2916
   80MOL    C7619194   1.364   5.104   4.306  0.2062 -0.0481  0.2310
   80MOL    C7719195   1.140   5.144   4.410  0.3069  0.5114  0.0279
   80MOL    C7819196   1.122   5.109   4.559 -0.7968  0.0242 -0.0672
   80MOL    O7919197   1.019   5.103   4.617 -0.0940  0.6968 -0.1169
   80MOL    H8019198   1.245   4.965   4.395  1.3883 -0.5676 -0.8090
   80MOL    H8119199   1.416   5.046   4.229  0.3967 -0.1347  0.4247
   80MOL    H8219200   1.411   5.090   4.404 -0.3670 -1.8015  0.2762
   80MOL    H8319201   1.365   5.205   4.266  2.7541 -0.8197 -1.8139
   80MOL    H8419202   1.035   5.135   4.381  0.2662  0.3220  0.2284
   80MOL    H8519203   1.183   5.244   4.398  1.0243  0.1058 -0.8074
   80MOL    O8619204   1.236   5.090   4.613  0.7965 -0.1125 -0.1147
   80MOL    C8719205   1.245   5.046   4.750 -0.5074 -0.1838  0.6095
   80MOL    C8819206   1.250   4.889   4.746 -0.4267 -0.3279  0.1004
   80MOL    C8919207   1.362   5.105   4.822 -0.7186  0.0156  0.1371
   80MOL    C9019208   1.351   5.256   4.853  0.4178  0.4834 -0.0274
   80MOL    O9119209   1.432   5.339   4.815  0.1414  0.0514 -0.3695
   80MOL    H9219210   1.156   5.073   4.805 -0.4699 -0.2993  0.7297
   80MOL    H9319211   1.159   4.840   4.714  0.0531 -2.1481  1.4648
   80MOL    H9419212   1.264   4.853   4.848  1.8353 -1.6259 -0.6374
   80MOL    H9519213   1.343   4.860   4.696 -0.4764  0.7508 -0.6281
   80MOL    H9619214   1.455   5.106   4.765 -1.4804  2.8730 -1.1602
   80MOL    H9719215   1.382   5.051   4.914 -0.7584 -0.0821  0.0881
   80MOL    O9819216   1.251   5.280   4.938  0.0131  0.6148  0.3609
   80MOL    C9919217   1.227   5.413   4.981 -0.0441 -0.4079  0.2072
   80MOL   C10019218   1.083   5.447   4.950 -0.4197  0.2988 -0.8152
   80MOL   C10119219   1.264   5.441   5.130 -0.1056 -0.7914  0.4987
   80MOL   C10219220   1.405   5.401   5.166 -0.4751  0.0110  0.2396
   80MOL   O10319221   1.435   5.284   5.194  0.0370  0.5267  0.3342
   80MOL   H10419222   1.288   5.480   4.920  1.5274 -0.7013  1.4250
   80MOL   H10519223   1.094   5.477   4.846 -0.1109  0.2500 -0.7983
   80MOL   H10619224   1.029   5.533   4.987 -2.8726 -0.9991 -1.2366
   80MOL   H10719225   1.014   5.363   4.959  0.0544  0.0187  0.2678
   80MOL   H10819226   1.198   5.391   5.200 -1.1655 -1.6819 -1.1003
   80MOL   H10919227   1.256   5.548   5.153  1.0698 -0.5692 -0.1178
   80MOL   O11019228   1.488   5.513   5.165  0.6233 -0.1450  0.0304
   80MOL   C11119229   1.627   5.505   5.193  0.7760 -0.1499  0.5078
   80MOL   C11219230   1.700   5.564   5.074 -0.5758  0.4867  0.7848
   80MOL   C11319231   1.672   5.579   5.320 -0.1576 -0.5984 -0.1570
   80MOL   C11419232   1.629   5.506   5.449 -0.4214 -0.3549  0.7258
   80MOL   O11519233   1.697   5.525   5.549 -0.0173 -0.1689  0.2037
   80MOL   H11619234   1.658   5.401   5.206  1.8728  0.0214 -0.6324
   80MOL   H11719235   1.682   5.671   5.072  2.0994  0.9846  1.2263
   80MOL   H11819236   1.658   5.541   4.976  1.1116 -0.6731  0.3122
   80MOL   H11919237   1.809   5.555   5.071 -0.7166 -1.5265  1.1702
   80MOL   H12019238   1.624   5.677   5.318 -1.7826 -1.3991 -3.2836
   80MOL   H12119239   1.779   5.594   5.327 -0.4231  2.3582 -1.7558
   80MOL   O12219240   1.540   5.406   5.443 -0.0779  0.1780 -0.3710
   80MOL   C12319241   1.526   5.314   5.557 -0.8619 -0.0054  0.1137
   80MOL   C12419242   1.392   5.247   5.536  0.3225  0.0356 -0.2882
   80MOL   C12519243   1.638   5.210   5.563 -1.1900 -0.3890 -0.3081
   80MOL   C12619244   1.659   5.120   5.692 -0.3593 -0.0938 -0.6101
   80MOL   O12719245   1.564   5.072   5.757 -0.7384 -0.7972 -0.1042
   80MOL   H12819246   1.534   5.368   5.652 -0.6771  2.1855 -1.1168
   80MOL   H12919247   1.316   5.322   5.558 -1.9738 -2.4095  0.2900
   80MOL   H13019248   1.358   5.171   5.605 -0.3907  1.0174  0.4532
   80MOL   H13119249   1.387   5.224   5.429  0.6164 -1.0640 -0.0663
   80MOL   H13219250   1.727   5.273   5.563 -1.7960  0.4853  0.6255
   80MOL   H13319251   1.638   5.141   5.479 -1.2434 -0.7679 -0.0019
   80MOL   O13419252   1.785   5.093   5.724 -0.2810 -0.6398  0.0488
   80MOL   C13519253   1.825   5.005   5.823  0.5250  0.0098 -0.4757
   80MOL   C13619254   1.873   4.872   5.768  0.7073 -0.0422  0.2620
   80MOL   C13719255   1.933   5.070   5.900  0.5728 -0.2796  0.4305
   80MOL   C13819256   1.898   5.192   5.991  0.4759 -0.3381  0.3114
   80MOL   O13919257   1.786   5.239   6.003  0.3120 -0.1573  0.0814
   80MOL   H14019258   1.743   4.984   5.891  0.3328  2.0550 -0.0437
   80MOL   H14119259   1.869   4.793   5.844 -0.0791  1.1585  1.5071
   80MOL   H14219260   1.969   4.867   5.718 -0.2766 -3.0763 -1.4539
   80MOL   H14319261   1.806   4.845   5.687  1.1889  3.7672 -1.4973
   80MOL   H14419262   2.014   5.110   5.838 -0.1303 -0.0395 -0.3436
   80MOL   H14519263   1.977   4.993   5.962 -0.7511 -1.8029 -0.4901
   80MOL   O14619264   2.009   5.250   6.039  0.0692 -0.8161  0.1053
   80MOL   C14719265   2.005   5.367   6.120 -0.4223 -0.1768  0.6204
   80MOL   C14819266   2.126   5.362   6.208 -0.2339  0.2021 -0.6124
   80MOL   C14919267   2.003   5.488   6.019 -0.2347 -0.3636 -1.2021
   80MOL   C15019268   1.968   5.620   6.092 -0.1781 -0.5864 -0.6643
   80MOL   O15119269   1.846   5.652   6.102 -1.1663 -0.2622 -0.5746
   80MOL   H15219270   1.917   5.369   6.184 -0.8373  0.4422  0.0320
   80MOL   H15319271   2.111   5.280   6.278  0.4382 -0.1321 -0.8538
   80MOL   H15419272   2.147   5.448   6.271 -2.1072  1.0659 -1.1377
   80MOL   H15519273   2.215   5.361   6.146  1.7431  1.9353  2.0813
   80MOL   H15619274   1.920   5.478   5.949  0.4060  0.2284 -2.0486
   80MOL   H15719275   2.089   5.499   5.954  0.1716 -0.7079 -0.7213
   80MOL   O15819276   2.074   5.685   6.140 -0.5286 -0.2640  0.3083
   80MOL   C15919277   2.053   5.814   6.203  0.1416  0.0737 -0.5965
   80MOL   C16019278   2.120   5.797   6.341 -0.0852 -0.2756 -0.3125
   80MOL   C16119279   2.119   5.921   6.118  0.2158  0.2210  0.7326
   80MOL   C16219280   2.068   6.057   6.161  0.6278  0.5580  0.2519
   80MOL   O16319281   1.949   6.080   6.151 -0.7750 -0.2986 -0.8074
   80MOL   H16419282   1.951   5.840   6.229  0.5107 -0.3098  1.3391
   80MOL   H16519283   2.116   5.887   6.404  0.4891 -0.9750  0.7462
   80MOL   H16619284   2.226   5.775   6.334  0.2994  1.4911 -0.4370
   80MOL   H16719285   2.072   5.718   6.399  1.7035 -0.8561  0.4081
   80MOL   H16819286   2.085   5.905   6.015  0.3740 -1.3943  0.9158
   80MOL   H16919287   2.227   5.906   6.110  0.1855  0.6131 -0.5497
   80MOL   O17019288   2.170   6.131   6.213  0.1672 -0.0713 -0.3170
   80MOL   C17119289   2.152   6.260   6.274  0.5473 -0.5457 -0.2726
   80MOL   C17219290   2.252   6.266   6.388 -0.5952 -0.3253  0.1732
   80MOL   C17319291   2.157   6.385   6.176 -0.3544 -0.2521  0.8609
   80MOL   C17419292   2.301   6.408   6.123  0.6523  0.0893  0.3357
   80MOL   O17519293   2.357   6.519   6.138  0.6675  0.0715  0.3191
   80MOL   H17619294   2.055   6.255   6.324 -0.2620  1.0600 -1.5950
   80MOL   H17719295   2.267   6.370   6.420 -1.4943 -0.1222 -0.0490
   80MOL   H17819296   2.348   6.224   6.358 -0.9631 -0.6004 -0.6228
   80MOL   H17919297   2.221   6.215   6.479 -3.0264  0.2264 -0.3286
   80MOL   H18019298   2.127   6.470   6.237 -0.3438 -0.7059  1.5065
   80MOL   H18119299   2.086   6.384   6.094  2.6126  1.6194 -1.8177
   80MOL   O18219300   2.353   6.299   6.056  0.2282  0.0412  0.2100
   80MOL   C18319301   2.488   6.292   5.996 -0.2614  0.0394  0.1168
   80MOL   C18419302   2.510   6.141   5.999  0.0588  0.0269 -0.5868
   80MOL   C18519303   2.483   6.355   5.849  0.4842 -0.3968 -0.4145
   80MOL   C18619304   2.609   6.316   5.775  0.2225 -0.2340  0.3731
   80MOL   O18719305   2.613   6.245   5.675  0.2682  0.5408 -0.1127
   80MOL   H18819306   2.551   6.346   6.067 -2.0438 -1.4775  2.9585
   80MOL   H18919307   2.470   6.096   6.090 -0.9643 -0.6761 -1.3639
   80MOL   H19019308   2.616   6.118   5.999  0.0665  0.0092 -1.8960
   80MOL   H19119309   2.458   6.080   5.924  0.0551 -2.1785  1.1501
   80MOL   H19219310   2.486   6.459   5.880 -0.4948 -0.7647  0.9797
   80MOL   H19319311   2.392   6.331   5.793  0.5877  1.5341 -1.4448
   80MOL   O19419312   2.718   6.347   5.844 -0.5457 -0.1150  0.6237
   80MOL   C19519313   2.846   6.314   5.792  0.8132 -0.5695 -0.1889
   80MOL   C19619314   2.936   6.442   5.824  0.6028 -0.3912 -0.2375
   80MOL   C19719315   2.905   6.194   5.874 -0.0085 -0.3077  0.6978
   80MOL   C19819316   3.018   6.117   5.803 -0.2890 -0.9338  0.3823
   80MOL   O19919317   3.097   6.164   5.717  0.3778 -0.0493 -0.0901
   80MOL   H20019318   2.846   6.284   5.688 -0.7583 -2.4036  0.2973
   80MOL   H20119319   3.032   6.430   5.774  0.6953 -0.1538 -0.1157
   80MOL   H20219320   2.964   6.445   5.929  0.1388 -0.3685 -0.1142
   80MOL   H20319321   2.910   6.544   5.795 -0.2054 -0.3638  0.5569
   80MOL   H20419322   2.826   6.122   5.900  0.0479 -0.4604  0.4542
   80MOL   H20519323   2.939   6.238   5.967 -2.7412  0.0709  1.5865
   80MOL   O20619324   3.044   6.010   5.864 -0.1385  0.5274  0.6077
   80MOL   C20719325   3.173   5.955   5.877  0.1654 -0.3524  0.2966
   80MOL   C20819326   3.209   5.971   6.019 -0.0094 -0.0499 -0.2925
   80MOL   C20919327   3.187   5.809   5.827 -0.1140  0.1074  0.3561
   80MOL   C21019328   3.319   5.736   5.850 -0.4136  0.0140  0.2643
   80MOL   O21119329   3.349   5.681   5.954  0.5244  0.2288  0.1127
   80MOL   H21219330   3.241   6.009   5.811  2.0018 -1.8221  0.9406
   80MOL   H21319331   3.317   5.958   6.026 -0.1766 -1.3003  0.2825
   80MOL   H21419332   3.163   5.897   6.086  0.4480  2.2847  2.6946
   80MOL   H21519333   3.174   6.067   6.057 -0.7407 -0.8515  1.1026
   80MOL   H21619334   3.167   5.797   5.720 -0.9609  0.1092  0.5106
   80MOL   H21719335   3.106   5.754   5.875 -0.8940  2.6442  2.0233
   80MOL   O21819336   3.403   5.746   5.751  0.6486 -0.5272  0.1082
   80MOL   C21919337   3.493   5.633   5.731  0.4518  0.7086  0.6127
   80MOL   C22019338   3.464   5.573   5.587  0.0944 -0.0116 -0.4589
   80MOL   C22119339   3.638   5.665   5.742 -0.1219 -0.0350 -0.2510
   80MOL   C22219340   3.692   5.675   5.881  0.0193 -0.0192 -0.2202
   80MOL   O22319341   3.760   5.592   5.931  0.6603  0.0901 -0.5078
   80MOL   H22419342   3.473   5.554   5.803  1.5459  1.7412  2.0744
   80MOL   H22519343   3.356   5.564   5.571  0.0517 -0.9900  0.4037
   80MOL   H22619344   3.501   5.472   5.576  0.5370  0.1171 -0.1511
   80MOL   H22719345   3.504   5.635   5.507  0.4525  0.6717  0.2371
   80MOL   H22819346   3.661   5.758   5.691  2.2538 -0.3897  0.1140
   80MOL   H22919347   3.694   5.589   5.687 -0.5643 -0.6118  0.0923
   80MOL   O23019348   3.653   5.798   5.936 -0.0002 -0.5011 -0.0205
   80MOL   C23119349   3.693   5.830   6.064  1.0998  1.2587 -0.1675
   80MOL   C23219350   3.677   5.981   6.074  0.2928  0.2363  0.0624
   80MOL   C23319351   3.601   5.752   6.168 -0.3268 -0.2853 -0.5850
   80MOL   C23419352   3.659   5.751   6.310  0.1431 -0.2731  0.1232
   80MOL   O23519353   3.772   5.804   6.335  0.3889  0.1882 -0.5312
   80MOL   H23619354   3.793   5.794   6.091 -1.0548 -2.7631  2.8589
   80MOL   H23719355   3.595   6.020   6.014 -0.0120 -3.7000 -2.2122
   80MOL   H23819356   3.770   6.032   6.052 -0.3546  2.1187  1.4930
   80MOL   H23919357   3.645   6.016   6.173  1.3135 -0.4050  0.6347
   80MOL   H24019358   3.578   5.649   6.140  1.3518 -1.9629  3.7142
   80MOL   H24119359   3.499   5.789   6.159 -1.7970 -3.4504  1.8649
   80MOL   H24219360   3.602   5.703   6.389 -1.4359  3.1365  1.1306
   81MOL     O119361   4.758   3.897   0.514  0.3819 -0.0393 -0.3008
   81MOL     C219362   4.690   3.997   0.430  0.9592 -1.0358 -0.4633
   81MOL     C319363   4.758   3.995   0.291 -0.1444 -0.0529  0.4529
   81MOL     C419364   4.543   3.976   0.426  0.7956  0.4413 -0.5585
   81MOL     C519365   4.468   4.087   0.353  0.1662 -1.3758  0.6851
   81MOL     O619366   4.461   4.203   0.390  0.0310 -0.4240 -0.0707
   81MOL     H719367   4.714   4.090   0.481  0.4836 -1.7477  1.0744
   81MOL     H819368   4.711   3.924   0.223  0.0752  1.0247 -0.8296
   81MOL     H919369   4.863   3.965   0.285  0.5158  1.6541  2.8487
   81MOL    H1019370   4.744   4.086   0.233  0.5854  0.0183  0.3740
   81MOL    H1119371   4.495   3.980   0.524  1.1815  1.4429 -0.4069
   81MOL    H1219372   4.518   3.874   0.396 -1.5722  0.2389  1.8883
   81MOL    H1319373   4.728   3.921   0.600 -0.5280  1.5083 -1.0372
   81MOL    O1419374   4.412   4.048   0.237  0.7311 -0.0283  0.1392
   81MOL    C1519375   4.354   4.134   0.146  0.1088 -0.7098 -0.4160
   81MOL    C1619376   4.350   4.073   0.001  0.0434 -0.4274 -0.3049
   81MOL    C1719377   4.216   4.199   0.190  0.4895 -0.5808  0.5284
   81MOL    C1819378   4.095   4.102   0.202 -0.4301  0.3982  0.5653
   81MOL    O1919379   4.047   4.072   0.311 -0.1178  0.8356  0.3490
   81MOL    H2019380   4.418   4.221   0.131 -1.2623  0.2523 -0.8048
   81MOL    H2119381   4.345   4.153   7.907 -3.5653 -1.7473 -1.6016
   81MOL    H2219382   4.265   4.006   7.971  0.1206 -0.6136  0.2604
   81MOL    H2319383   4.438   4.012   7.961  0.7958  1.4122 -2.8532
   81MOL    H2419384   4.189   4.274   0.115  1.0682  0.1330  1.0331
   81MOL    H2519385   4.229   4.239   0.290  0.9928  1.9122 -0.4980
   81MOL    O2619386   4.042   4.071   0.088  0.0375 -0.3310  0.2435
   81MOL    C2719387   3.911   4.019   0.080  0.1583  0.6638  0.5317
   81MOL    C2819388   3.878   4.042   7.906 -0.0116  0.1551  0.3042
   81MOL    C2919389   3.911   3.867   0.117 -0.1117 -0.8041 -0.5354
   81MOL    C3019390   3.765   3.824   0.119  0.0999 -0.0103  0.3620
   81MOL    O3119391   3.707   3.773   0.025  1.0799 -0.1738 -0.0179
   81MOL    H3219392   3.849   4.078   0.148 -1.1053  0.9013 -0.7986
   81MOL    H3319393   3.891   4.146   7.879  2.2533 -0.3994 -0.8461
   81MOL    H3419394   3.775   4.011   7.891  0.2005 -0.0955 -0.6714
   81MOL    H3519395   3.944   3.993   7.834 -0.1650 -0.6549  0.7060
   81MOL    H3619396   3.952   3.838   0.214 -4.0611 -0.7635  1.2494
   81MOL    H3719397   3.970   3.810   0.046  0.1641 -2.1779  0.7737
   81MOL    O3819398   3.708   3.849   0.238  0.0506 -0.0257 -0.2950
   81MOL    C3919399   3.583   3.799   0.273  0.1604  0.2967  0.5589
   81MOL    C4019400   3.608   3.674   0.363  0.1055 -0.1596 -0.0833
   81MOL    C4119401   3.503   3.911   0.341  0.2152 -0.3438 -0.5876
   81MOL    C4219402   3.424   4.013   0.252 -0.1534 -0.7791 -0.4935
   81MOL    O4319403   3.428   4.017   0.130 -0.1858  0.8573  0.1819
   81MOL    H4419404   3.539   3.765   0.179  0.4579 -2.4265  1.3413
   81MOL    H4519405   3.518   3.633   0.407  1.0059 -0.5897  1.3666
   81MOL    H4619406   3.676   3.694   0.445  3.0507 -1.4650 -2.1303
   81MOL    H4719407   3.647   3.594   0.301  0.7956 -0.0214  0.1625
   81MOL    H4819408   3.571   3.962   0.409  0.1966 -0.8530 -0.1808
   81MOL    H4919409   3.435   3.862   0.410 -0.1707 -0.7459 -1.2464
   81MOL    O5019410   3.344   4.095   0.333  0.1944  0.5693  0.3935
   81MOL    C5119411   3.262   4.198   0.282  0.0931  0.2651 -0.0134
   81MOL    C5219412   3.112   4.155   0.291  0.8889  0.5051 -0.0376
   81MOL    C5319413   3.304   4.339   0.340  0.8118  0.0234  0.4603
   81MOL    C5419414   3.290   4.354   0.495 -0.1910 -0.8533  0.3296
   81MOL    O5519415   3.228   4.447   0.543 -0.9791 -0.6244 -0.5811
   81MOL    H5619416   3.283   4.205   0.176  1.3095  1.3206  0.2815
   81MOL    H5719417   3.036   4.210   0.236 -0.4199 -0.6723  0.5611
   81MOL    H5819418   3.081   4.162   0.396 -0.0814 -0.5244 -0.2459
   81MOL    H5919419   3.096   4.050   0.268 -1.0553  0.9047 -0.5959
   81MOL    H6019420   3.256   4.426   0.297 -0.8012  0.3907  2.9014
   81MOL    H6119421   3.408   4.347   0.309  0.6187 -1.4516 -0.5957
   81MOL    O6219422   3.349   4.256   0.560 -1.1883  0.5267  0.3212
   81MOL    C6319423   3.343   4.235   0.695  0.0247 -0.2177  0.6638
   81MOL    C6419424   3.258   4.111   0.712 -0.0972 -0.4222  0.4036
   81MOL    C6519425   3.484   4.202   0.735 -0.0791 -0.0039  0.9750
   81MOL    C6619426   3.510   4.194   0.887 -0.1307  0.7245  0.1431
   81MOL    O6719427   3.426   4.199   0.977  0.1199 -0.1574  0.0686
   81MOL    H6819428   3.314   4.332   0.734  1.0619  1.3834 -2.3762
   81MOL    H6919429   3.261   4.062   0.809 -2.2590  0.3785  0.9180
   81MOL    H7019430   3.287   4.041   0.634  1.3071  0.7685 -0.1660
   81MOL    H7119431   3.153   4.133   0.688  1.0170  2.1496 -2.4704
   81MOL    H7219432   3.552   4.274   0.692  0.2605 -1.1108 -0.3719
   81MOL    H7319433   3.521   4.107   0.698  0.7768  1.1118 -1.0495
   81MOL    O7419434   3.643   4.187   0.912  0.0946  0.0547 -0.2199
   81MOL    C7519435   3.688   4.157   1.039  0.0357  0.0300  0.4291
   81MOL    C7619436   3.669   4.284   1.126  0.4754  0.3772  0.5510
   81MOL    C7719437   3.634   4.023   1.098 -0.0832 -0.0920 -0.6457
   81MOL    C7819438   3.687   3.906   1.019 -0.2647 -0.5666  0.2480
   81MOL    O7919439   3.622   3.805   0.994 -0.1122 -0.7340 -0.0026
   81MOL    H8019440   3.796   4.144   1.030 -0.0464  0.4247 -1.4060
   81MOL    H8119441   3.735   4.279   1.213  0.5657  0.7801  0.5058
   81MOL    H8219442   3.568   4.302   1.164 -0.2204  0.6076 -1.3709
   81MOL    H8319443   3.696   4.373   1.071 -0.2944 -0.5425 -1.3678
   81MOL    H8419444   3.527   4.016   1.077 -0.1414  1.5606 -0.9532
   81MOL    H8519445   3.644   4.006   1.205 -1.8086 -0.0367 -0.4602
   81MOL    O8619446   3.809   3.928   0.975  0.2687  0.1346 -0.2774
   81MOL    C8719447   3.878   3.823   0.901  0.0270  0.3367  0.2682
   81MOL    C8819448   3.898   3.874   0.759 -0.1165  0.0691  0.4362
   81MOL    C8919449   4.008   3.799   0.990  0.1861  0.0873 -0.0388
   81MOL    C9019450   4.093   3.683   0.933 -1.2136  0.3012  1.0822
   81MOL    O9119451   4.205   3.711   0.888  0.9338 -0.0330 -0.0859
   81MOL    H9219452   3.814   3.734   0.894  0.4535 -0.0923  1.6491
   81MOL    H9319453   3.917   3.981   0.756 -0.6169  0.1316 -0.9166
   81MOL    H9419454   3.822   3.829   0.696  1.8418 -2.1079 -0.4368
   81MOL    H9519455   3.987   3.837   0.709 -1.3226 -0.3295 -1.4313
   81MOL    H9619456   3.981   3.788   1.095 -1.5871  2.2351 -0.2348
   81MOL    H9719457   4.062   3.894   0.985  0.5935 -0.1406 -0.0443
   81MOL    O9819458   4.039   3.549   0.934 -0.3700  0.0679  0.0016
   81MOL    C9919459   4.105   3.442   0.870  0.0209  0.0344 -0.0254
   81MOL   C10019460   4.098   3.310   0.950 -0.3437  0.5509 -0.2591
   81MOL   C10119461   4.027   3.418   0.736  0.2428  0.2350  0.4958
   81MOL   C10219462   4.048   3.532   0.641 -0.3577 -0.1656  0.8190
   81MOL   O10319463   3.950   3.602   0.610 -0.4860  0.5530  0.4760
   81MOL   H10419464   4.209   3.468   0.851  0.5828 -2.3553 -0.3774
   81MOL   H10519465   4.142   3.227   0.896 -0.0282  0.0648  0.7409
   81MOL   H10619466   3.994   3.279   0.966 -0.3151  0.7462  0.3356
   81MOL   H10719467   4.158   3.313   1.041  1.0233 -2.8108 -0.9873
   81MOL   H10819468   3.922   3.392   0.754  0.6340 -0.3952  1.8812
   81MOL   H10919469   4.074   3.336   0.681  0.5210  0.8457 -0.1937
   81MOL   O11019470   4.174   3.549   0.592 -0.5639  0.1714  0.0095
   81MOL   C11119471   4.205   3.661   0.504 -0.2602  0.3845 -0.2253
   81MOL   C11219472   4.344   3.703   0.544 -0.4724 -0.0296 -0.6051
   81MOL   C11319473   4.178   3.642   0.353  0.1674  0.5140  0.1994
   81MOL   C11419474   4.260   3.531   0.288 -0.4912  0.3081 -0.2554
   81MOL   O11519475   4.237   3.410   0.297 -0.0902 -0.1052 -0.4621
   81MOL   H11619476   4.140   3.745   0.526  1.1199  1.8615 -1.6348
   81MOL   H11719477   4.361   3.708   0.652 -1.0400 -1.0050 -0.4622
   81MOL   H11819478   4.343   3.807   0.511 -0.4178  0.3774  0.6291
   81MOL   H11919479   4.428   3.641   0.514 -0.6968 -0.1398 -0.9997
   81MOL   H12019480   4.208   3.737   0.310 -1.5123  1.8881  2.0255
   81MOL   H12119481   4.076   3.620   0.322  0.6816 -0.6596 -0.7302
   81MOL   O12219482   4.369   3.588   0.225  0.2126 -0.2969  0.1124
   81MOL   C12319483   4.465   3.509   0.155  0.3190  0.5300  0.6843
   81MOL   C12419484   4.453   3.538   0.003  0.4615 -0.3724 -0.0272
   81MOL   C12519485   4.599   3.555   0.210  0.7235  0.0063  0.6729
   81MOL   C12619486   4.716   3.494   0.140  0.0617 -1.1887 -0.2398
   81MOL   O12719487   4.794   3.565   0.071 -0.0173 -0.3306  0.1378
   81MOL   H12819488   4.450   3.402   0.172 -0.4753  0.7476  1.3820
   81MOL   H12919489   4.538   3.494   7.931 -0.5538  1.2549 -3.1639
   81MOL   H13019490   4.439   3.645   7.968 -0.0437  0.0574  3.1263
   81MOL   H13119491   4.366   3.486   7.943  0.1341 -0.1592  0.4109
   81MOL   H13219492   4.605   3.518   0.313  1.4114  1.2503  1.0882
   81MOL   H13319493   4.606   3.663   0.217  1.9108 -0.1456  2.0386
   81MOL   O13419494   4.729   3.364   0.150  0.2192  0.1553  0.4298
   81MOL   C13519495   4.836   3.295   0.079  0.2241 -0.2210  0.2719
   81MOL   C13619496   4.904   3.200   0.178 -0.3859  0.7788 -0.0679
   81MOL   C13719497   4.768   3.227   7.935 -0.3868  0.5373  0.5924
   81MOL   C13819498   4.858   3.195   7.818  0.3221 -0.0827  0.1222
   81MOL   O13919499   4.849   3.263   7.714  0.4121  0.2608  0.9410
   81MOL   H14019500   4.914   3.367   0.057  1.0382 -1.1127  0.2164
   81MOL   H14119501   4.827   3.128   0.204 -0.5811  0.8926 -0.3341
   81MOL   H14219502   4.955   3.256   0.257  0.1923  0.9402 -0.5477
   81MOL   H14319503   4.989   3.154   0.127  0.5404  1.6184  0.6937
   81MOL   H14419504   4.686   3.289   7.897 -0.9016 -0.0166  0.7955
   81MOL   H14519505   4.728   3.133   7.971  0.8264 -0.1260  0.2264
   81MOL   O14619506   4.941   3.100   7.841 -0.6513  0.5181  0.1891
   81MOL   C14719507   5.047   3.068   7.756 -0.0979  0.0170  0.1447
   81MOL   C14819508   5.177   3.096   7.834 -0.5741 -0.0674 -0.3854
   81MOL   C14919509   5.030   2.916   7.708  0.3264  0.5728  0.5401
   81MOL   C15019510   5.057   2.813   7.821 -0.0930  0.8421  0.4083
   81MOL   O15119511   5.166   2.760   7.843  0.2939  0.5456 -0.0520
   81MOL   H15219512   5.037   3.133   7.669  0.9873 -1.5627 -1.1945
   81MOL   H15319513   5.207   3.200   7.829  3.0083 -1.0222 -0.2383
   81MOL   H15419514   5.251   3.044   7.772 -2.6168 -1.1824 -1.9631
   81MOL   H15519515   5.166   3.062   7.937  1.6121 -0.2714 -0.1816
   81MOL   H15619516   5.100   2.886   7.630 -1.7596 -1.3276 -0.6850
   81MOL   H15719517   4.929   2.905   7.667  1.0012  0.9601 -1.2605
   81MOL   O15819518   4.943   2.785   7.892  0.1451 -0.1247 -0.2212
   81MOL   C15919519   4.942   2.702   0.031 -0.3509  0.3598  0.1990
   81MOL   C16019520   4.833   2.771   0.119  0.4601 -0.0627 -0.2475
   81MOL   C16119521   4.913   2.559   7.968  0.8512  0.2121 -0.6394
   81MOL   C16219522   4.908   2.462   0.098  0.2598 -0.2032  0.2284
   81MOL   O16319523   4.809   2.390   0.124  0.8279 -0.1027 -0.1186
   81MOL   H16419524   5.037   2.713   0.084  0.7271 -2.5454 -1.0038
   81MOL   H16519525   4.858   2.872   0.153 -1.3675 -0.2540  1.7198
   81MOL   H16619526   4.834   2.727   0.218 -0.8812  0.7918  0.1552
   81MOL   H16719527   4.732   2.775   0.080  0.2564  1.0895  0.3662
   81MOL   H16819528   4.991   2.524   7.901 -1.1443 -3.5013 -1.1698
   81MOL   H16919529   4.816   2.553   7.919  0.5692  1.7207 -0.2888
   81MOL   O17019530   5.027   2.461   0.157  0.8602 -0.4293 -0.2734
   81MOL   C17119531   5.056   2.388   0.271  0.4197 -0.1585  0.0037
   81MOL   C17219532   5.193   2.330   0.276  0.2736  0.0828 -0.8416
   81MOL   C17319533   5.013   2.481   0.386  0.2717  0.5439  0.8679
   81MOL   C17419534   5.104   2.602   0.400  0.3091 -0.3494 -0.2700
   81MOL   O17519535   5.083   2.707   0.339  0.4912 -0.0885 -0.4757
   81MOL   H17619536   4.982   2.308   0.267 -1.4011  1.4331  1.0360
   81MOL   H17719537   5.263   2.413   0.268  2.3343 -1.3552  1.4461
   81MOL   H17819538   5.215   2.261   0.195  0.1195 -0.0031 -0.8112
   81MOL   H17919539   5.218   2.282   0.371 -2.2144 -1.7824 -1.0932
   81MOL   H18019540   5.000   2.430   0.482  0.6227 -0.8112  0.2090
   81MOL   H18119541   4.918   2.531   0.367  0.2922 -0.4737 -2.2711
   81MOL   O18219542   5.196   2.581   0.491 -0.4381 -0.3762 -0.4698
   81MOL   C18319543   5.290   2.682   0.534 -0.0851  0.3485  0.0119
   81MOL   C18419544   5.247   2.733   0.672 -0.1808 -0.4972 -0.5810
   81MOL   C18519545   5.440   2.634   0.544  0.7991 -0.8107  0.7188
   81MOL   C18619546   5.514   2.633   0.408  0.1964  0.4406 -0.2304
   81MOL   O18719547   5.595   2.542   0.388  0.6118  0.6301  0.2811
   81MOL   H18819548   5.297   2.761   0.459  0.4830  0.9389  0.6778
   81MOL   H18919549   5.139   2.733   0.682  0.1237 -1.4868  3.5020
   81MOL   H19019550   5.275   2.837   0.690  0.6905 -1.0602  1.5047
   81MOL   H19119551   5.290   2.673   0.753 -1.3168 -1.6814 -0.8465
   81MOL   H19219552   5.442   2.531   0.581  0.1561 -0.1937  2.5144
   81MOL   H19319553   5.494   2.701   0.611 -1.5533  2.5694 -0.6640
   81MOL   O19419554   5.473   2.732   0.333  0.1713  0.2237  0.9481
   81MOL   C19519555   5.490   2.720   0.190  1.3314 -0.0063 -0.4639
   81MOL   C19619556   5.365   2.662   0.120  0.4940  0.2767 -0.2161
   81MOL   C19719557   5.520   2.857   0.128 -0.4564 -0.1305 -0.4506
   81MOL   C19819558   5.663   2.908   0.153 -0.1296 -0.8487  0.6801
   81MOL   O19919559   5.759   2.862   0.088 -0.3758  0.2020  0.6598
   81MOL   H20019560   5.574   2.652   0.174  1.4888 -0.2763  1.3898
   81MOL   H20119561   5.371   2.672   0.012  2.2370 -1.0476 -0.2451
   81MOL   H20219562   5.272   2.708   0.155  0.8793  1.3853 -0.6338
   81MOL   H20319563   5.363   2.555   0.137 -0.5983  0.0981 -1.4248
   81MOL   H20419564   5.448   2.932   0.163  0.0960  0.3468 -0.3355
   81MOL   H20519565   5.504   2.847   0.021  1.6964  3.0925 -1.1222
   81MOL   O20619566   5.667   2.997   0.257  0.0710  0.0537 -0.1036
   81MOL   C20719567   5.793   3.036   0.317 -0.4920 -0.4096 -0.0170
   81MOL   C20819568   5.826   3.180   0.272  0.2409 -0.1216  0.6144
   81MOL   C20919569   5.770   3.020   0.466 -0.3628 -0.2361 -0.4899
   81MOL   C21019570   5.797   2.884   0.532  0.5450  0.7273  0.4971
   81MOL   O21119571   5.790   2.774   0.470  0.0533 -0.5351  0.2331
   81MOL   H21219572   5.868   2.968   0.278  0.6576  0.9700 -0.2800
   81MOL   H21319573   5.814   3.180   0.164 -0.2282 -0.0413  0.6621
   81MOL   H21419574   5.931   3.206   0.284  0.6180 -0.9267 -0.8401
   81MOL   H21519575   5.768   3.256   0.325  0.8322  2.1006 -1.8809
   81MOL   H21619576   5.669   3.052   0.495 -0.0780 -0.5602  0.9123
   81MOL   H21719577   5.841   3.085   0.517 -1.3186  0.6295 -0.2253
   81MOL   O21819578   5.836   2.908   0.658 -0.4812  0.2594 -0.3735
   81MOL   C21919579   5.836   2.794   0.738 -0.8394 -0.3795 -0.1140
   81MOL   C22019580   5.983   2.779   0.786 -0.0446  0.1527 -0.1132
   81MOL   C22119581   5.743   2.835   0.841  0.3707 -0.2896 -0.1005
   81MOL   C22219582   5.693   2.728   0.936 -0.4619 -0.2903 -0.1126
   81MOL   O22319583   5.572   2.702   0.956  0.2202  0.2539 -0.1883
   81MOL   H22419584   5.794   2.708   0.686 -0.5927  0.1261 -1.1538
   81MOL   H22519585   5.979   2.696   0.856  3.7734 -1.8090 -2.0315
   81MOL   H22619586   6.024   2.874   0.821  0.5563 -0.2102  0.1816
   81MOL   H22719587   6.047   2.739   0.707  1.1319  0.4370  0.6674
   81MOL   H22819588   5.652   2.878   0.799  0.2937 -1.4503 -1.1214
   81MOL   H22919589   5.786   2.918   0.898  1.4377  0.2238 -1.6333
   81MOL   O23019590   5.792   2.659   1.001 -0.1498 -0.1306  0.0322
   81MOL   C23119591   5.766   2.550   1.090 -0.6193  0.2619  0.0420
   81MOL   C23219592   5.898   2.477   1.080  0.1197  0.3901 -0.1744
   81MOL   C23319593   5.720   2.604   1.228  0.3182 -0.2991 -0.3911
   81MOL   C23419594   5.709   2.498   1.333  0.2503  0.2282  0.8685
   81MOL   O23519595   5.809   2.467   1.399  0.6788  0.0741 -0.0854
   81MOL   H23619596   5.689   2.490   1.040 -1.0084 -0.9033  1.9754
   81MOL   H23719597   5.906   2.444   0.976  0.5767  0.0010 -0.0153
   81MOL   H23819598   5.916   2.392   1.145 -1.2264 -0.9349 -1.4976
   81MOL   H23919599   5.987   2.536   1.103 -1.4075  2.0014  1.7623
   81MOL   H24019600   5.626   2.658   1.218 -1.1603 -3.0947 -2.3468
   81MOL   H24119601   5.795   2.676   1.260  1.9263 -2.5306  1.0188
   81MOL   H24219602   5.608   2.463   1.354 -0.2511  1.5191  0.6366
   82MOL     O119603   5.645   6.376   4.740 -0.5934 -0.3070  0.1292
   82MOL     C219604   5.708   6.379   4.861  0.4536  0.0441  0.1921
   82MOL     C319605   5.825   6.288   4.856  0.8149 -0.1530  0.4301
   82MOL     C419606   5.743   6.520   4.907  0.0639 -0.1066  0.0584
   82MOL     C519607   5.736   6.543   5.061 -0.1198 -0.1305  0.5464
   82MOL     O619608   5.662   6.626   5.111  0.0871  0.0079  0.6105
   82MOL     H719609   5.632   6.335   4.927  0.7922  0.8077  1.0996
   82MOL     H819610   5.791   6.198   4.805 -0.5964 -0.4316  1.8341
   82MOL     H919611   5.857   6.249   4.953  3.6088  3.3810  1.0680
   82MOL    H1019612   5.912   6.324   4.802 -0.1263 -1.5541 -2.0733
   82MOL    H1119613   5.687   6.588   4.843  0.3616 -0.1659 -0.2714
   82MOL    H1219614   5.845   6.540   4.873  0.8742 -1.7336  1.4415
   82MOL    H1319615   5.585   6.448   4.727 -0.0753 -0.2587 -2.1827
   82MOL    O1419616   5.819   6.460   5.127  0.3757 -0.3767 -0.0971
   82MOL    C1519617   5.819   6.451   5.274  0.1644 -0.1408 -0.0950
   82MOL    C1619618   5.905   6.325   5.303  0.5612  0.2062 -0.6158
   82MOL    C1719619   5.876   6.585   5.333 -0.0190  0.7476  0.0417
   82MOL    C1819620   5.866   6.581   5.487  0.0810  0.3488  0.3051
   82MOL    O1919621   5.820   6.488   5.552  0.6712 -0.5752 -0.2549
   82MOL    H2019622   5.718   6.428   5.309  0.2594 -0.1203  0.1896
   82MOL    H2119623   6.001   6.329   5.250  1.8051  1.2373  1.6268
   82MOL    H2219624   5.854   6.230   5.285 -0.0856  0.6717 -1.2443
   82MOL    H2319625   5.930   6.322   5.410 -0.1151  0.9793 -0.4348
   82MOL    H2419626   5.823   6.674   5.299  1.0082  1.1535 -0.5240
   82MOL    H2519627   5.979   6.614   5.311  0.1586  0.0449 -0.0599
   82MOL    O2619628   5.892   6.702   5.538 -0.4659 -0.0624 -0.5657
   82MOL    C2719629   5.909   6.732   5.679  0.6864 -0.5432  0.3057
   82MOL    C2819630   6.057   6.735   5.719 -0.6287  0.8189 -0.4881
   82MOL    C2919631   5.823   6.856   5.717 -0.8821  0.3628  0.0267
   82MOL    C3019632   5.677   6.856   5.670  0.2012  0.2155  0.2092
   82MOL    O3119633   5.584   6.859   5.751  0.2704  0.2750 -0.3466
   82MOL    H3219634   5.861   6.652   5.736 -1.3202  0.6450  0.3609
   82MOL    H3319635   6.114   6.651   5.678 -0.7464  0.2806  0.4290
   82MOL    H3419636   6.070   6.734   5.827 -0.6464 -0.0263 -0.4897
   82MOL    H3519637   6.105   6.827   5.685 -1.8415  1.0953 -1.5068
   82MOL    H3619638   5.863   6.952   5.682  2.4451 -0.3871  1.5773
   82MOL    H3719639   5.823   6.871   5.825  1.5555  1.5761 -0.1123
   82MOL    O3819640   5.664   6.868   5.541  0.3500  0.1691  0.6474
   82MOL    C3919641   5.534   6.880   5.479  0.2251  0.3747 -0.2155
   82MOL    C4019642   5.533   6.975   5.364  0.0893 -0.0981  0.2487
   82MOL    C4119643   5.490   6.736   5.448 -0.0706 -0.0105  0.3705
   82MOL    C4219644   5.342   6.721   5.454  1.0836  0.3913  0.6437
   82MOL    O4319645   5.263   6.814   5.471  0.1576 -0.3778 -0.5066
   82MOL    H4419646   5.474   6.926   5.557 -0.7639 -2.1841  0.5752
   82MOL    H4519647   5.567   6.935   5.269 -0.0080 -0.5826  0.4154
   82MOL    H4619648   5.584   7.067   5.393 -2.5820  1.4835  0.0740
   82MOL    H4719649   5.427   6.991   5.345  0.8532  3.1960 -1.7012
   82MOL    H4819650   5.518   6.681   5.538  0.4771 -0.6840 -0.2049
   82MOL    H4919651   5.541   6.692   5.362 -1.0741 -0.1461 -0.1559
   82MOL    O5019652   5.313   6.592   5.446 -0.1256 -0.1166 -0.4596
   82MOL    C5119653   5.175   6.549   5.454  0.2059 -0.7255 -0.4780
   82MOL    C5219654   5.083   6.589   5.335  0.0314  0.4464 -0.0284
   82MOL    C5319655   5.175   6.399   5.483 -0.6101  0.0031 -0.0484
   82MOL    C5419656   5.228   6.368   5.625  0.0687 -0.2117 -0.2394
   82MOL    O5519657   5.169   6.382   5.729 -0.1445 -0.3971  0.4187
   82MOL    H5619658   5.131   6.602   5.539 -1.3379 -1.3871 -0.8325
   82MOL    H5719659   5.124   6.544   5.244 -1.4181  0.7358 -0.8362
   82MOL    H5819660   5.095   6.697   5.330  2.3399  0.3717  2.6451
   82MOL    H5919661   4.978   6.562   5.349  0.7139 -1.8015  1.1021
   82MOL    H6019662   5.235   6.345   5.410 -1.6252 -1.5224  0.2313
   82MOL    H6119663   5.075   6.356   5.478 -1.6620  2.2050  1.5641
   82MOL    O6219664   5.357   6.329   5.615 -0.7523 -0.3118  0.0683
   82MOL    C6319665   5.441   6.315   5.730  0.6526  0.0123 -0.0260
   82MOL    C6419666   5.565   6.220   5.696  0.5055 -0.5237 -0.0031
   82MOL    C6519667   5.476   6.461   5.758 -0.3353  0.0257 -0.3167
   82MOL    C6619668   5.557   6.476   5.890  0.5302 -0.7215  0.4266
   82MOL    O6719669   5.655   6.549   5.892  0.5871 -0.4177 -0.1275
   82MOL    H6819670   5.389   6.265   5.811 -0.0164 -1.9171 -1.6234
   82MOL    H6919671   5.525   6.122   5.669  0.3913 -0.0112 -1.7375
   82MOL    H7019672   5.635   6.220   5.780  0.2841 -0.0703  0.1832
   82MOL    H7119673   5.621   6.260   5.612  2.8658 -1.9283  0.8799
   82MOL    H7219674   5.380   6.508   5.778 -0.2918 -0.1210  0.2354
   82MOL    H7319675   5.530   6.509   5.676  1.1499  0.0054  0.6237
   82MOL    O7419676   5.505   6.403   5.994  0.0070  0.2579  0.5391
   82MOL    C7519677   5.568   6.410   6.122  0.0949  0.1645 -0.0315
   82MOL    C7619678   5.462   6.388   6.225 -0.0303  0.1060  0.2249
   82MOL    C7719679   5.695   6.320   6.140 -0.6100  0.6855 -0.2507
   82MOL    C7819680   5.675   6.173   6.110 -0.2109  0.6040  0.2167
   82MOL    O7919681   5.699   6.128   6.002  0.3518 -0.4588  0.2018
   82MOL    H8019682   5.606   6.512   6.129  0.7098  0.0488 -1.4143
   82MOL    H8119683   5.379   6.457   6.213 -0.3420 -0.4765 -1.0025
   82MOL    H8219684   5.500   6.424   6.321  1.9793 -1.0594 -0.1005
   82MOL    H8319685   5.431   6.285   6.243  0.5128  0.1423  1.4020
   82MOL    H8419686   5.732   6.326   6.242 -0.4775  2.2476 -0.3905
   82MOL    H8519687   5.768   6.361   6.071  0.7604 -0.0391  0.7537
   82MOL    O8619688   5.631   6.100   6.218  0.0852 -0.3310  0.1961
   82MOL    C8719689   5.601   5.962   6.203 -0.4668  0.5056  0.3382
   82MOL    C8819690   5.727   5.896   6.253  0.6362 -0.1119  0.3404
   82MOL    C8919691   5.471   5.918   6.278 -0.6237  0.3547  0.8222
   82MOL    C9019692   5.463   5.954   6.425 -0.4407  0.3266 -0.6278
   82MOL    O9119693   5.384   6.047   6.452  0.6858  0.6375  0.2254
   82MOL    H9219694   5.588   5.942   6.097  0.4466 -1.4762  0.5789
   82MOL    H9319695   5.720   5.788   6.264  0.1025 -0.0212  0.9092
   82MOL    H9419696   5.761   5.932   6.350  0.3992  0.0730  0.3532
   82MOL    H9519697   5.806   5.921   6.182  0.8110  1.5589  1.1052
   82MOL    H9619698   5.452   5.811   6.269 -1.9074  0.4203  2.6036
   82MOL    H9719699   5.390   5.978   6.238 -0.3923 -0.5612 -1.0632
   82MOL    O9819700   5.548   5.880   6.498  0.4102 -0.0615  0.5736
   82MOL    C9919701   5.560   5.911   6.633  0.4050 -0.2741 -0.0609
   82MOL   C10019702   5.556   5.771   6.703 -0.5777  0.0512 -0.8062
   82MOL   C10119703   5.692   5.993   6.653 -0.7236 -0.1097  0.1013
   82MOL   C10219704   5.681   6.137   6.597 -0.4248 -0.1323  0.7336
   82MOL   O10319705   5.743   6.180   6.502  0.0169  0.6356  1.1240
   82MOL   H10419706   5.473   5.965   6.670 -0.1828  1.0200 -3.1898
   82MOL   H10519707   5.508   5.785   6.800 -1.5155 -0.7583 -1.1451
   82MOL   H10619708   5.656   5.727   6.708 -0.1859  1.0342  0.4278
   82MOL   H10719709   5.499   5.703   6.641 -0.7579 -1.8297  1.3477
   82MOL   H10819710   5.770   5.927   6.613 -1.0961 -1.0211  0.8852
   82MOL   H10919711   5.725   6.005   6.756 -0.0418  2.7708 -0.4044
   82MOL   O11019712   5.595   6.206   6.664 -0.3285 -0.6019 -0.1190
   82MOL   C11119713   5.568   6.344   6.636 -0.4172  0.7564 -0.8990
   82MOL   C11219714   5.417   6.350   6.589  0.1409 -0.4504  0.1780
   82MOL   C11319715   5.585   6.414   6.771 -0.0806 -0.6124 -0.0047
   82MOL   C11419716   5.589   6.564   6.773  0.0803  0.4833 -0.0492
   82MOL   O11519717   5.603   6.619   6.883 -0.1008 -1.0834  0.8594
   82MOL   H11619718   5.636   6.381   6.560  1.3783 -1.3512 -0.3509
   82MOL   H11719719   5.377   6.451   6.584  3.2592  0.8531  0.6215
   82MOL   H11819720   5.346   6.289   6.645 -0.9436  0.3473 -0.3097
   82MOL   H11919721   5.415   6.304   6.491  0.0550  2.0283 -1.0164
   82MOL   H12019722   5.680   6.380   6.811  1.2228 -0.7106 -3.0466
   82MOL   H12119723   5.506   6.369   6.831 -0.1526 -1.7515 -0.9096
   82MOL   O12219724   5.576   6.625   6.649 -0.6990 -0.1158  0.1833
   82MOL   C12319725   5.599   6.760   6.631 -0.0023 -0.0374  0.3690
   82MOL   C12419726   5.755   6.766   6.618  0.2581  0.3940 -0.2944
   82MOL   C12519727   5.552   6.809   6.493  0.2241 -0.0720 -0.2961
   82MOL   C12619728   5.405   6.781   6.466  0.1202  0.1415 -0.8282
   82MOL   O12719729   5.369   6.692   6.391 -0.4944 -0.4169 -0.0234
   82MOL   H12819730   5.551   6.802   6.720  0.3924 -0.8366  0.9554
   82MOL   H12919731   5.794   6.688   6.553  2.7113  1.5865 -0.2916
   82MOL   H13019732   5.797   6.768   6.719  0.8625  0.6245 -0.5469
   82MOL   H13119733   5.788   6.849   6.556  0.1634  0.5316 -0.1629
   82MOL   H13219734   5.610   6.773   6.408  0.5339  1.5099 -0.7749
   82MOL   H13319735   5.556   6.918   6.485 -0.3081  0.0725  1.2598
   82MOL   O13419736   5.326   6.865   6.544 -0.0282 -0.1676  0.6903
   82MOL   C13519737   5.181   6.863   6.527 -0.3097 -0.3137  0.9334
   82MOL   C13619738   5.129   6.777   6.641  0.2329  0.2725 -0.0056
   82MOL   C13719739   5.128   7.008   6.524 -0.2870  0.4731 -0.4658
   82MOL   C13819740   5.162   7.087   6.400  0.1333 -0.0828 -0.5622
   82MOL   O13919741   5.248   7.042   6.326  0.1450  0.2160  0.1882
   82MOL   H14019742   5.147   6.820   6.433 -0.1451 -0.0866  0.7727
   82MOL   H14119743   5.166   6.676   6.623 -1.3707 -0.2903 -0.2899
   82MOL   H14219744   5.020   6.776   6.646  0.1290 -0.9178 -1.9508
   82MOL   H14319745   5.171   6.813   6.735 -1.4556  0.3452  0.7513
   82MOL   H14419746   5.183   7.064   6.601 -0.1241  1.3662 -1.2203
   82MOL   H14519747   5.022   7.019   6.548  0.0544  1.6571  0.5729
   82MOL   O14619748   5.091   7.202   6.388 -0.4862 -0.0106 -0.1102
   82MOL   C14719749   5.127   7.295   6.286 -0.7584  0.3759  0.2800
   82MOL   C14819750   5.040   7.267   6.162  0.4098  0.0565 -0.3868
   82MOL   C14919751   5.103   7.434   6.331 -0.7952 -0.5771  0.4883
   82MOL   C15019752   5.134   7.543   6.228 -0.7932  0.2219 -0.2688
   82MOL   O15119753   5.047   7.622   6.187 -0.4777 -0.8486  0.1854
   82MOL   H15219754   5.233   7.294   6.262 -0.6102  0.7802  0.9181
   82MOL   H15319755   5.083   7.317   6.075 -0.4503 -0.5994 -1.1994
   82MOL   H15419756   4.937   7.298   6.182  0.3133 -1.1398  1.0746
   82MOL   H15519757   5.035   7.160   6.141 -0.3686 -0.6003  2.8704
   82MOL   H15619758   5.147   7.457   6.428 -0.3782 -2.8310  0.8646
   82MOL   H15719759   4.995   7.445   6.341 -0.6942 -0.5037  1.5153
   82MOL   O15819760   5.273   7.554   6.195  0.2149  0.1088 -0.1795
   82MOL   C15919761   5.338   7.647   6.108 -0.8678  0.0775  0.7943
   82MOL   C16019762   5.439   7.733   6.171  0.3823 -0.0224  0.4257
   82MOL   C16119763   5.404   7.551   6.001  0.2694  0.1870 -0.1068
   82MOL   C16219764   5.452   7.613   5.871  0.8732  0.2445  0.3622
   82MOL   O16319765   5.569   7.625   5.842 -0.3409  0.0398  0.6173
   82MOL   H16419766   5.265   7.710   6.057  0.1528  0.0060 -0.7858
   82MOL   H16519767   5.522   7.672   6.209  0.4030 -1.1128 -1.3124
   82MOL   H16619768   5.388   7.765   6.262  0.5272 -1.9635  1.2235
   82MOL   H16719769   5.479   7.805   6.100 -1.9445 -0.6509 -1.5923
   82MOL   H16819770   5.340   7.464   5.985  1.0285 -0.6686  1.4839
   82MOL   H16919771   5.495   7.513   6.046 -0.5876  1.6154  3.0370
   82MOL   O17019772   5.345   7.639   5.788  0.6275  0.6718  0.4951
   82MOL   C17119773   5.350   7.740   5.684  0.4226 -0.3722 -0.0331
   82MOL   C17219774   5.356   7.682   5.548  0.0345 -0.2346 -0.5247
   82MOL   C17319775   5.217   7.827   5.703  0.2400 -0.2558 -0.8790
   82MOL   C17419776   5.201   7.953   5.619  0.7388 -0.5843  0.3392
   82MOL   O17519777   5.297   0.021   5.560 -0.0586 -0.3393 -0.3198
   82MOL   H17619778   5.439   7.801   5.703  0.1310 -0.0802  0.4170
   82MOL   H17719779   5.323   7.578   5.545  2.1531 -0.9043 -1.3053
   82MOL   H17819780   5.459   7.664   5.517  0.6490  0.6351  0.9929
   82MOL   H17919781   5.299   7.728   5.468  0.2119  1.0987  0.1124
   82MOL   H18019782   5.207   7.851   5.809  0.7060 -3.3036 -0.1006
   82MOL   H18119783   5.136   7.757   5.683 -0.0240  0.2034 -1.4333
   82MOL   O18219784   5.070   0.015   5.621 -0.2892 -0.3321  0.5175
   82MOL   C18319785   5.034   0.134   5.549  0.3226  0.9424 -0.3900
   82MOL   C18419786   5.018   0.096   5.400 -0.4633  0.3968  0.1612
   82MOL   C18519787   4.906   0.197   5.613  0.3349  0.7488  0.0638
   82MOL   C18619788   4.881   0.340   5.575 -0.4319  0.2294  0.4896
   82MOL   O18719789   4.958   0.400   5.499  0.5878 -0.3246 -0.2663
   82MOL   H18819790   5.115   0.205   5.566  1.6764 -1.0145  1.4667
   82MOL   H18919791   5.115   0.078   5.354 -0.7201 -2.2479  0.5458
   82MOL   H19019792   4.974   0.178   5.343  1.4200  1.2884 -0.0522
   82MOL   H19119793   4.963   0.003   5.388  0.5639  0.0926 -2.6281
   82MOL   H19219794   4.909   0.187   5.722 -0.2319 -2.8426 -0.1740
   82MOL   H19319795   4.814   0.143   5.589  0.8198 -0.1845  0.2671
   82MOL   O19419796   4.775   0.394   5.627  0.2662 -0.0340 -0.0300
   82MOL   C19519797   4.741   0.524   5.597 -0.3433 -0.3722  0.3407
   82MOL   C19619798   4.585   0.539   5.589 -0.4337  0.3911 -0.3914
   82MOL   C19719799   4.821   0.609   5.697 -0.0114 -0.3064 -0.7805
   82MOL   C19819800   4.800   0.757   5.670 -0.6388  0.0568  0.9317
   82MOL   O19919801   4.710   0.828   5.726  0.0200  0.1246 -0.4361
   82MOL   H20019802   4.774   0.546   5.495 -3.9449  2.7051 -0.2982
   82MOL   H20119803   4.546   0.508   5.685  0.5438 -2.3659 -0.8461
   82MOL   H20219804   4.546   0.472   5.512  0.2645 -0.0399 -0.3718
   82MOL   H20319805   4.544   0.637   5.565 -0.0068  0.4223 -1.0102
   82MOL   H20419806   4.926   0.582   5.691  0.4651  0.8167  1.7317
   82MOL   H20519807   4.797   0.580   5.800  2.0419 -0.0276 -0.2124
   82MOL   O20619808   4.886   0.804   5.582 -0.3255 -1.1282  0.1910
   82MOL   C20719809   4.889   0.941   5.546 -0.6913 -0.7323  0.2389
   82MOL   C20819810   4.969   1.015   5.649  0.4416 -0.0213  0.6815
   82MOL   C20919811   4.944   0.948   5.405 -0.1373  0.2301  0.9560
   82MOL   C21019812   4.913   1.094   5.347 -0.7463 -0.1873 -0.4426
   82MOL   O21119813   4.800   1.138   5.348 -0.3379  0.4374 -0.8161
   82MOL   H21219814   4.788   0.980   5.538 -0.8990 -1.2770  0.1560
   82MOL   H21319815   4.918   1.020   5.746 -0.0788 -0.6799  0.4462
   82MOL   H21419816   4.982   1.119   5.618 -0.5282 -0.1911 -0.3100
   82MOL   H21519817   5.071   0.977   5.653  0.5284  0.1807  0.3695
   82MOL   H21619818   4.897   0.862   5.356 -2.5332  0.5438  2.6239
   82MOL   H21719819   5.052   0.934   5.402 -0.0016  1.3936  0.4957
   82MOL   O21819820   5.022   1.149   5.293 -0.0041  0.0715  0.1339
   82MOL   C21919821   5.015   1.269   5.220  0.2884 -0.0405 -0.3616
   82MOL   C22019822   5.059   1.392   5.300 -0.3486  1.0920  0.1668
   82MOL   C22119823   5.093   1.245   5.082  0.4034  0.0663 -0.8665
   82MOL   C22219824   5.019   1.162   4.982 -0.3600  0.9171  0.2363
   82MOL   O22319825   5.062   1.053   4.943  0.0147  0.6053 -0.5275
   82MOL   H22419826   4.909   1.286   5.201  0.4975  2.0184  0.2101
   82MOL   H22519827   5.055   1.488   5.248  1.3905  2.8917  3.1526
   82MOL   H22619828   5.162   1.377   5.332 -0.9411 -0.1192  1.5831
   82MOL   H22719829   5.010   1.400   5.397 -1.0683  0.3079 -0.1317
   82MOL   H22819830   5.192   1.204   5.104 -0.0671  0.3127  1.8650
   82MOL   H22919831   5.108   1.342   5.034  1.2902  1.5527  2.2585
   82MOL   O23019832   4.895   1.206   4.956 -0.1264 -0.4107 -0.6553
   82MOL   C23119833   4.808   1.133   4.872 -1.0482  0.2894  0.3285
   82MOL   C23219834   4.724   1.035   4.963 -0.2608  0.5046  0.1401
   82MOL   C23319835   4.718   1.216   4.771 -0.0236  0.1646  0.8776
   82MOL   C23419836   4.812   1.288   4.672  0.3367  0.3038 -0.0502
   82MOL   O23519837   4.934   1.304   4.670  0.0055  0.5403  0.2736
   82MOL   H23619838   4.870   1.067   4.811 -2.2442  0.6175 -1.2962
   82MOL   H23719839   4.667   0.966   4.901 -0.8290 -0.2458  1.4842
   82MOL   H23819840   4.660   1.105   5.016 -0.5245 -0.9131  1.7704
   82MOL   H23919841   4.784   0.976   5.033 -2.5957  0.0674  1.8233
   82MOL   H24019842   4.654   1.290   4.819  0.3101 -0.7957  2.9024
   82MOL   H24119843   4.671   1.144   4.704  0.0460 -0.7315  1.7582
   82MOL   H24219844   4.753   1.328   4.589 -0.8897 -0.3020  0.5108
   83MOL     O119845   3.550   2.481   1.944  0.7116 -0.2869  0.5704
   83MOL     C219846   3.636   2.406   2.017 -0.0623 -0.2274 -0.3103
   83MOL     C319847   3.586   2.260   2.015  0.1624  0.2661  0.7671
   83MOL     C419848   3.772   2.419   1.943 -0.2523  0.4941 -0.3456
   83MOL     C519849   3.893   2.434   2.033  0.1506  0.3622 -0.7310
   83MOL     O619850   3.986   2.352   2.038  0.4809  0.1258  0.2979
   83MOL     H719851   3.643   2.443   2.119  1.1646 -2.8972  0.6313
   83MOL     H819852   3.590   2.221   1.914  2.4632  1.4961  0.3486
   83MOL     H919853   3.485   2.253   2.056  0.5418  1.4412  1.9360
   83MOL    H1019854   3.646   2.192   2.076  2.0317 -0.2674 -1.5907
   83MOL    H1119855   3.765   2.511   1.884 -0.2365  0.6185 -0.1550
   83MOL    H1219856   3.797   2.333   1.882  1.4534  0.6455  0.1149
   83MOL    H1319857   3.560   2.468   1.851  0.5905  1.5889  0.2807
   83MOL    O1419858   3.885   2.543   2.105  0.4383  0.5190 -0.5271
   83MOL    C1519859   3.988   2.573   2.206 -0.8726 -0.4636 -0.5379
   83MOL    C1619860   4.006   2.727   2.213  0.0690  0.2737  0.1587
   83MOL    C1719861   3.946   2.492   2.334  0.4343 -0.3129 -0.1392
   83MOL    C1819862   3.813   2.534   2.403  0.4413  0.0391 -0.1120
   83MOL    O1919863   3.712   2.571   2.340 -0.2582 -0.0112 -0.0796
   83MOL    H2019864   4.082   2.530   2.172 -0.9257 -0.6457 -0.4499
   83MOL    H2119865   3.914   2.785   2.219 -1.2574 -1.5759 -1.5928
   83MOL    H2219866   4.055   2.750   2.118 -0.4349 -0.2911 -0.2404
   83MOL    H2319867   4.070   2.754   2.297  0.6967  0.6444 -0.4270
   83MOL    H2419868   4.028   2.500   2.405  1.1026 -1.8118 -0.7345
   83MOL    H2519869   3.930   2.390   2.301  1.4968 -1.2266  2.1045
   83MOL    O2619870   3.819   2.527   2.537 -0.2605 -0.6990  0.6464
   83MOL    C2719871   3.720   2.585   2.630  0.4927  0.8037 -0.5094
   83MOL    C2819872   3.753   2.724   2.667  0.3271 -0.1336  0.3672
   83MOL    C2919873   3.575   2.542   2.612 -0.3174 -0.0315  0.7575
   83MOL    C3019874   3.543   2.394   2.612  0.1989 -0.1304  0.1768
   83MOL    O3119875   3.481   2.356   2.712 -0.0528 -0.0996 -0.1837
   83MOL    H3219876   3.750   2.535   2.723  0.1967  1.0461 -0.2846
   83MOL    H3319877   3.718   2.791   2.589  0.6829  0.9797  1.1630
   83MOL    H3419878   3.861   2.733   2.677  0.7735 -2.9075 -1.3777
   83MOL    H3519879   3.703   2.744   2.761 -1.8510 -0.4316 -0.6853
   83MOL    H3619880   3.551   2.584   2.514 -2.9653  0.1820  1.4708
   83MOL    H3719881   3.523   2.587   2.696 -1.2711 -0.4711  0.4104
   83MOL    O3819882   3.595   2.309   2.511 -0.0751 -0.2218  0.1579
   83MOL    C3919883   3.554   2.176   2.490 -0.2586  0.6620 -0.1935
   83MOL    C4019884   3.489   2.168   2.355  0.1562  0.3079 -0.1460
   83MOL    C4119885   3.672   2.082   2.517 -0.0524  0.2963 -0.6527
   83MOL    C4219886   3.793   2.089   2.424  0.2041  0.0012 -0.0488
   83MOL    O4319887   3.884   2.170   2.442  0.1695 -0.6724  0.1636
   83MOL    H4419888   3.475   2.173   2.565  0.5126  2.2258  0.7097
   83MOL    H4519889   3.565   2.192   2.282  2.4364  0.8811  2.3541
   83MOL    H4619890   3.405   2.237   2.345 -0.2539 -0.1466  0.1138
   83MOL    H4719891   3.461   2.066   2.330  1.0508 -0.3593  1.5082
   83MOL    H4819892   3.636   1.979   2.510 -0.0304  0.1501  1.1324
   83MOL    H4919893   3.704   2.080   2.622  1.3716 -0.1457 -1.0800
   83MOL    O5019894   3.781   2.006   2.318 -0.5646  0.1183 -0.6285
   83MOL    C5119895   3.868   2.010   2.211 -0.1401 -0.0198 -0.0421
   83MOL    C5219896   4.000   1.943   2.251 -0.0285  0.0088  0.1660
   83MOL    C5319897   3.802   1.940   2.094  0.0053  0.2227 -0.9828
   83MOL    C5419898   3.858   1.971   1.957  0.1459 -0.8430  0.3186
   83MOL    O5519899   3.798   2.041   1.880  0.4979  0.1491 -0.2365
   83MOL    H5619900   3.891   2.114   2.190 -0.7544  0.3582  1.1067
   83MOL    H5719901   4.072   1.966   2.172  0.4309 -1.3799  0.1668
   83MOL    H5819902   3.994   1.836   2.269  1.2355  0.2429  2.2005
   83MOL    H5919903   4.038   1.990   2.342  0.9485  1.1751 -0.8256
   83MOL    H6019904   3.694   1.951   2.098  0.0136 -0.3793  3.1073
   83MOL    H6119905   3.826   1.835   2.110  0.5404  0.5700  0.6245
   83MOL    O6219906   3.986   1.931   1.943 -0.4987 -0.4704 -0.0713
   83MOL    C6319907   4.066   1.968   1.834 -0.7802  0.0728  1.1803
   83MOL    C6419908   4.188   2.050   1.880 -0.0416  0.0997  0.4660
   83MOL    C6519909   4.110   1.831   1.774 -0.7391  0.1288  0.0087
   83MOL    C6619910   4.132   1.842   1.621  0.1718 -0.3204  0.6350
   83MOL    O6719911   4.247   1.852   1.573  0.3565 -0.1938 -0.7250
   83MOL    H6819912   4.008   2.030   1.766 -0.6567 -0.8266  0.2311
   83MOL    H6919913   4.148   2.124   1.948  0.8533 -0.1532  1.2847
   83MOL    H7019914   4.248   2.094   1.801  0.0652 -0.8953 -0.0194
   83MOL    H7119915   4.253   1.987   1.941  0.5026 -1.0515 -1.2630
   83MOL    H7219916   4.038   1.749   1.787 -2.1241  1.5223  1.4028
   83MOL    H7319917   4.198   1.784   1.817 -1.8595  0.7175  3.1228
   83MOL    O7419918   4.021   1.841   1.546 -0.4222  0.0422  0.7371
   83MOL    C7519919   4.022   1.829   1.407  0.1006 -0.2524  0.7293
   83MOL    C7619920   3.902   1.744   1.355  0.1871  0.4222 -0.0291
   83MOL    C7719921   4.045   1.972   1.340 -0.1689  0.3762 -0.7084
   83MOL    C7819922   3.948   2.082   1.393 -0.5200 -0.0957 -0.3991
   83MOL    O7919923   3.834   2.091   1.359  0.0191 -0.2921 -0.4785
   83MOL    H8019924   4.113   1.771   1.387  0.0583  0.1858 -0.8304
   83MOL    H8119925   3.806   1.782   1.389  0.2818 -0.0092  0.7357
   83MOL    H8219926   3.905   1.640   1.388 -2.9634  0.3473  0.2128
   83MOL    H8319927   3.890   1.752   1.247  0.0439  2.7807  0.1411
   83MOL    H8419928   4.042   1.961   1.232 -0.2493 -0.1129 -0.6551
   83MOL    H8519929   4.147   2.005   1.361 -1.4496  1.5865  4.2368
   83MOL    O8619930   4.003   2.185   1.462 -0.0371  0.0544 -0.6295
   83MOL    C8719931   3.934   2.300   1.502  0.6928  0.2484  0.4450
   83MOL    C8819932   3.874   2.285   1.641  0.3548  0.1761 -0.8069
   83MOL    C8919933   4.019   2.428   1.475  0.5892  0.0040  0.1409
   83MOL    C9019934   3.952   2.563   1.491 -0.3567  0.3870 -0.0028
   83MOL    O9119935   3.897   2.625   1.397  0.1718 -0.5744 -0.2832
   83MOL    H9219936   3.851   2.312   1.432  0.2040  0.1411  1.0009
   83MOL    H9319937   3.773   2.324   1.654  0.4717  0.4472 -0.7171
   83MOL    H9419938   3.941   2.330   1.714  0.1365 -0.9545  0.1015
   83MOL    H9519939   3.865   2.178   1.657  1.7816  0.0161 -1.0115
   83MOL    H9619940   4.064   2.425   1.376  1.0656  0.1899  0.3526
   83MOL    H9719941   4.109   2.425   1.535  1.0793  1.3027 -0.5063
   83MOL    O9819942   3.967   2.602   1.625 -0.2394 -0.4841  0.0011
   83MOL    C9919943   3.920   2.723   1.667  0.3840 -0.7736 -0.6894
   83MOL   C10019944   3.768   2.728   1.693 -0.2663  0.2033  0.4331
   83MOL   C10119945   4.005   2.749   1.794 -0.2640 -0.2031  0.4287
   83MOL   C10219946   4.034   2.896   1.825 -0.2373 -0.1726  0.1704
   83MOL   O10319947   4.029   2.991   1.740 -0.0727 -0.0349  0.6167
   83MOL   H10419948   3.938   2.806   1.598  2.1749 -0.1694  0.4696
   83MOL   H10519949   3.734   2.657   1.769 -0.0971  0.6264  0.9034
   83MOL   H10619950   3.716   2.717   1.598  0.6413  2.4548 -0.3506
   83MOL   H10719951   3.725   2.821   1.729 -1.1662  0.3544 -1.0094
   83MOL   H10819952   4.108   2.721   1.776 -0.1480 -0.2070  1.0963
   83MOL   H10919953   3.966   2.693   1.879 -1.0927  0.0344  0.2134
   83MOL   O11019954   4.087   2.907   1.947 -0.0567 -0.1824 -0.1704
   83MOL   C11119955   4.160   3.021   1.990 -0.2974 -0.2041 -0.1520
   83MOL   C11219956   4.078   3.152   1.990 -0.8784  0.2978 -0.2126
   83MOL   C11319957   4.223   3.000   2.123  0.2936 -0.3233 -0.3546
   83MOL   C11419958   4.310   3.115   2.166  1.1689 -0.0594 -0.0123
   83MOL   O11519959   4.280   3.186   2.260 -0.3201  0.3770 -1.0858
   83MOL   H11619960   4.249   3.020   1.927 -0.0962  0.0503  0.1290
   83MOL   H11719961   3.991   3.150   2.056 -1.2360  0.5800 -0.6768
   83MOL   H11819962   4.034   3.169   1.892 -0.2663  0.8901 -0.3896
   83MOL   H11919963   4.140   3.236   2.022  0.6396 -1.1306  0.6592
   83MOL   H12019964   4.277   2.906   2.116 -0.5300 -1.0003  1.7548
   83MOL   H12119965   4.142   2.985   2.195  2.4447 -2.0889  1.7745
   83MOL   O12219966   4.413   3.126   2.084  0.4522 -0.2829 -0.5022
   83MOL   C12319967   4.486   3.245   2.076  0.4194 -0.3967  0.3460
   83MOL   C12419968   4.637   3.215   2.124 -0.2615  0.0168 -0.4102
   83MOL   C12519969   4.480   3.279   1.930 -0.5948  0.3499  0.2814
   83MOL   C12619970   4.493   3.429   1.907 -0.0161  0.0972 -0.3923
   83MOL   O12719971   4.601   3.471   1.863  0.4560 -0.2299 -0.0380
   83MOL   H12819972   4.443   3.330   2.129 -1.1399  0.3558 -2.0346
   83MOL   H12919973   4.703   3.296   2.092 -0.3914 -0.1546 -1.1150
   83MOL   H13019974   4.674   3.123   2.079 -1.3516 -0.0732 -1.1264
   83MOL   H13119975   4.648   3.202   2.232 -0.6469  0.2730 -0.3385
   83MOL   H13219976   4.389   3.243   1.883 -0.2324  0.7354 -0.7379
   83MOL   H13319977   4.566   3.227   1.887 -1.6950  0.8855 -2.6612
   83MOL   O13419978   4.382   3.497   1.940 -0.6202  0.7217  0.3725
   83MOL   C13519979   4.394   3.640   1.943  0.1973 -0.4854 -0.1311
   83MOL   C13619980   4.261   3.694   1.867  0.0609 -0.0080 -0.4271
   83MOL   C13719981   4.398   3.692   2.089  0.0475 -0.4724 -0.1074
   83MOL   C13819982   4.506   3.634   2.193  0.2144  0.0930  0.6658
   83MOL   O13919983   4.466   3.589   2.300 -0.4554  0.2424  0.5117
   83MOL   H14019984   4.479   3.678   1.885  1.7047 -0.3491  2.0834
   83MOL   H14119985   4.271   3.650   1.768  1.6883 -0.2190 -0.1731
   83MOL   H14219986   4.256   3.802   1.852 -1.4740  0.0545  0.5023
   83MOL   H14319987   4.173   3.659   1.921  0.6906 -0.7569  0.1055
   83MOL   H14419988   4.297   3.676   2.126 -0.3786  0.4044 -0.8708
   83MOL   H14519989   4.415   3.799   2.102 -1.9423 -0.2852  1.0626
   83MOL   O14619990   4.634   3.659   2.168  0.7053  0.1751  0.0050
   83MOL   C14719991   4.740   3.572   2.218  0.0281 -0.5244  0.3825
   83MOL   C14819992   4.848   3.580   2.109  0.1289 -0.3701  0.5658
   83MOL   C14919993   4.805   3.627   2.351  0.3422  0.1246 -0.8139
   83MOL   C15019994   4.710   3.613   2.466 -0.1538 -0.3470 -0.4009
   83MOL   O15119995   4.664   3.712   2.526 -0.0927 -0.7048  0.6053
   83MOL   H15219996   4.703   3.470   2.234  0.6019 -1.1735 -2.1280
   83MOL   H15319997   4.889   3.681   2.106 -0.3910 -0.1772 -0.5192
   83MOL   H15419998   4.812   3.555   2.009  0.3628 -1.3996  0.7355
   83MOL   H15519999   4.926   3.516   2.148  2.7040  2.8703  0.9444
   83MOL   H15620000   4.823   3.734   2.344 -1.5387  0.5359  0.4114
   83MOL   H15720001   4.895   3.575   2.384 -0.0261 -0.3911 -0.6216
   83MOL   O15820002   4.683   3.478   2.496 -0.0221  0.4928  0.0148
   83MOL   C15920003   4.582   3.428   2.590 -0.0257 -0.3219  0.4239
   83MOL   C16020004   4.508   3.315   2.515 -0.6844 -0.2388  1.4064
   83MOL   C16120005   4.643   3.380   2.725 -0.2509 -0.6040 -0.2373
   83MOL   C16220006   4.697   3.494   2.811  0.3909  0.0885 -0.2534
   83MOL   O16320007   4.642   3.546   2.906  0.0654  0.6007  0.5752
   83MOL   H16420008   4.510   3.509   2.601  1.0423  0.6529  0.3984
   83MOL   H16520009   4.472   3.362   2.423 -0.1360 -3.1143 -0.3337
   83MOL   H16620010   4.424   3.273   2.570 -0.8530 -3.1865 -0.9878
   83MOL   H16720011   4.569   3.227   2.497  0.5333  1.2704 -2.2178
   83MOL   H16820012   4.724   3.312   2.702 -0.3830 -0.2468 -1.8106
   83MOL   H16920013   4.564   3.325   2.774 -0.7940 -1.5006 -2.0745
   83MOL   O17020014   4.819   3.527   2.763 -0.1478 -0.2957 -0.3359
   83MOL   C17120015   4.888   3.640   2.808 -0.1056  0.4847  0.0571
   83MOL   C17220016   4.981   3.589   2.918  0.0813 -0.1044 -0.0286
   83MOL   C17320017   4.954   3.724   2.693 -0.1734  0.9644  0.2945
   83MOL   C17420018   5.087   3.682   2.627  0.5761 -0.0909  0.1759
   83MOL   O17520019   5.186   3.703   2.694 -0.0239  0.5658 -0.2371
   83MOL   H17620020   4.827   3.717   2.855 -1.8249 -1.4606  1.0752
   83MOL   H17720021   5.022   3.682   2.956  0.9251  0.6237 -2.6484
   83MOL   H17820022   5.059   3.519   2.888  0.1912 -0.9630  2.1540
   83MOL   H17920023   4.931   3.548   3.006  0.3795  1.0292  0.6677
   83MOL   H18020024   4.982   3.822   2.732 -0.2603  1.1154 -0.0206
   83MOL   H18120025   4.878   3.751   2.620 -0.3188  2.0417  0.8348
   83MOL   O18220026   5.082   3.637   2.502 -0.5177 -0.0847 -0.1131
   83MOL   C18320027   5.200   3.615   2.440  0.5157 -0.3503  0.5528
   83MOL   C18420028   5.239   3.466   2.455 -0.0696  0.3251  0.5628
   83MOL   C18520029   5.197   3.640   2.286  0.0570 -0.4765  0.7739
   83MOL   C18620030   5.195   3.789   2.255  0.8472 -0.1684 -0.2616
   83MOL   O18720031   5.297   3.841   2.214 -0.2547  0.4007  0.0633
   83MOL   H18820032   5.280   3.676   2.480  0.1332  0.0729  0.6732
   83MOL   H18920033   5.172   3.394   2.409  1.1274  0.6183 -1.6709
   83MOL   H19020034   5.252   3.440   2.560 -0.2339 -1.4350  0.1517
   83MOL   H19120035   5.337   3.441   2.416  0.7774  3.5670  0.4269
   83MOL   H19220036   5.114   3.591   2.236  0.1649  0.2748 -0.1688
   83MOL   H19320037   5.291   3.595   2.254 -0.7102 -3.7437  2.8817
   83MOL   O19420038   5.072   3.845   2.266  0.3902 -0.2587 -0.1508
   83MOL   C19520039   5.055   3.985   2.264  0.2585  0.1296 -0.4388
   83MOL   C19620040   5.006   4.015   2.126 -0.3758  0.2352  0.1191
   83MOL   C19720041   4.967   4.021   2.381  0.7381 -0.6065  0.1302
   83MOL   C19820042   4.956   4.175   2.396  0.0618  0.6596  0.0933
   83MOL   O19920043   5.054   4.251   2.384  0.1457 -0.3789 -0.5627
   83MOL   H20020044   5.155   4.030   2.262  1.0140 -1.4240  0.7186
   83MOL   H20120045   4.990   4.122   2.112 -1.5535 -0.0361 -0.7285
   83MOL   H20220046   4.907   3.971   2.123 -0.2794 -0.1110  1.7018
   83MOL   H20320047   5.060   3.977   2.039 -1.9384 -1.6913 -0.0379
   83MOL   H20420048   5.021   3.984   2.469  1.6332  2.1828  0.8082
   83MOL   H20520049   4.868   3.979   2.364  0.8210 -0.4210 -0.8039
   83MOL   O20620050   4.831   4.211   2.416  0.2904  0.2199 -0.0110
   83MOL   C20720051   4.804   4.338   2.459  0.0970 -0.0915  1.0927
   83MOL   C20820052   4.728   4.413   2.348  0.0812  0.3323 -0.2066
   83MOL   C20920053   4.745   4.331   2.605 -0.3728  0.0908  0.0287
   83MOL   C21020054   4.732   4.465   2.674 -0.1111  1.1047 -0.4398
   83MOL   O21120055   4.625   4.521   2.707 -0.2738 -0.3938 -0.1933
   83MOL   H21220056   4.889   4.406   2.457 -1.6160  2.0546 -0.6211
   83MOL   H21320057   4.629   4.366   2.355  1.3377 -2.4574 -0.3909
   83MOL   H21420058   4.778   4.411   2.251  2.2673 -2.1367  0.9209
   83MOL   H21520059   4.710   4.518   2.372  5.0287  1.8170 -2.3528
   83MOL   H21620060   4.810   4.271   2.670 -0.4963  0.9654  0.9751
   83MOL   H21720061   4.650   4.277   2.613 -0.7516  0.5459 -1.3184
   83MOL   O21820062   4.858   4.526   2.691 -0.1596  0.3521  0.8139
   83MOL   C21920063   4.853   4.659   2.755  0.2738  0.3803  0.1640
   83MOL   C22020064   4.977   4.681   2.839  0.7031  0.4826  0.1057
   83MOL   C22120065   4.820   4.767   2.645  0.6817  0.7771  0.1527
   83MOL   C22220066   4.926   4.772   2.532 -0.6640  0.0194  0.2849
   83MOL   O22320067   4.897   4.718   2.424 -0.4630  0.2011  0.3196
   83MOL   H22420068   4.773   4.673   2.828 -2.6732 -1.9788 -2.4829
   83MOL   H22520069   5.070   4.658   2.788  1.2150  0.4703  1.0468
   83MOL   H22620070   4.976   4.633   2.937 -0.6517 -0.3293 -0.2812
   83MOL   H22720071   4.982   4.787   2.864  1.3569  0.6527 -0.7493
   83MOL   H22820072   4.818   4.867   2.688  0.8325  1.0553 -0.4908
   83MOL   H22920073   4.721   4.750   2.604  0.6141 -0.4977  0.8165
   83MOL   O23020074   5.043   4.823   2.571  0.2234  0.0596  0.4665
   83MOL   C23120075   5.160   4.803   2.495  0.5511 -0.6091  0.3666
   83MOL   C23220076   5.203   4.659   2.506  0.0839  0.0423  0.3484
   83MOL   C23320077   5.156   4.866   2.352 -0.6551 -0.4882  0.2639
   83MOL   C23420078   5.143   5.015   2.347 -0.3665  0.6571 -0.4196
   83MOL   O23520079   5.059   5.066   2.274  0.2215 -0.1810  0.2865
   83MOL   H23620080   5.237   4.867   2.538  1.5395  0.3818 -2.7470
   83MOL   H23720081   5.295   4.648   2.448 -0.6040  0.9795 -0.9452
   83MOL   H23820082   5.129   4.585   2.478 -0.1063  0.0980  0.7105
   83MOL   H23920083   5.214   4.639   2.612  1.1086 -1.0506  0.0447
   83MOL   H24020084   5.079   4.826   2.286  0.2623  1.2415 -1.9337
   83MOL   H24120085   5.244   4.837   2.296 -1.4657  0.5317 -1.5964
   83MOL   H24220086   5.218   5.068   2.404  1.8141  0.2692 -2.8144
   84MOL     O120087   7.373   5.075   5.968  0.6296  0.0926  0.1227
   84MOL     C220088   7.244   5.131   5.989 -0.1803 -0.2063  0.5854
   84MOL     C320089   7.160   5.084   5.863 -0.5521  0.2651  0.0013
   84MOL     C420090   7.189   5.098   6.128  0.2335  0.9184  0.9602
   84MOL     C520091   7.046   5.153   6.157  0.3782  0.1762 -0.1813
   84MOL     O620092   7.023   5.245   6.232 -0.8590 -0.0823 -0.0797
   84MOL     H720093   7.253   5.239   5.991  1.7384 -0.3014 -0.7393
   84MOL     H820094   7.224   5.080   5.775 -0.8363  1.9570 -0.3044
   84MOL     H920095   7.075   5.147   5.837 -2.2534 -2.2386 -0.6570
   84MOL    H1020096   7.117   4.984   5.874  0.4487 -0.2349 -0.6262
   84MOL    H1120097   7.269   5.128   6.196  0.9420  1.5964 -0.1530
   84MOL    H1220098   7.192   4.989   6.137 -0.5350  0.8363  0.2643
   84MOL    H1320099   7.417   5.089   6.051  0.7695 -0.6303  0.1738
   84MOL    O1420100   6.952   5.103   6.076 -0.2785 -0.2799  0.0092
   84MOL    C1520101   6.820   5.153   6.082  0.1094  0.7654  0.4946
   84MOL    C1620102   6.818   5.277   5.982 -0.3254  0.2654 -0.3390
   84MOL    C1720103   6.746   5.027   6.020 -0.0240 -0.1205 -0.5404
   84MOL    C1820104   6.601   5.013   6.051  0.1926  0.1155  0.4794
   84MOL    O1920105   6.538   4.920   6.003  0.2558  0.8593 -0.2955
   84MOL    H2020106   6.806   5.179   6.187  2.3201 -0.4178  1.1231
   84MOL    H2120107   6.845   5.242   5.882  1.1337 -1.8307  0.7477
   84MOL    H2220108   6.891   5.348   6.020  0.7025 -2.2382  2.5252
   84MOL    H2320109   6.718   5.318   5.970  0.0231  0.8866 -1.1689
   84MOL    H2420110   6.788   4.938   6.066  0.1287  0.0757 -0.2995
   84MOL    H2520111   6.765   5.028   5.913  0.0562  2.9734 -0.5554
   84MOL    O2620112   6.556   5.114   6.110 -0.2302  0.3621 -0.8136
   84MOL    C2720113   6.424   5.122   6.155  0.5106  0.1343  0.4842
   84MOL    C2820114   6.413   5.104   6.306 -0.3046 -0.4200  0.4251
   84MOL    C2920115   6.371   5.264   6.120 -0.4427 -0.1047 -0.3822
   84MOL    C3020116   6.231   5.302   6.167 -0.0663  0.5534  0.7579
   84MOL    O3120117   6.214   5.352   6.280 -0.0931 -0.6926  0.3250
   84MOL    H3220118   6.371   5.045   6.100  2.3631 -0.1632 -0.9582
   84MOL    H3320119   6.459   5.183   6.366  0.3680 -0.6611  0.2386
   84MOL    H3420120   6.469   5.013   6.330  1.1456 -0.0309 -1.3588
   84MOL    H3520121   6.309   5.079   6.327 -1.0460 -0.9016 -3.4499
   84MOL    H3620122   6.364   5.271   6.011  0.0493  0.3067 -0.3905
   84MOL    H3720123   6.435   5.340   6.164 -1.3657 -0.2231  1.2038
   84MOL    O3820124   6.139   5.276   6.085 -0.5083  0.2476 -0.3839
   84MOL    C3920125   5.992   5.287   6.109 -0.1389 -0.3779  0.7575
   84MOL    C4020126   5.954   5.385   6.001 -0.1971  0.1363  0.5558
   84MOL    C4120127   5.910   5.159   6.098  0.3443  0.1332  0.1269
   84MOL    C4220128   5.767   5.160   6.153  0.2873  0.5219 -0.9485
   84MOL    O4320129   5.665   5.175   6.079  0.2153  0.6372 -0.2772
   84MOL    H4420130   5.970   5.345   6.199 -0.2664  0.7536  0.0002
   84MOL    H4520131   5.968   5.339   5.903  0.9761  1.4350  0.0967
   84MOL    H4620132   6.012   5.476   5.989  0.2282  0.1668  2.7115
   84MOL    H4720133   5.851   5.420   5.999 -0.4201 -0.5446 -0.7003
   84MOL    H4820134   5.955   5.081   6.161 -1.4404 -0.9989  0.0199
   84MOL    H4920135   5.903   5.116   5.998 -0.6148 -1.2991  0.8010
   84MOL    O5020136   5.767   5.158   6.290 -0.4948 -0.5487  0.1036
   84MOL    C5120137   5.647   5.197   6.351 -0.1595 -0.3448 -0.2915
   84MOL    C5220138   5.661   5.165   6.501 -0.6149  0.3092 -0.7959
   84MOL    C5320139   5.608   5.343   6.338  0.7776  0.7348 -0.8616
   84MOL    C5420140   5.700   5.458   6.384 -0.4850  1.3432 -0.0136
   84MOL    O5520141   5.654   5.531   6.475 -0.4085  0.1372 -0.0871
   84MOL    H5620142   5.568   5.134   6.311  1.5537 -1.5883 -1.7827
   84MOL    H5720143   5.723   5.239   6.552 -2.6766  1.8117 -0.3723
   84MOL    H5820144   5.702   5.065   6.515 -0.5134  0.7175  1.9742
   84MOL    H5920145   5.566   5.168   6.553 -0.4635 -1.1209 -0.4328
   84MOL    H6020146   5.520   5.352   6.402  1.6521  1.2954  0.2690
   84MOL    H6120147   5.566   5.353   6.238 -1.5706 -2.2743 -0.2750
   84MOL    O6220148   5.822   5.456   6.337  0.0653  0.4410 -0.0856
   84MOL    C6320149   5.917   5.549   6.393  0.1966 -0.2028 -0.8982
   84MOL    C6420150   6.009   5.498   6.508  0.2334  0.1948  0.3284
   84MOL    C6520151   5.989   5.624   6.272  0.4954  0.0058 -0.6092
   84MOL    C6620152   6.087   5.727   6.325 -0.4744  0.1840 -0.0507
   84MOL    O6720153   6.207   5.720   6.307 -0.3951 -0.1235  0.8880
   84MOL    H6820154   5.859   5.626   6.442  0.8803  0.8377 -1.6932
   84MOL    H6920155   6.096   5.452   6.461  0.7395  0.4965  0.9600
   84MOL    H7020156   5.945   5.433   6.568  0.7930 -0.6235  0.0297
   84MOL    H7120157   6.039   5.571   6.584 -0.1091  1.1145 -0.4074
   84MOL    H7220158   5.908   5.679   6.224 -0.3378 -0.5991  0.0759
   84MOL    H7320159   6.027   5.550   6.202  0.9205  0.0680 -0.4409
   84MOL    O7420160   6.028   5.821   6.396  0.3541 -0.3941 -0.2039
   84MOL    C7520161   6.104   5.942   6.432 -0.0979 -0.6693  0.1750
   84MOL    C7620162   6.037   6.062   6.362 -0.5650 -0.2401 -0.0121
   84MOL    C7720163   6.089   5.968   6.588 -0.1796  0.2164 -0.1567
   84MOL    C7820164   6.170   5.876   6.673  0.1381  0.2259 -0.0473
   84MOL    O7920165   6.245   5.795   6.631  0.3044  0.3298 -0.2815
   84MOL    H8020166   6.206   5.927   6.396 -0.6172 -1.8527 -0.8476
   84MOL    H8120167   6.096   6.153   6.377 -1.8358  0.7080 -0.6760
   84MOL    H8220168   5.937   6.082   6.399 -0.8947 -3.2764  0.8258
   84MOL    H8320169   6.029   6.050   6.254 -0.0551  2.1504 -0.3578
   84MOL    H8420170   5.986   5.941   6.613  0.0720  0.1849  0.8861
   84MOL    H8520171   6.109   6.074   6.602 -0.8218  0.6262 -2.2165
   84MOL    O8620172   6.144   5.903   6.801 -0.2768 -0.6434  0.2955
   84MOL    C8720173   6.208   5.827   6.907 -0.6983 -0.7423  0.3058
   84MOL    C8820174   6.340   5.903   6.932 -0.2552 -0.0902  0.7984
   84MOL    C8920175   6.105   5.805   7.022  0.1151  0.4111 -0.5638
   84MOL    C9020176   6.023   5.923   7.088 -0.0343  0.2200 -0.7443
   84MOL    O9120177   5.911   5.938   7.063  0.3054  0.2217  0.5465
   84MOL    H9220178   6.234   5.731   6.861  0.0198  0.0083 -0.8845
   84MOL    H9320179   6.419   5.852   6.988  0.7933  0.5451 -0.0828
   84MOL    H9420180   6.308   5.999   6.974 -0.0823  0.1709  0.3373
   84MOL    H9520181   6.393   5.925   6.840 -0.2156 -3.8299 -0.1510
   84MOL    H9620182   6.155   5.747   7.099  3.4053 -0.6562 -3.3942
   84MOL    H9720183   6.035   5.733   6.980  1.8987 -0.8123 -1.4825
   84MOL    O9820184   6.094   5.995   7.176  0.0333  0.7696  0.4944
   84MOL    C9920185   6.036   6.101   7.242 -0.3481 -0.2306 -0.0075
   84MOL   C10020186   6.018   6.071   7.395 -0.3325  0.8779  0.7465
   84MOL   C10120187   6.113   6.235   7.223  0.1770 -0.1062 -0.3786
   84MOL   C10220188   6.126   6.291   7.085 -0.5827 -0.3454 -0.1264
   84MOL   O10320189   6.238   6.313   7.029  0.3172 -0.0617 -0.1810
   84MOL   H10420190   5.938   6.123   7.199 -0.2708  3.0363  1.3554
   84MOL   H10520191   5.958   6.142   7.453 -3.8120 -1.8188  0.6192
   84MOL   H10620192   6.114   6.063   7.445 -0.2978 -1.6364  0.3339
   84MOL   H10720193   5.970   5.973   7.401  1.4506 -0.3725 -3.4639
   84MOL   H10820194   6.208   6.233   7.277  0.3466 -0.0255 -0.6761
   84MOL   H10920195   6.059   6.312   7.279  2.8355  1.2012  0.5149
   84MOL   O11020196   6.015   6.317   7.027  0.0504 -0.3960  0.6430
   84MOL   C11120197   6.001   6.374   6.894  0.8245 -0.0441  0.2569
   84MOL   C11220198   5.953   6.269   6.798  0.2640 -0.6788 -1.1288
   84MOL   C11320199   5.901   6.495   6.900 -0.9452  0.4143  0.1061
   84MOL   C11420200   5.970   6.634   6.911  1.1522  0.2919  0.2836
   84MOL   O11520201   5.950   6.711   7.003  0.1405 -0.2159 -0.3531
   84MOL   H11620202   6.098   6.418   6.866  1.5981 -0.5051  2.1686
   84MOL   H11720203   5.926   6.307   6.699 -1.7878 -0.9671 -0.7074
   84MOL   H11820204   5.869   6.210   6.834 -0.8290  2.0291  0.8996
   84MOL   H11920205   6.025   6.190   6.774  0.7064 -0.0642 -1.8579
   84MOL   H12020206   5.842   6.485   6.992 -1.5321 -0.7670 -0.3815
   84MOL   H12120207   5.834   6.507   6.815  1.8253  2.6354 -1.8348
   84MOL   O12220208   6.048   6.664   6.801  0.5707 -0.0957 -0.0494
   84MOL   C12320209   6.117   6.789   6.805  0.2206 -0.4965  0.3955
   84MOL   C12420210   6.259   6.750   6.858  0.0374 -0.2847  0.2821
   84MOL   C12520211   6.114   6.857   6.660  0.1131 -1.0629 -0.8308
   84MOL   C12620212   6.162   6.765   6.545  0.7609 -0.5042  0.3647
   84MOL   O12720213   6.265   6.780   6.482 -0.4113  0.7438 -0.0685
   84MOL   H12820214   6.068   6.856   6.876  2.2132  0.4047  0.9610
   84MOL   H12920215   6.319   6.717   6.773  0.0139  0.7661 -0.1515
   84MOL   H13020216   6.253   6.666   6.927  2.2284  0.0260  0.8674
   84MOL   H13120217   6.318   6.831   6.900 -0.1821 -0.5752  1.1635
   84MOL   H13220218   6.176   6.946   6.665 -1.1296 -0.3368  2.2157
   84MOL   H13320219   6.009   6.879   6.641  0.2007  0.3318  0.2887
   84MOL   O13420220   6.070   6.663   6.523  0.3243 -0.4011  0.8194
   84MOL   C13520221   6.078   6.573   6.411  0.3466 -0.0530 -0.0991
   84MOL   C13620222   6.043   6.441   6.467  0.8750 -0.4564 -0.2769
   84MOL   C13720223   5.988   6.614   6.287  0.2207  0.1621  0.1128
   84MOL   C13820224   6.049   6.572   6.156  0.1767 -0.5384  0.4350
   84MOL   O13920225   6.134   6.640   6.099  0.5714 -0.7481 -0.0776
   84MOL   H14020226   6.185   6.565   6.389  0.1620 -1.2647 -0.5774
   84MOL   H14120227   6.106   6.411   6.551 -0.0470 -1.0640  0.2107
   84MOL   H14220228   6.037   6.365   6.389  1.5193 -0.9919  0.1799
   84MOL   H14320229   5.945   6.452   6.512  1.5045  0.0687  0.9827
   84MOL   H14420230   5.976   6.723   6.286 -0.7835  0.0532 -1.7571
   84MOL   H14520231   5.890   6.569   6.300  0.7103 -0.4205  1.8383
   84MOL   O14620232   5.993   6.457   6.117 -0.2976  0.2124  0.5707
   84MOL   C14720233   6.072   6.389   6.014 -0.6129 -0.1598 -0.1868
   84MOL   C14820234   6.072   6.251   6.070 -0.5100  0.5380  0.2107
   84MOL   C14920235   5.992   6.414   5.881  0.7557 -0.5749  0.3053
   84MOL   C15020236   6.056   6.332   5.771 -0.0313 -0.0599 -0.7234
   84MOL   O15120237   6.155   6.374   5.707 -0.1251 -0.1597  0.2809
   84MOL   H15220238   6.175   6.426   6.015 -0.8114  0.3995 -0.2756
   84MOL   H15320239   5.976   6.201   6.058  0.0103 -0.4578  0.2102
   84MOL   H15420240   6.088   6.241   6.177  2.0599  1.1783 -0.0876
   84MOL   H15520241   6.139   6.181   6.021 -0.6552  1.3342 -1.1542
   84MOL   H15620242   5.991   6.519   5.851 -0.5888 -0.1352  1.8357
   84MOL   H15720243   5.886   6.389   5.886  1.1811 -2.5347 -0.0220
   84MOL   O15820244   5.999   6.216   5.755 -0.0385 -0.2376 -0.6069
   84MOL   C15920245   6.047   6.130   5.657  1.0176  0.1647  0.1000
   84MOL   C16020246   6.160   6.049   5.728  0.1111 -0.0626 -0.0548
   84MOL   C16120247   5.925   6.049   5.616  0.8012  0.0552 -0.0940
   84MOL   C16220248   5.942   5.958   5.499  0.1977 -0.3755  0.9079
   84MOL   O16320249   6.046   5.903   5.473  0.2866  0.0336 -0.3826
   84MOL   H16420250   6.100   6.176   5.574  1.0984 -0.1879 -0.0464
   84MOL   H16520251   6.113   6.017   5.821  0.0476  2.0414  0.6615
   84MOL   H16620252   6.240   6.120   5.750  0.0222  0.1795 -0.4999
   84MOL   H16720253   6.195   5.964   5.670  2.4394  0.3070  0.7733
   84MOL   H16820254   5.842   6.112   5.586  0.6882  0.5661  1.2605
   84MOL   H16920255   5.884   5.987   5.696  3.1537  1.0436  1.9414
   84MOL   O17020256   5.837   5.941   5.429  0.4394  0.3611  0.0046
   84MOL   C17120257   5.837   5.863   5.316  0.0264  0.2274 -0.1998
   84MOL   C17220258   5.704   5.784   5.312 -0.2757  0.4156 -0.0362
   84MOL   C17320259   5.849   5.950   5.189  0.3750 -0.1150  0.1045
   84MOL   C17420260   5.928   5.890   5.073 -0.2240 -0.4235 -0.2446
   84MOL   O17520261   5.948   5.765   5.062 -0.1596 -0.5024  0.3644
   84MOL   H17620262   5.907   5.780   5.318 -1.9366 -1.4993 -1.1915
   84MOL   H17720263   5.614   5.846   5.304 -1.1457 -1.0753 -2.3239
   84MOL   H17820264   5.692   5.713   5.393  0.1287  0.9483  0.4948
   84MOL   H17920265   5.700   5.723   5.222 -1.2132  1.4487 -0.7172
   84MOL   H18020266   5.909   6.035   5.222  0.2755 -0.5615  1.4836
   84MOL   H18120267   5.754   5.996   5.163  0.6797 -0.4519 -1.6179
   84MOL   O18220268   5.964   5.982   4.989  0.1234 -0.1299  0.1286
   84MOL   C18320269   6.070   5.981   4.893 -0.6365 -0.4209  0.1875
   84MOL   C18420270   6.003   5.961   4.756 -0.0900  0.5165  0.4644
   84MOL   C18520271   6.157   6.109   4.910  0.1471 -0.2209  0.2647
   84MOL   C18620272   6.247   6.124   5.025 -0.0942  0.3719 -0.5578
   84MOL   O18720273   6.337   6.212   5.029 -0.5457  0.1171  0.3280
   84MOL   H18820274   6.136   5.898   4.919  2.0482  1.2546 -1.0067
   84MOL   H18920275   5.959   5.861   4.757 -1.0218  0.9135  2.1523
   84MOL   H19020276   6.080   5.968   4.680  0.0337  1.3015  0.6505
   84MOL   H19120277   5.938   6.042   4.724  0.1146  0.0107 -1.2620
   84MOL   H19220278   6.091   6.194   4.891 -0.1495 -0.4662  0.1931
   84MOL   H19320279   6.240   6.128   4.842  1.2245 -1.1511  1.2990
   84MOL   O19420280   6.227   6.036   5.135 -0.6470 -0.4107  0.3366
   84MOL   C19520281   6.305   6.046   5.249  0.0831  0.0066 -0.5347
   84MOL   C19620282   6.255   6.146   5.354 -0.0945 -0.1609 -0.2902
   84MOL   C19720283   6.328   5.902   5.316 -0.0805  0.0668  0.0249
   84MOL   C19820284   6.409   5.799   5.237 -0.3299 -0.2254  0.7787
   84MOL   O19920285   6.498   5.732   5.287  0.0276  0.4903  0.3409
   84MOL   H20020286   6.404   6.083   5.224  1.1464 -1.1263  1.8079
   84MOL   H20120287   6.281   6.127   5.458 -4.2712 -0.6525  0.7495
   84MOL   H20220288   6.146   6.146   5.349 -0.0629 -0.2636 -1.0710
   84MOL   H20320289   6.290   6.246   5.327  0.2204 -0.0385  0.5610
   84MOL   H20420290   6.244   5.843   5.354  0.9399 -0.7472  1.0638
   84MOL   H20520291   6.378   5.933   5.408  0.1223  1.6994 -0.6200
   84MOL   O20620292   6.357   5.777   5.120 -0.1554  0.0747 -0.2469
   84MOL   C20720293   6.422   5.677   5.037  0.3679  0.2881 -0.5557
   84MOL   C20820294   6.312   5.605   4.952 -0.2093  0.1684  0.6558
   84MOL   C20920295   6.534   5.717   4.945  0.2310 -0.3162  0.5294
   84MOL   C21020296   6.507   5.838   4.850 -0.4701 -0.1018 -0.0857
   84MOL   O21120297   6.397   5.902   4.853  0.6270  0.1990  0.4155
   84MOL   H21220298   6.474   5.599   5.092 -0.5749 -1.4466 -2.0965
   84MOL   H21320299   6.243   5.549   5.016 -0.5123  0.2298  0.3853
   84MOL   H21420300   6.355   5.549   4.870  0.2383  0.8158  0.4500
   84MOL   H21520301   6.243   5.681   4.916 -1.1996 -0.9906  0.0673
   84MOL   H21620302   6.551   5.637   4.874  1.8758  0.4256  0.0561
   84MOL   H21720303   6.616   5.751   5.008  0.0797  3.1237 -0.9998
   84MOL   O21820304   6.613   5.866   4.785  0.4202 -0.2472  0.1918
   84MOL   C21920305   6.634   5.985   4.723 -1.0298 -0.3434 -0.7010
   84MOL   C22020306   6.774   6.040   4.766  0.7964  0.0526  0.4713
   84MOL   C22120307   6.624   5.968   4.573  0.2216 -0.7541  0.3820
   84MOL   C22220308   6.476   5.977   4.529 -0.4292 -0.1462  0.4121
   84MOL   O22320309   6.400   6.077   4.531  0.5884  0.0263 -0.8276
   84MOL   H22420310   6.548   6.046   4.754  0.3388  1.3657 -0.2012
   84MOL   H22520311   6.796   6.141   4.734 -0.1619  0.4969  1.1940
   84MOL   H22620312   6.852   5.972   4.730 -0.3256 -1.4811  0.8576
   84MOL   H22720313   6.770   6.046   4.874 -0.6067 -0.4262  0.4523
   84MOL   H22820314   6.687   5.890   4.528  0.5253 -0.7692  0.8350
   84MOL   H22920315   6.675   6.060   4.543 -2.4462  0.5218 -0.3711
   84MOL   O23020316   6.433   5.863   4.464  0.1761 -0.5975  0.1506
   84MOL   C23120317   6.302   5.849   4.420 -0.5743 -0.0453 -0.1377
   84MOL   C23220318   6.293   5.901   4.270  0.6197 -0.0268  0.2926
   84MOL   C23320319   6.253   5.703   4.438  0.5550  0.0263  0.2189
   84MOL   C23420320   6.245   5.657   4.583 -0.6374 -0.5088 -0.0397
   84MOL   O23520321   6.238   5.539   4.610 -0.0194  0.4670  0.2250
   84MOL   H23620322   6.235   5.906   4.486  0.1880 -0.7181  1.2494
   84MOL   H23720323   6.344   5.841   4.195  1.8504  0.8448  0.4281
   84MOL   H23820324   6.330   6.002   4.254 -0.8463  1.3769  4.7649
   84MOL   H23920325   6.190   5.897   4.235  1.6318  0.0272 -2.8533
   84MOL   H24020326   6.316   5.640   4.375  0.2664 -1.3683  1.2901
   84MOL   H24120327   6.148   5.699   4.407 -0.0660 -2.0553  2.4234
   84MOL   H24220328   6.262   5.728   4.664 -2.2749 -0.2389  0.0758
   85MOL     O120329   0.831   5.316   1.471 -0.1420  0.1803 -0.5540
   85MOL     C220330   0.886   5.187   1.520 -0.0594  0.1431  0.1766
   85MOL     C320331   1.036   5.182   1.517  0.2147 -0.1043  0.7223
   85MOL     C420332   0.839   5.166   1.668  0.0152  0.3063 -0.8718
   85MOL     C520333   0.858   5.026   1.712  0.4011  0.9320  0.4082
   85MOL     O620334   0.936   4.994   1.798  0.0887 -0.5367 -0.5042
   85MOL     H720335   0.849   5.105   1.458  0.8742  3.1374 -4.5123
   85MOL     H820336   1.070   5.078   1.521  0.2755 -0.0347  2.2295
   85MOL     H920337   1.076   5.239   1.601 -0.4698 -3.1922  3.2697
   85MOL    H1020338   1.077   5.230   1.429  2.9234 -0.0406  1.9690
   85MOL    H1120339   0.731   5.179   1.669  0.2648  2.8182 -2.2032
   85MOL    H1220340   0.886   5.243   1.729  0.5411 -0.3278 -0.4684
   85MOL    H1320341   0.848   5.348   1.384 -1.0052 -0.3445 -0.9225
   85MOL    O1420342   0.792   4.937   1.638  0.1518  0.2448 -0.6216
   85MOL    C1520343   0.812   4.795   1.638  0.1737 -0.0683  0.5549
   85MOL    C1620344   0.677   4.730   1.629 -0.0289  0.3416 -0.4837
   85MOL    C1720345   0.897   4.751   1.517 -0.4065  0.1134  0.0219
   85MOL    C1820346   0.944   4.605   1.509  0.1432  0.3725 -0.0426
   85MOL    O1920347   1.052   4.567   1.549 -0.0357 -0.8298 -0.0397
   85MOL    H2020348   0.859   4.754   1.728  1.3152  0.7200  0.3297
   85MOL    H2120349   0.621   4.740   1.536 -2.1431 -0.6937  0.6374
   85MOL    H2220350   0.616   4.783   1.702 -0.0760 -1.0061  0.4723
   85MOL    H2320351   0.671   4.623   1.647  1.1265 -0.0685 -2.3600
   85MOL    H2420352   0.988   4.811   1.513 -1.5593  2.2537  3.6584
   85MOL    H2520353   0.837   4.769   1.428 -1.9304  3.5646  1.6326
   85MOL    O2620354   0.840   4.523   1.468 -0.1225  0.2646 -0.2911
   85MOL    C2720355   0.848   4.378   1.468 -0.2845 -0.1132 -0.2052
   85MOL    C2820356   0.714   4.330   1.525  0.3340  0.9135  0.0939
   85MOL    C2920357   0.869   4.322   1.325  0.0702  0.3009 -0.6017
   85MOL    C3020358   0.940   4.190   1.339 -0.3636 -0.3959  0.7119
   85MOL    O3120359   0.878   4.084   1.339 -0.3948 -0.9609  0.0202
   85MOL    H3220360   0.930   4.346   1.532 -1.4720 -1.2744  0.7736
   85MOL    H3320361   0.727   4.224   1.544 -2.9211  0.2842 -0.9488
   85MOL    H3420362   0.626   4.344   1.464  0.1983  0.8175  0.2677
   85MOL    H3520363   0.698   4.389   1.616 -3.5433 -0.8794  0.6543
   85MOL    H3620364   0.932   4.383   1.260  0.5270  1.3792  0.8353
   85MOL    H3720365   0.783   4.319   1.258  0.7096  1.1207 -1.4708
   85MOL    O3820366   1.072   4.209   1.346  0.0647  0.1231 -0.8114
   85MOL    C3920367   1.160   4.101   1.345  0.7460 -0.0635  0.1269
   85MOL    C4020368   1.286   4.130   1.256  0.3907  0.1963  0.4485
   85MOL    C4120369   1.180   4.045   1.491  0.1969 -0.4324  0.7773
   85MOL    C4220370   1.224   4.136   1.598  0.0830  0.5879  0.0070
   85MOL    O4320371   1.186   4.124   1.714  0.0474 -0.1373 -0.4378
   85MOL    H4420372   1.112   4.028   1.280  0.1552  3.6179 -3.7576
   85MOL    H4520373   1.315   4.040   1.202 -2.5819 -0.4214 -0.2278
   85MOL    H4620374   1.374   4.172   1.303  1.3865  0.3374 -1.4963
   85MOL    H4720375   1.267   4.187   1.165  0.1149 -0.2715  0.2084
   85MOL    H4820376   1.250   3.961   1.485 -2.0245 -2.3036  0.3741
   85MOL    H4920377   1.085   3.998   1.517 -0.6395  1.1584  0.6741
   85MOL    O5020378   1.320   4.218   1.565 -0.2454 -0.2965 -0.3265
   85MOL    C5120379   1.343   4.330   1.649 -0.6123 -0.5370 -0.5914
   85MOL    C5220380   1.466   4.300   1.741  0.8721  0.9095  0.3027
   85MOL    C5320381   1.382   4.451   1.562  0.0229 -0.2536  0.9061
   85MOL    C5420382   1.403   4.576   1.643 -0.3563  0.5856 -0.2369
   85MOL    O5520383   1.510   4.635   1.648  0.0414  0.0287  0.6993
   85MOL    H5620384   1.253   4.359   1.703 -1.1012 -3.7443  0.4094
   85MOL    H5720385   1.557   4.279   1.686  0.1300  0.7763 -0.9102
   85MOL    H5820386   1.442   4.225   1.816 -1.4171  0.1275 -1.1555
   85MOL    H5920387   1.482   4.388   1.804  0.9528  2.8567 -2.3371
   85MOL    H6020388   1.301   4.465   1.490  0.2205 -0.8022  0.5770
   85MOL    H6120389   1.471   4.415   1.511 -2.0918 -2.9372 -1.0456
   85MOL    O6220390   1.291   4.619   1.713  0.0433 -0.6767  0.2288
   85MOL    C6320391   1.305   4.741   1.792 -0.1732  0.0996  0.1510
   85MOL    C6420392   1.200   4.839   1.738  0.5049 -0.0987 -0.6187
   85MOL    C6520393   1.283   4.718   1.948  0.2604  0.0804 -0.0132
   85MOL    C6620394   1.168   4.625   1.972 -0.5411 -0.9486 -0.0108
   85MOL    O6720395   1.074   4.664   2.034  0.2533  0.5763 -0.3766
   85MOL    H6820396   1.403   4.784   1.771  0.4792 -2.1105 -1.5642
   85MOL    H6920397   1.102   4.796   1.719 -0.2064  1.6286 -0.9554
   85MOL    H7020398   1.227   4.875   1.638 -2.0724  0.7379 -1.0519
   85MOL    H7120399   1.199   4.930   1.798  0.8063 -0.0569 -0.6721
   85MOL    H7220400   1.261   4.806   2.009 -0.6488 -0.2035  0.0770
   85MOL    H7320401   1.373   4.669   1.985 -1.6565 -2.7853  1.0594
   85MOL    O7420402   1.192   4.495   1.934  0.2320 -0.6900 -0.0448
   85MOL    C7520403   1.100   4.391   1.952 -0.4387  1.0678 -0.7697
   85MOL    C7620404   1.001   4.379   1.835  0.3174  0.0739  0.1412
   85MOL    C7720405   1.186   4.269   1.991  0.2026 -0.1776 -0.2560
   85MOL    C7820406   1.181   4.234   2.142  0.2838 -0.2255 -0.2927
   85MOL    O7920407   1.282   4.231   2.218 -0.3404 -0.3667  0.0320
   85MOL    H8020408   1.037   4.412   2.040  0.6793  0.7485  0.1179
   85MOL    H8120409   1.052   4.349   1.743 -2.1958 -0.5938 -1.0661
   85MOL    H8220410   0.951   4.474   1.818 -0.9614 -0.5521  0.3747
   85MOL    H8320411   0.917   4.310   1.845 -0.4269  0.8751 -0.5983
   85MOL    H8420412   1.288   4.279   1.955  0.0313  1.5536 -0.3139
   85MOL    H8520413   1.141   4.181   1.946 -0.8156  0.2166 -0.0314
   85MOL    O8620414   1.047   4.215   2.182 -0.3906 -0.0239 -0.0291
   85MOL    C8720415   1.024   4.179   2.317  0.4704 -0.3427 -0.0330
   85MOL    C8820416   0.986   4.309   2.394 -0.5044  0.1060 -0.0315
   85MOL    C8920417   0.918   4.065   2.320  0.1363  0.0633  0.3954
   85MOL    C9020418   0.893   4.019   2.464  0.1395 -0.0073  0.3846
   85MOL    O9120419   0.814   4.079   2.536  0.2127 -0.0678  0.7932
   85MOL    H9220420   1.113   4.138   2.364  1.3505 -0.6192 -1.9105
   85MOL    H9320421   1.076   4.367   2.411 -1.5303  1.3410  1.3631
   85MOL    H9420422   0.958   4.286   2.497  0.3710  2.6528  0.7942
   85MOL    H9520423   0.903   4.368   2.355 -1.5433 -0.3531  1.3985
   85MOL    H9620424   0.952   3.980   2.260 -0.9668  0.1983 -0.4374
   85MOL    H9720425   0.831   4.108   2.271  2.2027  2.1346 -1.5993
   85MOL    O9820426   0.947   3.899   2.492 -0.2878 -0.3475  0.2667
   85MOL    C9920427   0.908   3.838   2.614 -0.3027 -0.0907 -0.0051
   85MOL   C10020428   0.849   3.696   2.584 -0.4993 -0.0831 -0.0235
   85MOL   C10120429   1.014   3.845   2.715  0.1708 -0.0156 -0.4957
   85MOL   C10220430   0.961   3.853   2.864 -0.0172  0.0633  0.2327
   85MOL   O10320431   1.003   3.942   2.936 -0.0220  0.5806 -0.2966
   85MOL   H10420432   0.823   3.887   2.660  1.4956  2.5769  0.5318
   85MOL   H10520433   0.804   3.652   2.673  0.3513 -0.7377  0.0823
   85MOL   H10620434   0.926   3.626   2.553  1.6368  2.5455 -0.8148
   85MOL   H10720435   0.775   3.689   2.504  0.1759 -1.5607 -0.5300
   85MOL   H10820436   1.061   3.943   2.704  0.0595 -0.0430 -1.2213
   85MOL   H10920437   1.087   3.765   2.707  0.7808  0.6356 -1.5178
   85MOL   O11020438   0.873   3.758   2.898 -0.0439  0.0183  0.3012
   85MOL   C11120439   0.822   3.744   3.034 -0.2417  0.7272  0.5479
   85MOL   C11220440   0.676   3.799   3.052 -0.0683 -0.6225  0.6029
   85MOL   C11320441   0.834   3.590   3.065  0.8586  0.0101  0.3934
   85MOL   C11420442   0.842   3.553   3.215  0.1289 -0.6528 -0.1381
   85MOL   O11520443   0.901   3.457   3.256 -0.1485  0.2588 -0.2372
   85MOL   H11620444   0.882   3.799   3.107 -0.8194 -1.7494  2.9848
   85MOL   H11720445   0.600   3.745   2.995 -0.8597  2.3300 -1.2424
   85MOL   H11820446   0.677   3.903   3.020 -0.7341 -0.7219  0.2657
   85MOL   H11920447   0.652   3.802   3.158 -0.7645 -0.7840  0.4520
   85MOL   H12020448   0.911   3.546   3.001  1.6732 -1.0042  2.0219
   85MOL   H12120449   0.743   3.539   3.034  0.6830 -0.5262  1.7319
   85MOL   O12220450   0.790   3.654   3.299  0.6369 -0.0681  0.2480
   85MOL   C12320451   0.766   3.623   3.441 -0.2702  0.0930  0.5660
   85MOL   C12420452   0.791   3.764   3.503  0.5299  0.3351  0.5233
   85MOL   C12520453   0.622   3.570   3.452  0.0081  0.0881  0.1298
   85MOL   C12620454   0.520   3.653   3.381  0.2519 -0.3998 -0.3462
   85MOL   O12720455   0.471   3.622   3.275 -0.2730  0.1551  0.2321
   85MOL   H12820456   0.836   3.549   3.480  0.4459  0.2026 -0.4916
   85MOL   H12920457   0.896   3.792   3.487 -0.3386  4.0690  0.9540
   85MOL   H13020458   0.781   3.759   3.612 -0.7291  0.8157  0.4288
   85MOL   H13120459   0.728   3.839   3.456  0.6152 -1.1261 -2.0120
   85MOL   H13220460   0.596   3.584   3.556  2.9820 -1.4255  1.1375
   85MOL   H13320461   0.603   3.464   3.434  0.3275  0.4073 -2.3860
   85MOL   O13420462   0.483   3.762   3.456  0.0462  0.9101  0.0861
   85MOL   C13520463   0.373   3.839   3.421  0.1993 -0.4319  0.4204
   85MOL   C13620464   0.314   3.903   3.546 -0.4308 -0.3647  0.4121
   85MOL   C13720465   0.403   3.925   3.296  0.8067 -0.3222 -0.1583
   85MOL   C13820466   0.483   4.058   3.316  0.3221 -0.3652  0.1788
   85MOL   O13920467   0.423   4.166   3.331  0.2315  0.4665  0.2150
   85MOL   H14020468   0.296   3.770   3.386 -2.2881  2.3593  0.1957
   85MOL   H14120469   0.295   3.829   3.624  0.8733 -0.7465  0.3832
   85MOL   H14220470   0.222   3.957   3.523  0.4801  0.6921 -0.7527
   85MOL   H14320471   0.391   3.961   3.598  0.1371 -1.6693  1.0563
   85MOL   H14420472   0.305   3.953   3.258  0.7856 -0.3284 -0.1075
   85MOL   H14520473   0.452   3.871   3.215 -1.4531  0.0059 -1.7701
   85MOL   O14620474   0.616   4.033   3.313  0.0219 -0.1917  0.5339
   85MOL   C14720475   0.709   4.139   3.330 -0.8753  0.4113  0.2094
   85MOL   C14820476   0.804   4.105   3.446 -0.8890  0.2176 -0.2183
   85MOL   C14920477   0.792   4.176   3.207 -1.0550  0.6922 -0.0653
   85MOL   C15020478   0.713   4.252   3.104  0.0930  0.1972 -0.5974
   85MOL   O15120479   0.682   4.369   3.125 -0.7025  0.4702  0.3095
   85MOL   H15220480   0.649   4.227   3.352 -0.6177  1.0952 -1.6972
   85MOL   H15320481   0.747   4.053   3.523 -0.9521  1.3690  0.5404
   85MOL   H15420482   0.841   4.198   3.490 -0.9475 -0.5491  1.5144
   85MOL   H15520483   0.887   4.040   3.419  2.4219  3.6862  0.9887
   85MOL   H15620484   0.842   4.087   3.169 -1.1500 -0.5663  2.5928
   85MOL   H15720485   0.872   4.242   3.241 -0.2951 -0.5762  0.7000
   85MOL   O15820486   0.675   4.176   2.997  0.0619  0.3408 -0.0420
   85MOL   C15920487   0.562   4.211   2.920  1.1849  0.9879  0.0445
   85MOL   C16020488   0.602   4.169   2.780 -0.9181  0.4011 -0.4349
   85MOL   C16120489   0.432   4.147   2.970  0.0052  0.3129  0.3313
   85MOL   C16220490   0.315   4.167   2.878 -0.1044 -0.6353  0.6291
   85MOL   O16320491   0.269   4.067   2.820  0.0676 -0.2993  1.0724
   85MOL   H16420492   0.549   4.319   2.921 -0.0261  0.8448  1.9608
   85MOL   H16520493   0.539   4.214   2.703 -0.8161  0.0265 -0.7359
   85MOL   H16620494   0.602   4.060   2.779  1.1807  0.3065  2.8195
   85MOL   H16720495   0.706   4.187   2.754 -0.0091 -0.1868  2.6316
   85MOL   H16820496   0.400   4.186   3.066 -0.4203 -1.2241  0.8228
   85MOL   H16920497   0.444   4.039   2.985 -1.4846  0.3864  2.3058
   85MOL   O17020498   0.283   4.299   2.860  0.2604 -0.1065  0.1018
   85MOL   C17120499   0.180   4.337   2.767 -0.0375 -0.2003 -0.4448
   85MOL   C17220500   0.069   4.403   2.848 -0.2243 -0.1994  0.3830
   85MOL   C17320501   0.245   4.433   2.670  0.0352 -0.5730 -0.4099
   85MOL   C17420502   0.281   4.385   2.528  0.5293 -0.9631 -0.6024
   85MOL   O17520503   0.208   4.399   2.433 -0.1688 -0.1046 -0.1347
   85MOL   H17620504   0.140   4.252   2.712  0.0428  0.8913 -2.2294
   85MOL   H17720505   0.031   4.331   2.921 -0.7100 -1.9830 -1.5900
   85MOL   H17820506   7.975   4.436   2.775  0.4702  0.6459  0.0507
   85MOL   H17920507   0.100   4.497   2.894  0.7724 -0.8502  1.0676
   85MOL   H18020508   0.337   4.466   2.719 -1.2082  2.7748 -0.2439
   85MOL   H18120509   0.201   4.533   2.671 -1.1785 -1.0932 -1.5398
   85MOL   O18220510   0.402   4.331   2.518  0.4919  0.0385  0.3376
   85MOL   C18320511   0.449   4.278   2.392  0.0769  0.3256 -0.1120
   85MOL   C18420512   0.585   4.337   2.362  0.3654 -0.4577  0.0528
   85MOL   C18520513   0.453   4.131   2.419  0.2288 -0.4340  0.3075
   85MOL   C18620514   0.475   4.051   2.292  0.3496 -0.2194  0.0484
   85MOL   O18720515   0.419   4.079   2.185 -0.1960  1.2716 -0.2742
   85MOL   H18820516   0.377   4.299   2.313 -0.3564 -2.1934 -0.4251
   85MOL   H18920517   0.660   4.319   2.439  0.4034 -1.7262 -0.2761
   85MOL   H19020518   0.554   4.441   2.348 -2.7974 -1.4086 -0.3629
   85MOL   H19120519   0.636   4.315   2.268  3.6447 -1.9347  2.1079
   85MOL   H19220520   0.360   4.089   2.458 -0.0949  1.8570  2.0845
   85MOL   H19320521   0.534   4.121   2.491  0.8139  1.9675 -0.0063
   85MOL   O19420522   0.553   3.944   2.303  0.4013  0.0022 -0.1469
   85MOL   C19520523   0.556   3.824   2.221 -0.4058 -0.0451  0.1845
   85MOL   C19620524   0.691   3.779   2.202 -0.0838  1.0103 -0.1241
   85MOL   C19720525   0.456   3.710   2.251 -0.1968  1.1935 -0.1696
   85MOL   C19820526   0.491   3.650   2.386  0.4088 -0.3144  0.8136
   85MOL   O19920527   0.581   3.562   2.394  0.6615  0.2638  0.0500
   85MOL   H20020528   0.526   3.861   2.122  1.5206 -1.6647 -1.0399
   85MOL   H20120529   0.772   3.851   2.184  0.4117  0.4396 -0.1837
   85MOL   H20220530   0.699   3.716   2.114 -2.0078  1.1313 -0.3982
   85MOL   H20320531   0.725   3.729   2.292  0.0682  0.4498 -0.4930
   85MOL   H20420532   0.455   3.640   2.168 -4.2088  0.1405  0.6617
   85MOL   H20520533   0.356   3.753   2.261 -0.7055 -0.1342  0.6309
   85MOL   O20620534   0.429   3.724   2.483  0.0691  0.0558  0.1328
   85MOL   C20720535   0.465   3.699   2.626  0.2145 -0.2239  0.1190
   85MOL   C20820536   0.403   3.810   2.704 -0.3522 -0.6488 -0.2896
   85MOL   C20920537   0.409   3.571   2.683  0.0326  0.2285 -0.5067
   85MOL   C21020538   0.494   3.502   2.791  0.7022  0.1985 -0.0894
   85MOL   O21120539   0.603   3.549   2.823 -0.4919  0.2554 -0.6065
   85MOL   H21220540   0.574   3.703   2.636  0.1761  1.8622 -0.0658
   85MOL   H21320541   0.295   3.799   2.706 -0.2836 -1.4472 -1.1029
   85MOL   H21420542   0.433   3.908   2.666 -1.8509 -0.0899 -0.0757
   85MOL   H21520543   0.439   3.798   2.807 -1.4693  0.2253  0.2246
   85MOL   H21620544   0.381   3.501   2.605  0.4843  1.7122 -2.0435
   85MOL   H21720545   0.313   3.592   2.730 -0.3267  0.0789 -1.1701
   85MOL   O21820546   0.425   3.405   2.849  0.5824  0.0379  0.0377
   85MOL   C21920547   0.484   3.312   2.937 -0.1863 -0.4703  0.3951
   85MOL   C22020548   0.433   3.327   3.079 -0.1711  0.1886 -0.0023
   85MOL   C22120549   0.473   3.178   2.870  0.0474 -0.1471  0.5816
   85MOL   C22220550   0.540   3.055   2.935 -0.2728  0.5678  0.2340
   85MOL   O22320551   0.498   2.942   2.918 -0.4607 -0.2099 -0.5865
   85MOL   H22420552   0.590   3.337   2.927  0.1762 -1.9478  0.4952
   85MOL   H22520553   0.331   3.292   3.095 -0.3364  1.4726  1.8540
   85MOL   H22620554   0.420   3.431   3.109 -1.8136  0.5283 -1.7709
   85MOL   H22720555   0.486   3.258   3.145 -0.4141  0.9927  1.0434
   85MOL   H22820556   0.514   3.178   2.769 -2.9201  2.8624 -0.7364
   85MOL   H22920557   0.367   3.157   2.853  0.1202  0.1165 -0.1844
   85MOL   O23020558   0.657   3.099   2.993 -0.2395  0.4011  0.2466
   85MOL   C23120559   0.737   3.013   3.070  0.8930  0.0320 -0.7990
   85MOL   C23220560   0.833   2.950   2.968 -0.4429  0.8089  0.7463
   85MOL   C23320561   0.802   3.099   3.172 -0.0403 -0.2336 -0.1784
   85MOL   C23420562   0.707   3.139   3.292 -0.1834  0.3150  0.4357
   85MOL   O23520563   0.627   3.056   3.342 -0.4989  0.6326 -0.1097
   85MOL   H23620564   0.673   2.945   3.126  0.8371  0.3990 -0.4059
   85MOL   H23720565   0.877   2.863   3.016 -1.5217  0.5724  1.3235
   85MOL   H23820566   0.916   3.013   2.935 -0.5372  0.7837  0.4655
   85MOL   H23920567   0.785   2.899   2.885 -1.4923  0.4292  1.5736
   85MOL   H24020568   0.835   3.189   3.119 -3.0829  0.0287 -1.7737
   85MOL   H24120569   0.894   3.053   3.207 -0.5102  0.0884  1.5377
   85MOL   H24220570   0.714   3.243   3.324 -0.9946  1.0529 -1.6767
   86MOL     O120571   5.892   7.890   4.597 -0.1410  0.4961 -0.2883
   86MOL     C220572   5.806   7.949   4.502 -0.4873 -0.8081 -0.1585
   86MOL     C320573   5.784   7.845   4.395 -0.1155 -0.0561 -0.1382
   86MOL     C420574   5.678   0.011   4.571  0.2670  0.2838  0.8008
   86MOL     C520575   5.687   0.143   4.655 -0.1375 -0.6616  0.2273
   86MOL     O620576   5.634   0.142   4.770 -0.9287  0.7173 -0.4661
   86MOL     H720577   5.852   0.057   4.458 -2.5344  0.5531  0.3362
   86MOL     H820578   5.878   7.797   4.367 -0.5054 -1.0620  0.2604
   86MOL     H920579   5.739   7.892   4.307  2.1525  2.3519 -0.0975
   86MOL    H1020580   5.720   7.768   4.437  0.9751 -0.2428  1.2344
   86MOL    H1120581   5.642   7.910   4.635 -2.0178 -0.8386 -1.8180
   86MOL    H1220582   5.609   0.030   4.489  1.6821  1.7658 -0.0846
   86MOL    H1320583   5.865   7.801   4.614  3.4168 -0.2664  2.0746
   86MOL    O1420584   5.763   0.237   4.595  0.0002  0.2951  0.0300
   86MOL    C1520585   5.779   0.362   4.654  1.5078  0.0842 -0.2100
   86MOL    C1620586   5.892   0.423   4.582 -0.0252  0.1515 -0.4880
   86MOL    C1720587   5.649   0.458   4.645 -0.1985  1.1153  0.2512
   86MOL    C1820588   5.589   0.506   4.510 -0.7949  0.5699  0.5602
   86MOL    O1920589   5.550   0.615   4.485 -0.4628 -0.4278 -0.4313
   86MOL    H2020590   5.815   0.340   4.754  3.2192 -1.0270 -1.0395
   86MOL    H2120591   5.980   0.359   4.598  0.1156  0.4401 -0.0936
   86MOL    H2220592   5.918   0.525   4.608  1.9332 -0.6789  0.9816
   86MOL    H2320593   5.872   0.437   4.476  0.2841 -1.0979 -0.7228
   86MOL    H2420594   5.666   0.555   4.693  0.0975  1.3645 -0.3431
   86MOL    H2520595   5.567   0.412   4.699 -2.1785  1.7975 -2.0521
   86MOL    O2620596   5.586   0.401   4.431  0.6182  0.2246  0.0454
   86MOL    C2720597   5.514   0.409   4.309 -0.0497 -0.7984  0.3599
   86MOL    C2820598   5.594   0.324   4.213 -0.1745 -0.4960  0.6690
   86MOL    C2920599   5.368   0.351   4.320  0.1232  0.3727  0.9311
   86MOL    C3020600   5.272   0.457   4.365  0.1227  0.9950  0.3420
   86MOL    O3120601   5.273   0.568   4.318 -0.3570 -0.1937  0.3293
   86MOL    H3220602   5.503   0.511   4.271 -2.1794 -1.1030  0.0707
   86MOL    H3320603   5.701   0.339   4.222 -0.2534  1.7763 -1.5224
   86MOL    H3420604   5.572   0.349   4.109  1.0882 -2.9473 -0.2239
   86MOL    H3520605   5.559   0.224   4.240 -4.0681  0.8422  0.8325
   86MOL    H3620606   5.372   0.261   4.381 -1.1671 -1.4711 -1.6154
   86MOL    H3720607   5.337   0.307   4.226  0.3907 -2.0693  1.9638
   86MOL    O3820608   5.171   0.411   4.453 -0.3543  0.6263 -0.2873
   86MOL    C3920609   5.059   0.488   4.494 -0.0245  0.1357  0.2062
   86MOL    C4020610   4.939   0.429   4.445 -0.2528  0.5577 -0.2526
   86MOL    C4120611   5.063   0.533   4.642 -0.1373 -0.2591  0.1148
   86MOL    C4220612   5.165   0.631   4.681  1.0299  0.8607 -0.0375
   86MOL    O4320613   5.242   0.606   4.771  0.1695 -0.0179  0.2314
   86MOL    H4420614   5.064   0.579   4.434 -4.1945  1.1480  1.2254
   86MOL    H4520615   4.919   0.334   4.496  1.7831  1.1605  1.7913
   86MOL    H4620616   4.942   0.403   4.339  1.1493 -1.4417  0.2423
   86MOL    H4720617   4.853   0.491   4.465  0.7655  1.6901  0.6856
   86MOL    H4820618   5.068   0.453   4.716  2.1400  1.1550  1.5484
   86MOL    H4920619   4.962   0.572   4.648  0.3445  0.9749  0.2794
   86MOL    O5020620   5.148   0.752   4.619  0.1086  0.7162 -0.3563
   86MOL    C5120621   5.247   0.846   4.615 -0.1313 -0.0180  0.2471
   86MOL    C5220622   5.246   0.915   4.473  0.6082  0.4620 -0.5475
   86MOL    C5320623   5.234   0.951   4.731  0.6758  0.5385  0.5679
   86MOL    C5420624   5.360   0.980   4.813  0.9207 -0.5065 -0.0405
   86MOL    O5520625   5.353   1.022   4.931 -0.2445  0.0214 -0.3128
   86MOL    H5620626   5.341   0.791   4.620  1.3547  2.2999 -1.3018
   86MOL    H5720627   5.344   0.962   4.459 -0.2338  2.0996 -1.1070
   86MOL    H5820628   5.178   1.000   4.466 -0.0698  0.0304  0.7418
   86MOL    H5920629   5.253   0.843   4.391 -0.1056 -1.9516  1.4624
   86MOL    H6020630   5.166   0.906   4.803  1.1107 -0.1755  0.5363
   86MOL    H6120631   5.185   1.038   4.689  0.5695  0.6051  0.8304
   86MOL    O6220632   5.476   0.951   4.752  0.5261  0.0560  0.5654
   86MOL    C6320633   5.597   0.992   4.810  0.0072 -0.1255 -0.1759
   86MOL    C6420634   5.671   0.862   4.844 -0.4861 -0.2731  0.1960
   86MOL    C6520635   5.663   1.073   4.703 -0.2258  0.4292 -0.3333
   86MOL    C6620636   5.621   1.222   4.711  0.0052  0.1217  0.1915
   86MOL    O6720637   5.703   1.319   4.710  0.1645 -0.3245  0.6686
   86MOL    H6820638   5.595   1.042   4.906 -0.3279  0.3704 -0.4422
   86MOL    H6920639   5.682   0.805   4.752  0.5396 -1.6569  1.1717
   86MOL    H7020640   5.621   0.808   4.924 -0.2414  1.4913  1.5856
   86MOL    H7120641   5.769   0.886   4.885 -0.4118 -0.0364 -0.1088
   86MOL    H7220642   5.652   1.029   4.604  3.3183 -0.2066 -0.4819
   86MOL    H7320643   5.770   1.071   4.721 -0.4713  2.6887  1.6011
   86MOL    O7420644   5.486   1.233   4.711 -0.3010 -0.4298 -0.3777
   86MOL    C7520645   5.409   1.345   4.684  0.2673  0.2439  0.3157
   86MOL    C7620646   5.323   1.323   4.554 -0.0286  0.7731  0.0569
   86MOL    C7720647   5.319   1.365   4.812 -0.4672 -0.2678  0.3430
   86MOL    C7820648   5.237   1.493   4.800 -0.2080 -0.1192 -0.4016
   86MOL    O7920649   5.122   1.499   4.840 -0.2809  0.8354 -0.6455
   86MOL    H8020650   5.471   1.434   4.672  0.1715  0.1426 -1.0227
   86MOL    H8120651   5.377   1.339   4.460 -1.1722 -0.0977 -0.7529
   86MOL    H8220652   5.252   1.406   4.544  1.1948  1.6791 -1.5302
   86MOL    H8320653   5.263   1.233   4.553  0.2688  0.5438  1.6831
   86MOL    H8420654   5.386   1.379   4.897  0.4594 -0.4191 -0.3548
   86MOL    H8520655   5.253   1.279   4.822  1.0650 -1.3089  1.7185
   86MOL    O8620656   5.303   1.605   4.751  0.1359  0.1475  0.5997
   86MOL    C8720657   5.245   1.735   4.739  0.6069 -0.4201 -0.1267
   86MOL    C8820658   5.258   1.808   4.871  0.2626 -0.7437 -0.2657
   86MOL    C8920659   5.305   1.815   4.624 -0.0413 -0.0694  0.0917
   86MOL    C9020660   5.217   1.940   4.589  0.5786  0.5229  0.2581
   86MOL    O9120661   5.252   2.058   4.585 -0.0026 -0.0758 -0.3882
   86MOL    H9220662   5.138   1.733   4.720  0.2954 -1.4355  1.6171
   86MOL    H9320663   5.215   1.908   4.872  2.5418  0.2692  1.8883
   86MOL    H9420664   5.364   1.807   4.898  0.4683 -1.1999 -1.0825
   86MOL    H9520665   5.216   1.750   4.954 -0.7526 -1.2535 -1.1270
   86MOL    H9620666   5.322   1.755   4.535 -0.1572  2.4324 -1.6896
   86MOL    H9720667   5.402   1.853   4.654  0.1974  0.0745 -0.8391
   86MOL    O9820668   5.089   1.897   4.553 -0.5313  0.3357  0.0330
   86MOL    C9920669   4.984   1.992   4.538  0.2761  0.4795  0.6052
   86MOL   C10020670   4.880   1.929   4.443  0.1847 -0.5014  0.1653
   86MOL   C10120671   4.923   2.036   4.668 -0.4586  0.9265 -0.1329
   86MOL   C10220672   4.837   2.167   4.655  0.0797  0.0472  0.4363
   86MOL   O10320673   4.886   2.274   4.639 -0.2325  0.2550 -0.3101
   86MOL   H10420674   5.014   2.080   4.480 -0.3479 -0.2748 -0.8702
   86MOL   H10520675   4.922   1.889   4.350 -2.1872 -0.8038 -0.8289
   86MOL   H10620676   4.800   1.994   4.408 -0.4549 -1.4802 -0.2394
   86MOL   H10720677   4.838   1.844   4.497  1.5023 -1.9459 -0.9950
   86MOL   H10820678   5.010   2.059   4.730 -0.6596 -1.3022  1.0089
   86MOL   H10920679   4.868   1.957   4.719  1.6198  0.4998  1.5651
   86MOL   O11020680   4.700   2.134   4.660 -0.1845 -0.2375 -0.0937
   86MOL   C11120681   4.610   2.245   4.660 -0.5777 -0.4763 -0.7912
   86MOL   C11220682   4.592   2.302   4.521  0.4285  0.0711  0.6191
   86MOL   C11320683   4.479   2.210   4.728 -0.2833 -0.0634  0.1611
   86MOL   C11420684   4.483   2.196   4.877 -0.4584  0.8663 -0.0736
   86MOL   O11520685   4.577   2.244   4.941 -0.2034 -0.2511 -0.3770
   86MOL   H11620686   4.650   2.327   4.720 -0.4630 -0.1947 -1.2500
   86MOL   H11720687   4.513   2.378   4.527  0.5495  0.6060 -3.0795
   86MOL   H11820688   4.572   2.224   4.447  0.9795  0.6514 -0.1521
   86MOL   H11920689   4.678   2.356   4.483  2.4482 -3.0236  0.6658
   86MOL   H12020690   4.432   2.122   4.684 -0.8888  0.2124  0.2631
   86MOL   H12120691   4.402   2.285   4.714 -1.8557 -1.8812 -1.2228
   86MOL   O12220692   4.380   2.131   4.921  0.0375  0.1731 -0.5228
   86MOL   C12320693   4.364   2.106   5.063 -1.1504  0.6041 -0.7224
   86MOL   C12420694   4.216   2.121   5.111  0.4829  0.1417  0.4251
   86MOL   C12520695   4.421   1.967   5.090 -0.5837  0.2264 -0.0214
   86MOL   C12620696   4.440   1.918   5.231 -0.6483  0.1937  0.0819
   86MOL   O12720697   4.505   1.983   5.311  1.1638  0.2791  0.2494
   86MOL   H12820698   4.423   2.178   5.119 -1.4686  1.0329 -0.9291
   86MOL   H12920699   4.145   2.084   5.037  0.1855  0.6556  0.4543
   86MOL   H13020700   4.194   2.227   5.110  0.9821  0.2385 -1.8933
   86MOL   H13120701   4.199   2.073   5.208  1.6080 -0.9861  0.0806
   86MOL   H13220702   4.519   1.959   5.043 -1.3103 -0.7303 -1.4101
   86MOL   H13320703   4.363   1.893   5.034  0.8673  0.7584 -2.2933
   86MOL   O13420704   4.364   1.809   5.260 -0.4494  0.2801  0.4466
   86MOL   C13520705   4.341   1.766   5.397 -0.4645  0.2747  0.0455
   86MOL   C13620706   4.266   1.878   5.464  0.7811 -0.8517 -0.5185
   86MOL   C13720707   4.270   1.631   5.411  0.0053  0.7271 -0.0441
   86MOL   C13820708   4.354   1.508   5.379 -0.0330  0.2558  0.6125
   86MOL   O13920709   4.295   1.403   5.365 -0.0195  0.6218  0.0320
   86MOL   H14020710   4.440   1.751   5.440 -0.3187 -0.4675 -0.5449
   86MOL   H14120711   4.172   1.899   5.414  1.2134  0.7527 -0.6920
   86MOL   H14220712   4.307   1.979   5.462  1.6380 -1.1338  1.4479
   86MOL   H14320713   4.239   1.852   5.567 -1.0167 -2.3495 -1.3515
   86MOL   H14420714   4.187   1.625   5.341 -0.8999  2.0237  0.8823
   86MOL   H14520715   4.234   1.624   5.514  0.7522 -0.6216  0.1308
   86MOL   O14620716   4.494   1.529   5.383  0.4783  0.4608 -0.4459
   86MOL   C14720717   4.590   1.429   5.346 -0.1129  0.6664  0.1163
   86MOL   C14820718   4.661   1.471   5.218  1.0035 -0.0504 -0.3473
   86MOL   C14920719   4.696   1.425   5.453  0.1882 -0.5153  0.5825
   86MOL   C15020720   4.678   1.321   5.568  0.5863 -0.6336 -0.2775
   86MOL   O15120721   4.779   1.279   5.629  0.6478  0.1854  0.7237
   86MOL   H15220722   4.547   1.329   5.334  0.2812  0.2192  2.2599
   86MOL   H15320723   4.725   1.557   5.240  0.2383 -0.3727  3.4493
   86MOL   H15420724   4.590   1.496   5.139 -0.0139 -2.3387 -0.1824
   86MOL   H15520725   4.717   1.386   5.179  1.7756 -0.5443  1.7413
   86MOL   H15620726   4.722   1.522   5.495  1.4605 -0.3542 -0.5202
   86MOL   H15720727   4.790   1.390   5.410  0.5044  2.2134 -1.0327
   86MOL   O15820728   4.553   1.293   5.598 -0.1607  0.4331 -0.0977
   86MOL   C15920729   4.508   1.238   5.718 -0.1985  0.1208  0.2095
   86MOL   C16020730   4.356   1.261   5.717  0.3229  1.0345  0.3206
   86MOL   C16120731   4.543   1.090   5.727 -0.7476  0.2066 -0.0761
   86MOL   C16220732   4.467   1.007   5.622 -0.4038  0.6423  0.6901
   86MOL   O16320733   4.381   0.935   5.662  0.3017  0.4800  0.7354
   86MOL   H16420734   4.551   1.297   5.799  2.4924 -0.7814 -0.5260
   86MOL   H16520735   4.299   1.215   5.636 -0.8812  2.0838  0.5604
   86MOL   H16620736   4.340   1.367   5.697 -1.2390  0.8573  0.5493
   86MOL   H16720737   4.301   1.240   5.809 -1.4916 -1.5793 -1.3018
   86MOL   H16820738   4.522   1.058   5.829 -2.0331  1.3965  0.0474
   86MOL   H16920739   4.651   1.084   5.715 -0.7537 -0.1034  0.0060
   86MOL   O17020740   4.507   1.027   5.499 -0.2816 -0.2652  0.7574
   86MOL   C17120741   4.453   0.952   5.396 -0.0520 -0.1616 -0.3625
   86MOL   C17220742   4.394   1.053   5.289  1.0289  0.2937 -0.3595
   86MOL   C17320743   4.570   0.870   5.331 -0.4753  0.6736 -0.6177
   86MOL   C17420744   4.529   0.770   5.231 -0.0598  0.4672  0.2327
   86MOL   O17520745   4.452   0.792   5.134 -0.1795  0.6948 -0.4118
   86MOL   H17620746   4.378   0.879   5.424 -0.2797 -0.4884 -1.7792
   86MOL   H17720747   4.344   1.011   5.201  2.2316  1.3091 -1.5595
   86MOL   H17820748   4.482   1.100   5.243 -0.2094  0.7940 -2.2694
   86MOL   H17920749   4.330   1.115   5.351  1.3034  0.5895 -0.3695
   86MOL   H18020750   4.622   0.821   5.414 -0.2566 -0.7902 -1.6165
   86MOL   H18120751   4.643   0.941   5.292  0.5899  0.3130  0.6619
   86MOL   O18220752   4.574   0.645   5.268 -0.4201 -0.7508 -0.1137
   86MOL   C18320753   4.540   0.532   5.186  0.8295  0.4381 -0.2211
   86MOL   C18420754   4.386   0.499   5.203 -0.9986  0.1505  0.1377
   86MOL   C18520755   4.596   0.535   5.044  0.0375 -0.1726  0.2721
   86MOL   C18620756   4.749   0.522   5.024  0.4974 -0.1379 -0.7989
   86MOL   O18720757   4.800   0.440   4.950  0.4649  0.4340  0.1620
   86MOL   H18820758   4.586   0.450   5.242  2.5043  1.3685 -0.1938
   86MOL   H18920759   4.369   0.393   5.185  2.8561 -0.0403 -3.2086
   86MOL   H19020760   4.327   0.555   5.130 -0.2140  0.7584 -0.0424
   86MOL   H19120761   4.349   0.529   5.300 -0.8342 -1.5135  0.7269
   86MOL   H19220762   4.552   0.606   4.973  0.1847 -3.1573 -2.9783
   86MOL   H19320763   4.567   0.440   4.997  2.8087  0.2424 -2.4358
   86MOL   O19420764   4.815   0.622   5.090  0.3299 -0.1388  0.1188
   86MOL   C19520765   4.956   0.612   5.091 -0.4438  0.6383  0.0673
   86MOL   C19620766   5.000   0.763   5.082  0.0276  0.1582  0.8205
   86MOL   C19720767   5.010   0.542   5.217  0.1775  0.9726  0.5793
   86MOL   C19820768   5.157   0.489   5.210  0.3477 -0.3238 -0.1752
   86MOL   O19920769   5.187   0.372   5.236  0.7259 -0.1425  0.6815
   86MOL   H20020770   4.987   0.565   4.998  0.5995 -0.8512  1.1604
   86MOL   H20120771   5.106   0.786   5.084 -0.1488  0.9017  1.8804
   86MOL   H20220772   4.939   0.815   5.157 -0.8252  0.7748 -0.2763
   86MOL   H20320773   4.958   0.804   4.989 -0.7912 -0.2038  1.0240
   86MOL   H20420774   4.955   0.448   5.230  0.5067  0.6714 -0.1487
   86MOL   H20520775   4.997   0.609   5.301 -0.0408  1.8082 -0.1136
   86MOL   O20620776   5.248   0.582   5.192 -0.1982 -0.1824 -0.6169
   86MOL   C20720777   5.388   0.540   5.175  0.6183 -0.3834 -0.4066
   86MOL   C20820778   5.410   0.512   5.025  0.2963 -0.0773 -0.6337
   86MOL   C20920779   5.493   0.639   5.222 -0.6954 -0.4999 -0.2964
   86MOL   C21020780   5.497   0.639   5.385 -0.3587  0.1843  0.4635
   86MOL   O21120781   5.595   0.609   5.451 -0.7499  0.2524  0.4678
   86MOL   H21220782   5.414   0.447   5.225 -0.1515 -0.3234  0.1238
   86MOL   H21320783   5.400   0.603   4.965 -0.2865  2.2320  2.8208
   86MOL   H21420784   5.337   0.442   4.985 -1.0629  1.9254 -1.7303
   86MOL   H21520785   5.511   0.474   5.014  0.4544  0.4068 -0.8789
   86MOL   H21620786   5.489   0.739   5.178 -0.7948 -0.6774 -0.6927
   86MOL   H21720787   5.584   0.595   5.182 -1.3161 -0.6103 -1.6328
   86MOL   O21820788   5.374   0.672   5.432  0.3844  0.1043  0.0242
   86MOL   C21920789   5.343   0.670   5.574 -0.1094 -0.1237 -0.7169
   86MOL   C22020790   5.225   0.762   5.591 -0.2513  0.2000 -0.1096
   86MOL   C22120791   5.304   0.520   5.610 -0.0966  0.2409 -0.6718
   86MOL   C22220792   5.315   0.481   5.758  0.5561  0.4985 -0.2442
   86MOL   O22320793   5.387   0.544   5.833 -0.2350  0.2622  0.1107
   86MOL   H22420794   5.421   0.705   5.641  0.0248 -0.3425 -0.7583
   86MOL   H22520795   5.135   0.715   5.552  0.4276  0.0573 -1.5682
   86MOL   H22620796   5.257   0.855   5.544 -0.4992  0.3611  0.0453
   86MOL   H22720797   5.209   0.779   5.697 -0.2580 -0.0284 -0.0743
   86MOL   H22820798   5.367   0.448   5.557 -0.5412 -0.4142 -0.3188
   86MOL   H22920799   5.203   0.496   5.576  0.2666 -1.4819 -0.5727
   86MOL   O23020800   5.239   0.371   5.783  0.4266  0.3203  0.3209
   86MOL   C23120801   5.233   0.299   5.905  0.1384  0.2525  1.1033
   86MOL   C23220802   5.118   0.199   5.916  0.6611 -0.2525 -0.0652
   86MOL   C23320803   5.378   0.259   5.947 -0.0578  0.7394 -0.1796
   86MOL   C23420804   5.418   0.121   5.906  0.1836 -0.7261  0.2043
   86MOL   O23520805   5.362   0.018   5.943 -0.1460 -0.2891 -0.1388
   86MOL   H23620806   5.207   0.378   5.975 -0.4489  0.3560  0.7759
   86MOL   H23720807   5.105   0.151   6.013 -1.0629 -0.8980 -0.6057
   86MOL   H23820808   5.124   0.122   5.840  0.3889  0.4346 -0.7850
   86MOL   H23920809   5.022   0.245   5.896 -0.0997 -1.1333  1.4613
   86MOL   H24020810   5.388   0.250   6.055 -0.9734 -2.6725 -0.3359
   86MOL   H24120811   5.463   0.321   5.917  1.5931 -1.6974 -0.7733
   86MOL   H24220812   5.517   0.113   5.862  0.5844 -1.9693  1.3079
   87MOL     O120813   3.118   2.177   3.046 -0.2414  0.3306 -0.2297
   87MOL     C220814   3.116   2.320   3.044 -0.3873  0.0254  0.1266
   87MOL     C320815   3.127   2.369   2.903 -0.1488  0.5832  0.0897
   87MOL     C420816   2.995   2.363   3.115  0.4358  0.4185 -0.4397
   87MOL     C520817   2.988   2.516   3.145  0.3929 -0.4532 -0.8440
   87MOL     O620818   2.883   2.579   3.124  0.4776 -0.0033  0.2854
   87MOL     H720819   3.196   2.359   3.107  0.3360 -0.2233 -0.6215
   87MOL     H820820   3.034   2.336   2.859 -0.0993  0.4788  0.0631
   87MOL     H920821   3.209   2.318   2.852 -0.3171 -0.7034  1.0931
   87MOL    H1020822   3.132   2.478   2.902  1.2720  0.5188 -1.2476
   87MOL    H1120823   2.972   2.320   3.212  0.9470 -2.8418 -1.7303
   87MOL    H1220824   2.919   2.333   3.043 -0.8891 -1.7139  1.7957
   87MOL    H1320825   3.180   2.134   2.989  0.4215  0.0132  0.7034
   87MOL    O1420826   3.095   2.558   3.216 -0.8458 -0.0421  0.2338
   87MOL    C1520827   3.084   2.672   3.296 -0.0083 -0.3646 -0.3562
   87MOL    C1620828   3.027   2.621   3.428  0.2339 -0.8393  0.7430
   87MOL    C1720829   3.229   2.739   3.299 -0.9602 -0.1782  0.3530
   87MOL    C1820830   3.248   2.872   3.372  0.0932  0.7439 -0.1356
   87MOL    O1920831   3.241   2.868   3.494 -0.6099 -0.4235  0.1850
   87MOL    H2020832   3.011   2.745   3.261 -0.9762 -0.2427  1.8560
   87MOL    H2120833   2.984   2.707   3.479 -1.4050  0.2989 -2.4055
   87MOL    H2220834   3.113   2.589   3.486  1.0953  0.8811  0.4680
   87MOL    H2320835   2.949   2.546   3.419  1.6250 -2.6555  3.1946
   87MOL    H2420836   3.266   2.761   3.199  2.5436  0.5519  1.7627
   87MOL    H2520837   3.300   2.667   3.340 -1.4334 -0.6977  0.2779
   87MOL    O2620838   3.272   2.979   3.301 -0.3583 -0.0098 -0.5491
   87MOL    C2720839   3.298   3.104   3.357 -0.5819  0.7478 -0.5300
   87MOL    C2820840   3.442   3.112   3.414  0.0309  0.0437 -0.3669
   87MOL    C2920841   3.296   3.217   3.250  0.1654 -0.3412  0.9112
   87MOL    C3020842   3.161   3.234   3.184  0.3607 -0.3459  0.4258
   87MOL    O3120843   3.063   3.168   3.221  0.4959  0.4281 -0.2384
   87MOL    H3220844   3.225   3.110   3.438 -1.1043 -2.2837 -0.6972
   87MOL    H3320845   3.465   3.027   3.478  0.4354  1.2870  1.2018
   87MOL    H3420846   3.461   3.196   3.481  0.9582  1.2417 -2.1103
   87MOL    H3520847   3.517   3.108   3.335  0.4786 -1.5518  0.1306
   87MOL    H3620848   3.366   3.213   3.166 -2.7002  1.0223 -1.5976
   87MOL    H3720849   3.310   3.311   3.304 -0.7173  0.5758 -0.4396
   87MOL    O3820850   3.171   3.331   3.090  0.0810  0.3275 -0.2342
   87MOL    C3920851   3.069   3.356   2.997 -0.0343 -0.4065  0.5431
   87MOL    C4020852   2.981   3.483   3.011 -0.0134 -0.1113 -0.1356
   87MOL    C4120853   3.120   3.340   2.853  0.3636  0.6973  0.2145
   87MOL    C4220854   3.209   3.461   2.808  0.2353  0.1506  0.3927
   87MOL    O4320855   3.313   3.498   2.864  0.5885  0.1165  0.4758
   87MOL    H4420856   3.002   3.272   3.020  2.6548 -2.1445  2.2886
   87MOL    H4520857   2.925   3.469   3.103  0.3208  2.0148  0.4181
   87MOL    H4620858   2.908   3.511   2.935  1.1807  0.3961 -1.1146
   87MOL    H4720859   3.032   3.579   3.018  2.1772 -1.2895  0.6488
   87MOL    H4820860   3.034   3.323   2.790  1.1662 -3.8015  0.1785
   87MOL    H4920861   3.173   3.245   2.845 -2.5000 -0.9285  0.0252
   87MOL    O5020862   3.161   3.512   2.689  0.8954 -0.0408  0.0131
   87MOL    C5120863   3.226   3.633   2.641  0.3473 -0.1721  0.6021
   87MOL    C5220864   3.236   3.636   2.486  0.2803  0.2679  0.1687
   87MOL    C5320865   3.163   3.758   2.717 -0.1966 -0.1331  0.1691
   87MOL    C5420866   3.016   3.773   2.692  0.3308 -0.4637 -0.6763
   87MOL    O5520867   2.942   3.767   2.789  0.3523 -0.2979 -0.4730
   87MOL    H5620868   3.330   3.621   2.669 -0.1962 -2.2755  1.8652
   87MOL    H5720869   3.286   3.731   2.465  0.0993  0.7618  1.9055
   87MOL    H5820870   3.136   3.645   2.444 -0.1793 -1.4031  0.8512
   87MOL    H5920871   3.293   3.552   2.446 -1.8594 -1.6017  0.9594
   87MOL    H6020872   3.203   3.852   2.677 -0.7612  0.6503  1.4036
   87MOL    H6120873   3.178   3.761   2.824 -1.0394  0.4385  0.2786
   87MOL    O6220874   2.978   3.821   2.567 -0.0249 -0.1681 -0.2966
   87MOL    C6320875   2.842   3.824   2.534 -0.5420  0.2795  0.1963
   87MOL    C6420876   2.818   3.971   2.484  0.1307 -0.0230 -0.4613
   87MOL    C6520877   2.819   3.718   2.425 -0.4741 -0.9007 -0.1156
   87MOL    C6620878   2.668   3.706   2.401 -0.0320 -0.2385 -0.4546
   87MOL    O6720879   2.601   3.636   2.475 -0.3206  0.1607  0.0737
   87MOL    H6820880   2.780   3.815   2.624 -2.9858 -1.6205 -1.5924
   87MOL    H6920881   2.872   4.010   2.397  0.1106  0.9604 -0.0435
   87MOL    H7020882   2.838   4.035   2.570 -0.4201 -0.8396  0.2789
   87MOL    H7120883   2.713   3.985   2.457 -0.7552 -1.3730  2.1544
   87MOL    H7220884   2.847   3.620   2.464 -1.0210 -0.4531  1.4639
   87MOL    H7320885   2.875   3.730   2.333 -1.5375 -2.1116 -0.9423
   87MOL    O7420886   2.626   3.762   2.288 -0.1830 -0.3322  0.0365
   87MOL    C7520887   2.484   3.749   2.256 -0.6295  0.3607 -0.6158
   87MOL    C7620888   2.435   3.882   2.213  0.0777 -0.2038  0.0896
   87MOL    C7720889   2.450   3.627   2.163 -0.4465  0.6084  0.4377
   87MOL    C7820890   2.519   3.605   2.027 -0.0674 -0.6880 -0.8767
   87MOL    O7920891   2.541   3.494   1.984 -0.3184 -0.7154 -0.2657
   87MOL    H8020892   2.435   3.731   2.352 -1.1602  1.1514 -0.7364
   87MOL    H8120893   2.482   3.918   2.122  0.8548 -2.3598 -0.3841
   87MOL    H8220894   2.448   3.955   2.293  3.4149 -1.0783  0.3997
   87MOL    H8320895   2.333   3.868   2.178 -0.1613  0.5763  0.4444
   87MOL    H8420896   2.343   3.639   2.145 -1.0431 -5.3438 -1.0754
   87MOL    H8520897   2.464   3.536   2.222  1.1742  0.1421 -0.6266
   87MOL    O8620898   2.552   3.713   1.956 -0.1254 -0.6756 -0.0157
   87MOL    C8720899   2.638   3.704   1.843 -0.6227 -0.2386 -0.5006
   87MOL    C8820900   2.621   3.829   1.764 -0.5214 -0.2458 -0.6959
   87MOL    C8920901   2.790   3.671   1.883 -0.7805 -0.2076 -0.3368
   87MOL    C9020902   2.853   3.777   1.969  0.2457 -0.3745  0.0730
   87MOL    O9120903   2.782   3.858   2.031 -0.1788  0.1108 -0.7579
   87MOL    H9220904   2.610   3.616   1.784  0.8274 -1.5519  0.7187
   87MOL    H9320905   2.620   3.920   1.823 -1.0895 -0.8469  0.2357
   87MOL    H9420906   2.519   3.831   1.727 -1.7221 -0.7346  2.4486
   87MOL    H9520907   2.686   3.832   1.676 -0.5081 -1.7776 -0.7639
   87MOL    H9620908   2.852   3.658   1.795  0.0166  0.7853  0.0594
   87MOL    H9720909   2.794   3.580   1.943  0.1264  0.5154  0.7245
   87MOL    O9820910   2.980   3.775   1.975 -0.3914 -0.4686  0.5832
   87MOL    C9920911   3.052   3.841   2.077 -0.1431  0.0009 -0.0670
   87MOL   C10020912   3.146   3.746   2.148  0.2153 -0.0445  0.3184
   87MOL   C10120913   3.135   3.943   1.995  0.4032 -1.1351 -0.4661
   87MOL   C10220914   3.198   4.056   2.078 -0.3832 -0.6828 -0.1417
   87MOL   O10320915   3.294   4.112   2.039 -0.0777 -0.1907 -0.2065
   87MOL   H10420916   2.978   3.887   2.142  2.0616  1.1658  1.7177
   87MOL   H10520917   3.172   3.783   2.247  1.0238 -0.7467  0.3700
   87MOL   H10620918   3.240   3.718   2.100  1.3807  0.3172  2.3568
   87MOL   H10720919   3.085   3.661   2.178 -2.6022  1.8162  0.1146
   87MOL   H10820920   3.069   3.995   1.925  1.4003  0.5077 -0.2021
   87MOL   H10920921   3.216   3.894   1.942  1.9176  1.9515 -1.1185
   87MOL   O11020922   3.159   4.070   2.214 -0.2946 -0.3271 -0.0833
   87MOL   C11120923   3.226   4.145   2.305 -1.1906  0.5147 -0.1244
   87MOL   C11220924   3.129   4.203   2.405 -0.1633 -0.1457  0.7346
   87MOL   C11320925   3.318   4.059   2.393  0.4212 -0.2849  1.4751
   87MOL   C11420926   3.442   3.998   2.322  0.0617 -0.2505  0.3142
   87MOL   O11520927   3.459   3.878   2.303  0.7134  0.2098 -0.5695
   87MOL   H11620928   3.291   4.217   2.254  1.7333 -1.2159  1.0543
   87MOL   H11720929   3.191   4.244   2.484 -1.6254  0.4445  1.5816
   87MOL   H11820930   3.068   4.123   2.446  0.0928 -0.1194  1.1615
   87MOL   H11920931   3.065   4.284   2.369  1.4413  1.4592  1.4305
   87MOL   H12020932   3.259   3.988   2.451 -0.3173 -1.9405 -1.2295
   87MOL   H12120933   3.358   4.116   2.477  3.1400  0.2915 -0.1630
   87MOL   O12220934   3.527   4.088   2.277  0.1055  0.0995 -0.0817
   87MOL   C12320935   3.652   4.043   2.221  0.2597 -0.1780 -0.1430
   87MOL   C12420936   3.634   4.036   2.070 -0.6250  0.2062 -1.3415
   87MOL   C12520937   3.757   4.148   2.260  0.0731  0.4991 -0.6855
   87MOL   C12620938   3.906   4.123   2.236 -0.2865  0.4526 -0.5411
   87MOL   O12720939   3.976   4.181   2.151 -0.4998  0.0656  0.0520
   87MOL   H12820940   3.686   3.950   2.266 -0.5080 -0.1914  0.4095
   87MOL   H12920941   3.723   4.001   2.017  0.2771 -0.1595  0.3930
   87MOL   H13020942   3.602   4.128   2.022 -0.9342  1.1978  0.7149
   87MOL   H13120943   3.555   3.961   2.067 -0.4158 -0.2096  2.0108
   87MOL   H13220944   3.746   4.165   2.367 -1.2119 -0.2549 -0.6908
   87MOL   H13320945   3.724   4.244   2.219  0.5005  1.0457  0.2363
   87MOL   O13420946   3.950   4.024   2.316  0.8359 -0.3660 -0.4886
   87MOL   C13520947   4.080   3.978   2.314 -0.6748  0.0447 -0.2211
   87MOL   C13620948   4.126   3.905   2.448 -0.5973 -0.5651  0.7641
   87MOL   C13720949   4.106   3.903   2.183 -0.2066 -0.6916 -0.0413
   87MOL   C13820950   4.020   3.776   2.175 -0.2194  0.1497 -0.1453
   87MOL   O13920951   3.907   3.768   2.129  0.4454  0.5223  0.0975
   87MOL   H14020952   4.142   4.068   2.310 -0.9076  0.1892 -0.6186
   87MOL   H14120953   4.131   3.972   2.533 -0.4332 -2.3257  2.1830
   87MOL   H14220954   4.223   3.855   2.441 -0.2322  0.4616 -2.2805
   87MOL   H14320955   4.053   3.826   2.469 -1.8439  0.6800  1.1806
   87MOL   H14420956   4.209   3.869   2.174 -0.3077 -1.5169  1.7454
   87MOL   H14520957   4.092   3.959   2.090 -1.1566  0.0903  0.5619
   87MOL   O14620958   4.083   3.675   2.247  0.4341 -0.0256  0.1599
   87MOL   C14720959   4.022   3.548   2.265 -0.2661 -0.4071  0.0249
   87MOL   C14820960   4.012   3.460   2.134 -0.0797 -0.4470 -0.2949
   87MOL   C14920961   4.108   3.466   2.365  0.0339 -0.2698  0.1799
   87MOL   C15020962   4.072   3.498   2.510  0.8721  0.0951 -0.1319
   87MOL   O15120963   3.958   3.472   2.547  0.1715  0.2836 -0.1625
   87MOL   H15220964   3.922   3.557   2.305 -1.4180 -2.1183 -2.3533
   87MOL   H15320965   4.112   3.463   2.091  0.1561  0.8183  0.3185
   87MOL   H15420966   3.939   3.493   2.060  0.9967 -0.3072 -1.3186
   87MOL   H15520967   3.986   3.360   2.169 -2.6205 -0.0730 -1.0607
   87MOL   H15620968   4.210   3.473   2.328 -1.3786  2.5183 -3.4498
   87MOL   H15720969   4.088   3.359   2.364  2.0596 -0.7040  1.5060
   87MOL   O15820970   4.167   3.546   2.592  0.0379  0.4181 -0.1823
   87MOL   C15920971   4.135   3.541   2.733 -0.2610 -0.0616 -0.4320
   87MOL   C16020972   4.269   3.512   2.804 -0.1316 -0.0576  0.0820
   87MOL   C16120973   4.068   3.671   2.782  0.1255 -0.4997  0.6501
   87MOL   C16220974   4.004   3.679   2.917 -0.5373  0.7357 -0.8317
   87MOL   O16320975   3.935   3.775   2.941 -0.5050  0.4009  0.4896
   87MOL   H16420976   4.067   3.460   2.761  1.0620 -0.1384  2.8500
   87MOL   H16520977   4.321   3.427   2.759  1.6010  1.9881 -1.8953
   87MOL   H16620978   4.257   3.485   2.909 -0.4938  1.9633  0.5757
   87MOL   H16720979   4.341   3.594   2.809 -1.6675  1.2429  1.3611
   87MOL   H16820980   3.981   3.680   2.718  0.0257  0.1418  0.8676
   87MOL   H16920981   4.130   3.757   2.756  1.2585 -1.0013  1.6465
   87MOL   O17020982   4.030   3.579   2.999  0.5417  0.5949  0.1280
   87MOL   C17120983   3.985   3.584   3.133  0.8811  0.5957 -0.2125
   87MOL   C17220984   3.944   3.443   3.177 -0.1586 -0.6427  0.4032
   87MOL   C17320985   4.104   3.637   3.212 -0.6294 -0.5816  1.5924
   87MOL   C17420986   4.090   3.640   3.363 -0.3556  0.5716  0.4919
   87MOL   O17520987   3.982   3.668   3.418 -0.1459  0.5154 -0.2053
   87MOL   H17620988   3.902   3.653   3.146  1.8407  2.2384 -2.5154
   87MOL   H17720989   3.866   3.406   3.109  1.1881 -1.6873 -0.5956
   87MOL   H17820990   3.902   3.436   3.277  0.7220 -2.7597  0.6629
   87MOL   H17920991   4.036   3.386   3.187  2.0442  2.2659 -2.2998
   87MOL   H18020992   4.134   3.729   3.164 -2.1553 -1.4214 -1.0705
   87MOL   H18120993   4.188   3.570   3.194  0.1931  0.2252  2.3434
   87MOL   O18220994   4.210   3.623   3.433  0.1338 -0.4049  0.0668
   87MOL   C18320995   4.205   3.624   3.579 -0.1412 -0.3719 -0.1487
   87MOL   C18420996   4.249   3.485   3.626  0.2869  0.0539  0.2210
   87MOL   C18520997   4.297   3.733   3.628 -0.1095  0.2501 -0.5487
   87MOL   C18620998   4.258   3.878   3.595  0.2862  0.9363  0.0738
   87MOL   O18720999   4.268   3.966   3.678 -0.6605  0.7656 -0.1030
   87MOL   H18821000   4.112   3.650   3.628 -0.6650 -0.0708 -1.2695
   87MOL   H18921001   4.245   3.471   3.734 -2.4369 -0.5919  0.0749
   87MOL   H19021002   4.352   3.463   3.598  0.0215 -1.0592  0.1240
   87MOL   H19121003   4.176   3.420   3.579  0.4686  0.3980 -0.5335
   87MOL   H19221004   4.398   3.716   3.592 -0.7285 -2.1259 -1.2573
   87MOL   H19321005   4.314   3.734   3.736  1.2848 -2.7298 -0.6988
   87MOL   O19421006   4.222   3.897   3.470 -0.3401  0.0895 -0.5554
   87MOL   C19521007   4.189   4.022   3.420 -0.0528  0.1323  0.3804
   87MOL   C19621008   4.311   4.089   3.366 -0.1461  0.4952  0.0426
   87MOL   C19721009   4.086   4.011   3.307  0.3394 -0.1738  0.1663
   87MOL   C19821010   4.057   4.141   3.226 -0.6740 -0.5558  0.7421
   87MOL   O19921011   4.001   4.242   3.274 -0.1730 -0.2403  0.3005
   87MOL   H20021012   4.150   4.087   3.498 -0.2343 -0.5111  0.8284
   87MOL   H20121013   4.366   4.036   3.288  0.0374  0.3768  0.2517
   87MOL   H20221014   4.383   4.110   3.445  0.3969 -2.1003  0.2581
   87MOL   H20321015   4.277   4.188   3.334 -3.4750 -0.3108  0.9397
   87MOL   H20421016   3.994   3.968   3.347 -0.3871  0.3501 -0.9159
   87MOL   H20521017   4.127   3.937   3.237 -1.2497 -0.1418 -0.8350
   87MOL   O20621018   4.103   4.138   3.093  0.2467  0.7133 -0.0182
   87MOL   C20721019   4.060   4.248   3.008 -0.0972  0.0364  0.0100
   87MOL   C20821020   4.184   4.337   3.002  0.3185 -0.0465  0.1058
   87MOL   C20921021   4.027   4.199   2.871 -0.4225 -0.1699 -0.8682
   87MOL   C21021022   3.889   4.139   2.872  0.4260 -0.3154 -0.2330
   87MOL   O21121023   3.843   4.097   2.979 -0.1746  0.7945 -0.4963
   87MOL   H21221024   3.978   4.303   3.053 -0.5002 -1.7931  1.5515
   87MOL   H21321025   4.177   4.415   2.926 -0.0260 -0.6599 -0.4919
   87MOL   H21421026   4.272   4.277   2.980 -0.2298 -1.3034  1.2538
   87MOL   H21521027   4.201   4.385   3.099 -1.5909 -0.3774  0.6325
   87MOL   H21621028   4.089   4.111   2.849  0.0743 -0.0773  0.1380
   87MOL   H21721029   4.034   4.271   2.790 -0.1492  0.8875  0.0855
   87MOL   O21821030   3.836   4.114   2.742  0.3258 -0.0179  0.0103
   87MOL   C21921031   3.705   4.075   2.724 -0.3796 -0.3895 -0.4848
   87MOL   C22021032   3.606   4.193   2.684 -0.3717  0.5423 -0.0384
   87MOL   C22121033   3.709   3.966   2.613  1.0035  0.6216 -0.0412
   87MOL   C22221034   3.613   3.845   2.641  0.2474 -0.2121 -0.6656
   87MOL   O22321035   3.489   3.855   2.622 -0.0873 -0.1546 -0.1168
   87MOL   H22421036   3.681   4.025   2.817 -0.6578 -2.3895 -1.6102
   87MOL   H22521037   3.502   4.165   2.697 -0.6716  2.3137  1.6831
   87MOL   H22621038   3.623   4.231   2.584  1.5118 -1.3507 -0.4873
   87MOL   H22721039   3.614   4.272   2.759  1.3517 -0.5728  0.9940
   87MOL   H22821040   3.807   3.919   2.604  0.0616 -1.3427 -0.3925
   87MOL   H22921041   3.682   4.018   2.521 -2.9256  0.2774  0.8106
   87MOL   O23021042   3.678   3.743   2.701 -0.6374  0.2976  0.0850
   87MOL   C23121043   3.621   3.622   2.735 -0.2115  0.3424 -0.3225
   87MOL   C23221044   3.620   3.529   2.619 -0.0524  0.5019 -0.8299
   87MOL   C23321045   3.689   3.564   2.856 -0.5823 -0.8632  0.6074
   87MOL   C23421046   3.624   3.443   2.923 -0.5698 -0.5712  0.2098
   87MOL   O23521047   3.676   3.331   2.904  0.3660 -0.8797  0.0182
   87MOL   H23621048   3.516   3.636   2.762  0.3936  0.1531  2.2711
   87MOL   H23721049   3.571   3.434   2.643  1.1431  0.4676  1.7363
   87MOL   H23821050   3.722   3.507   2.586 -0.1058 -0.8679 -0.1322
   87MOL   H23921051   3.573   3.578   2.534  0.4076 -0.1583 -1.4764
   87MOL   H24021052   3.675   3.643   2.930 -0.4082 -1.1326  0.9243
   87MOL   H24121053   3.793   3.535   2.841 -0.7049 -1.9106  1.7649
   87MOL   H24221054   3.527   3.470   2.965  0.3890  1.9351  0.8480
   88MOL     O121055   3.926   2.093   4.635  0.5433  0.3105 -0.4655
   88MOL     C221056   3.904   1.992   4.730  0.4971 -0.9541  0.5246
   88MOL     C321057   3.760   1.948   4.715 -0.3285 -0.5546 -0.4764
   88MOL     C421058   4.014   1.889   4.714  0.9670  0.0641  0.0974
   88MOL     C521059   4.020   1.786   4.834  0.3257 -0.9858  0.4767
   88MOL     O621060   4.125   1.723   4.838  0.2101 -0.3507  0.2318
   88MOL     H721061   3.910   2.040   4.828 -0.0146 -0.3046  0.2456
   88MOL     H821062   3.699   2.037   4.730  1.0420  0.3582 -0.2375
   88MOL     H921063   3.737   1.864   4.781  0.4178 -1.5240 -1.4225
   88MOL    H1021064   3.740   1.918   4.612 -0.4162 -1.1259 -0.2944
   88MOL    H1121065   4.105   1.950   4.712  0.0162  1.6502  2.6280
   88MOL    H1221066   3.996   1.833   4.622 -1.4259  1.0674 -0.0787
   88MOL    H1321067   3.870   2.169   4.640 -0.0495 -0.2386  1.5956
   88MOL    O1421068   3.914   1.791   4.917 -0.5249 -0.5187 -0.4399
   88MOL    C1521069   3.919   1.725   5.039 -0.4343  0.2277 -0.4798
   88MOL    C1621070   4.000   1.804   5.142 -0.7887 -0.4438  0.1426
   88MOL    C1721071   3.775   1.703   5.099  0.3928  0.5036 -0.5562
   88MOL    C1821072   3.700   1.592   5.025 -0.4084 -0.0781  0.8238
   88MOL    O1921073   3.714   1.586   4.903  0.0586  0.3200 -0.1945
   88MOL    H2021074   3.960   1.625   5.020 -2.1674 -0.3241 -1.4435
   88MOL    H2121075   3.971   1.906   5.164 -2.5158 -0.7475 -0.6367
   88MOL    H2221076   4.104   1.807   5.109 -1.0608 -0.1046 -0.6819
   88MOL    H2321077   3.991   1.747   5.235  0.2789 -0.3873  0.2947
   88MOL    H2421078   3.714   1.793   5.088  0.4779  0.3690 -2.3686
   88MOL    H2521079   3.768   1.667   5.202  0.6804  1.0370 -0.3525
   88MOL    O2621080   3.618   1.516   5.105  0.2260 -0.4037 -0.5294
   88MOL    C2721081   3.524   1.419   5.055 -0.4497 -0.4560  0.5942
   88MOL    C2821082   3.586   1.287   5.017  0.0806  0.1257  0.9743
   88MOL    C2921083   3.422   1.401   5.169  0.2213  0.4240  0.0226
   88MOL    C3021084   3.286   1.338   5.133  0.8489  0.4145 -1.1884
   88MOL    O3121085   3.253   1.224   5.181  0.0698  0.3182  0.7263
   88MOL    H3221086   3.474   1.459   4.966 -1.5778  2.0467  2.2783
   88MOL    H3321087   3.525   1.228   4.949  1.7287  1.6462 -1.9413
   88MOL    H3421088   3.624   1.223   5.096  0.5631 -2.3981 -1.2165
   88MOL    H3521089   3.678   1.301   4.959  0.6254 -0.2617  1.7381
   88MOL    H3621090   3.401   1.487   5.234 -1.9631  0.2211 -0.3477
   88MOL    H3721091   3.461   1.328   5.239 -1.6993  1.6397  2.4684
   88MOL    O3821092   3.220   1.413   5.041  0.0577  0.2347 -0.3265
   88MOL    C3921093   3.098   1.358   4.984  0.0944  1.1388 -0.5263
   88MOL    C4021094   3.024   1.467   4.914  0.3135 -0.5838  0.1562
   88MOL    C4121095   3.124   1.233   4.891  0.3648 -1.2301  0.5269
   88MOL    C4221096   3.005   1.145   4.877  0.4578  0.1223 -0.4475
   88MOL    O4321097   3.011   1.037   4.932 -0.3680 -0.2659  0.7540
   88MOL    H4421098   3.042   1.321   5.070 -0.0430  0.2847 -0.9810
   88MOL    H4521099   2.977   1.534   4.986 -0.7765 -0.2753 -0.8178
   88MOL    H4621100   2.940   1.445   4.847  1.1667  1.8034 -1.7790
   88MOL    H4721101   3.091   1.533   4.858  0.3363 -1.1850 -0.5291
   88MOL    H4821102   3.209   1.176   4.927 -0.6378 -0.6866  3.9316
   88MOL    H4921103   3.151   1.269   4.791 -1.0092  0.9678  0.9006
   88MOL    O5021104   2.903   1.182   4.789 -0.0515 -0.0220 -0.0578
   88MOL    C5121105   2.806   1.082   4.758 -0.4039  0.3676  0.5085
   88MOL    C5221106   2.707   1.085   4.882 -1.3349  0.1066  0.3039
   88MOL    C5321107   2.740   1.102   4.616  0.2217  0.4433 -0.2775
   88MOL    C5421108   2.702   1.245   4.581  0.3725  0.4584  0.8194
   88MOL    O5521109   2.752   1.301   4.489 -0.0538 -0.2805 -0.0496
   88MOL    H5621110   2.847   0.981   4.765 -2.4066 -0.3772  2.1417
   88MOL    H5721111   2.641   0.999   4.880  0.1135 -0.9890 -0.7207
   88MOL    H5821112   2.648   1.177   4.887  0.5597  1.3563  0.0985
   88MOL    H5921113   2.767   1.083   4.973 -1.0524  0.0085  0.1161
   88MOL    H6021114   2.650   1.043   4.598  0.2614 -0.3672  2.0173
   88MOL    H6121115   2.810   1.070   4.539  0.0183 -2.1125  0.5753
   88MOL    O6221116   2.607   1.298   4.654  0.6181 -0.2729 -0.6378
   88MOL    C6321117   2.595   1.435   4.678 -0.0917 -0.1978  0.0310
   88MOL    C6421118   2.495   1.500   4.592 -0.2045  0.3822  0.1553
   88MOL    C6521119   2.563   1.437   4.826  0.0496 -0.3551 -0.3859
   88MOL    C6621120   2.566   1.574   4.894 -0.0974 -0.5816 -0.3628
   88MOL    O6721121   2.660   1.620   4.962 -0.0414  0.6411  0.3452
   88MOL    H6821122   2.692   1.479   4.657  0.0167 -0.9493 -1.0848
   88MOL    H6921123   2.396   1.454   4.588 -0.1961  0.0100  2.9014
   88MOL    H7021124   2.543   1.490   4.495 -1.2174  1.6164 -0.4996
   88MOL    H7121125   2.484   1.605   4.620  3.0133  1.0124 -0.7353
   88MOL    H7221126   2.647   1.378   4.863  0.0905 -1.9605 -2.9231
   88MOL    H7321127   2.470   1.385   4.853  0.2534 -1.6037 -2.0083
   88MOL    O7421128   2.452   1.639   4.885 -0.0463  0.2322  0.1195
   88MOL    C7521129   2.416   1.744   4.978  0.1010  0.2290 -0.6453
   88MOL    C7621130   2.350   1.852   4.891 -0.2061 -0.5917 -0.1540
   88MOL    C7721131   2.322   1.686   5.092 -0.5888 -1.0936  0.6926
   88MOL    C7821132   2.182   1.628   5.051 -0.5140  0.6513 -0.2267
   88MOL    O7921133   2.083   1.680   5.091  0.1271  0.1800 -0.1712
   88MOL    H8021134   2.505   1.771   5.035  1.1361 -1.6913 -1.2820
   88MOL    H8121135   2.270   1.815   4.827 -0.0189 -1.6050  0.1949
   88MOL    H8221136   2.422   1.900   4.824  0.7154 -0.2220  1.0724
   88MOL    H8321137   2.315   1.930   4.958  0.6870  0.8467 -1.3132
   88MOL    H8421138   2.303   1.751   5.177 -0.8461  0.3376 -0.4522
   88MOL    H8521139   2.381   1.603   5.132  0.5559  0.0790  1.4971
   88MOL    O8621140   2.189   1.530   4.968  0.2436 -0.1735 -0.3108
   88MOL    C8721141   2.069   1.459   4.936  0.9295  0.3559 -0.5938
   88MOL    C8821142   2.106   1.393   4.805  0.2560  0.1937 -0.2322
   88MOL    C8921143   2.021   1.356   5.049 -0.6045  0.4236 -0.6232
   88MOL    C9021144   2.122   1.244   5.078  0.6419 -0.1682 -0.8380
   88MOL    O9121145   2.112   1.128   5.036  0.8096  0.0945  0.5462
   88MOL    H9221146   1.981   1.523   4.927  0.0293 -0.0420  3.9126
   88MOL    H9321147   2.172   1.309   4.824 -0.8672 -0.8692 -0.9394
   88MOL    H9421148   2.141   1.467   4.733 -0.3892  0.4189 -0.3208
   88MOL    H9521149   2.019   1.349   4.756  1.1663 -0.7612 -1.0082
   88MOL    H9621150   1.920   1.318   5.033 -1.2450  2.0378 -0.5192
   88MOL    H9721151   2.006   1.416   5.138  3.1659 -0.6173  0.7882
   88MOL    O9821152   2.222   1.295   5.160  0.2733 -0.2246 -0.1571
   88MOL    C9921153   2.292   1.207   5.247  0.8347 -0.6088 -0.2737
   88MOL   C10021154   2.440   1.214   5.217  0.1459 -0.0996  0.2899
   88MOL   C10121155   2.255   1.277   5.380 -0.6926  0.8049  0.1713
   88MOL   C10221156   2.283   1.188   5.506  1.2939 -0.2527 -0.2717
   88MOL   O10321157   2.396   1.153   5.533  0.3833 -0.1007  0.3370
   88MOL   H10421158   2.270   1.101   5.235 -0.0539 -0.4043 -0.4832
   88MOL   H10521159   2.442   1.174   5.116  0.4380 -2.4954  1.2157
   88MOL   H10621160   2.502   1.146   5.276 -0.1056  0.3176  1.0464
   88MOL   H10721161   2.489   1.311   5.229 -2.6927  1.7189 -2.1418
   88MOL   H10821162   2.149   1.301   5.380 -1.1052 -0.9374 -0.5307
   88MOL   H10921163   2.307   1.373   5.382  0.8062 -0.0098  2.4525
   88MOL   O11021164   2.162   1.148   5.565  0.1708  0.7572  0.2537
   88MOL   C11121165   2.157   1.078   5.686 -0.4673  0.6236 -0.0597
   88MOL   C11221166   2.031   1.114   5.760  0.6020 -0.2141  0.0827
   88MOL   C11321167   2.183   0.929   5.652 -0.1369  0.4850  0.2890
   88MOL   C11421168   2.088   0.880   5.543  0.3378 -0.4478 -0.1838
   88MOL   O11521169   2.133   0.824   5.443 -0.0971  0.6770  0.3650
   88MOL   H11621170   2.247   1.107   5.740 -0.7118  0.1837  0.5802
   88MOL   H11721171   1.933   1.109   5.714  0.8004 -0.1929 -0.3420
   88MOL   H11821172   2.041   1.217   5.797  2.0417 -0.3401  0.0658
   88MOL   H11921173   2.030   1.049   5.848  1.1040  0.8132  0.8617
   88MOL   H12021174   2.174   0.869   5.743 -2.4443  0.8579  0.3474
   88MOL   H12121175   2.282   0.917   5.607  0.1651  1.6063  0.6436
   88MOL   O12221176   1.960   0.891   5.570 -0.1154  0.8853  0.0049
   88MOL   C12321177   1.865   0.876   5.464  0.3015 -0.0489 -0.4106
   88MOL   C12421178   1.802   0.730   5.466  0.3808  0.0207 -0.4399
   88MOL   C12521179   1.756   0.983   5.460  0.8282 -0.0599  0.4678
   88MOL   C12621180   1.794   1.119   5.392  0.3687  0.3239 -0.1134
   88MOL   O12721181   1.912   1.155   5.384  0.8696 -0.7550  0.5603
   88MOL   H12821182   1.918   0.882   5.369 -2.8658  1.4135 -2.1694
   88MOL   H12921183   1.769   0.703   5.365 -1.2765 -0.1273  0.1219
   88MOL   H13021184   1.719   0.703   5.531  1.0657 -1.0281  0.0192
   88MOL   H13121185   1.872   0.656   5.505  1.0117  0.6190 -0.4261
   88MOL   H13221186   1.713   0.987   5.560  0.1022  0.8740  0.1177
   88MOL   H13321187   1.674   0.932   5.410  1.0517  0.0802 -0.0434
   88MOL   O13421188   1.686   1.199   5.353 -0.4667 -0.3773  0.1676
   88MOL   C13521189   1.710   1.318   5.274  0.0800 -0.5455  0.0154
   88MOL   C13621190   1.618   1.314   5.150  0.1947 -0.1643  0.0489
   88MOL   C13721191   1.686   1.444   5.362 -0.2656  0.0611 -0.2110
   88MOL   C13821192   1.741   1.576   5.309 -0.0136 -0.1468 -0.1515
   88MOL   O13921193   1.834   1.629   5.369 -0.1744 -0.1523  0.2322
   88MOL   H14021194   1.807   1.327   5.226 -0.6718 -2.1664 -1.8526
   88MOL   H14121195   1.513   1.291   5.169 -1.0306  2.1064 -3.4791
   88MOL   H14221196   1.638   1.231   5.083 -0.1588  0.3733 -0.7342
   88MOL   H14321197   1.625   1.412   5.102  0.2782  0.1099  0.6121
   88MOL   H14421198   1.752   1.430   5.448 -1.5680 -0.1553  0.7585
   88MOL   H14521199   1.583   1.456   5.395 -0.4249 -0.8142 -0.3965
   88MOL   O14621200   1.677   1.626   5.207  0.0783  0.2523 -0.1149
   88MOL   C14721201   1.712   1.747   5.159 -0.0186  0.9018  1.2109
   88MOL   C14821202   1.762   1.740   5.017  0.5428  0.4353 -0.4872
   88MOL   C14921203   1.595   1.845   5.188  0.4319 -0.0916  0.1637
   88MOL   C15021204   1.452   1.799   5.165  0.8037 -0.1878 -1.3011
   88MOL   O15121205   1.407   1.801   5.050  0.5563 -0.2592 -0.0452
   88MOL   H15221206   1.798   1.790   5.210  0.3056  3.4058 -1.3312
   88MOL   H15321207   1.814   1.646   4.998 -0.3513 -0.3333  0.8046
   88MOL   H15421208   1.827   1.826   5.004  0.9498  0.4072  1.2320
   88MOL   H15521209   1.676   1.740   4.949  0.5372 -1.2462 -0.4973
   88MOL   H15621210   1.590   1.934   5.124  2.6165 -0.0279  0.0370
   88MOL   H15721211   1.594   1.877   5.292  1.7870  0.7855 -0.0767
   88MOL   O15821212   1.389   1.774   5.282  0.1529  0.3478 -0.2600
   88MOL   C15921213   1.247   1.764   5.287 -0.1217  0.5166 -0.2652
   88MOL   C16021214   1.207   1.614   5.287 -0.5960 -0.2947  0.0341
   88MOL   C16121215   1.195   1.842   5.405 -0.2193 -0.5245 -0.3345
   88MOL   C16221216   1.216   1.995   5.391 -0.5223 -0.7959 -0.8189
   88MOL   O16321217   1.125   2.073   5.396 -1.0162  0.4133  0.1504
   88MOL   H16421218   1.196   1.810   5.203  0.5913  1.7401 -0.0355
   88MOL   H16521219   1.099   1.600   5.293 -0.4802 -1.1931  0.2118
   88MOL   H16621220   1.248   1.553   5.368 -0.8554  1.9570  1.8919
   88MOL   H16721221   1.230   1.581   5.186  0.6226 -0.8109  0.4677
   88MOL   H16821222   1.250   1.810   5.493  1.2105  0.1615 -0.9693
   88MOL   H16921223   1.088   1.827   5.422 -0.2892  0.1264 -0.1622
   88MOL   O17021224   1.348   2.025   5.385  0.2132 -0.6887 -0.4232
   88MOL   C17121225   1.393   2.157   5.374 -0.2794  0.1485  0.3438
   88MOL   C17221226   1.531   2.130   5.441  0.5198 -0.2904  0.0051
   88MOL   C17321227   1.409   2.200   5.223  0.3731 -0.1454 -0.2031
   88MOL   C17421228   1.280   2.265   5.178  0.1896 -0.5141  0.2051
   88MOL   O17521229   1.211   2.216   5.088 -0.1503 -0.8368 -0.2718
   88MOL   H17621230   1.343   2.238   5.426 -0.6651  0.2351 -0.1558
   88MOL   H17721231   1.524   2.119   5.549 -1.4807 -0.6859 -0.1555
   88MOL   H17821232   1.585   2.223   5.422  0.4534 -0.4563 -1.0350
   88MOL   H17921233   1.598   2.059   5.392  0.5629 -0.0342 -0.3105
   88MOL   H18021234   1.422   2.115   5.156  0.0649 -0.6105  0.3248
   88MOL   H18121235   1.490   2.271   5.208  0.3034  0.0398  0.2815
   88MOL   O18221236   1.246   2.369   5.254 -0.3769 -0.5789  0.2113
   88MOL   C18321237   1.111   2.420   5.257  0.4154  0.4246  0.3283
   88MOL   C18421238   1.076   2.443   5.397  0.8246 -0.6724 -0.2968
   88MOL   C18521239   1.089   2.551   5.173 -0.5799 -0.3116 -0.7566
   88MOL   C18621240   1.197   2.654   5.189  0.8105 -0.2184  0.0805
   88MOL   O18721241   1.171   2.764   5.238 -0.4331 -0.6251 -0.3381
   88MOL   H18821242   1.035   2.351   5.221  0.0246  0.6072  0.7926
   88MOL   H18921243   1.135   2.510   5.459 -1.7193  0.8235  0.5895
   88MOL   H19021244   1.073   2.345   5.445  2.6119 -0.4981  0.1894
   88MOL   H19121245   0.982   2.498   5.408  1.7575  1.2267 -1.5399
   88MOL   H19221246   0.991   2.592   5.198 -0.5367  0.7462 -2.2464
   88MOL   H19321247   1.088   2.538   5.064 -0.1626  1.9904 -1.0524
   88MOL   O19421248   1.309   2.626   5.125 -0.0085  0.5426  0.3455
   88MOL   C19521249   1.421   2.708   5.128 -0.1232  0.0952 -0.0292
   88MOL   C19621250   1.546   2.614   5.120 -0.6609 -0.4250 -0.5099
   88MOL   C19721251   1.414   2.795   5.000  0.7493  0.5807  0.7645
   88MOL   C19821252   1.531   2.885   4.976  0.7654  0.1037  0.2522
   88MOL   O19921253   1.567   2.962   5.059 -0.2506  0.2980 -0.1068
   88MOL   H20021254   1.426   2.768   5.219  1.7855 -1.7078  1.1134
   88MOL   H20121255   1.553   2.575   5.018 -0.2675 -0.3010 -0.5295
   88MOL   H20221256   1.552   2.538   5.197 -0.9080  0.1165  0.0472
   88MOL   H20321257   1.634   2.678   5.129  0.0339 -1.6180  1.4221
   88MOL   H20421258   1.319   2.848   5.007 -0.2390 -0.9021 -1.0456
   88MOL   H20521259   1.400   2.727   4.916  0.8457  0.2314  1.0285
   88MOL   O20621260   1.583   2.859   4.854 -0.0372  0.3055  0.6512
   88MOL   C20721261   1.670   2.952   4.791  0.7756  0.4059 -0.9478
   88MOL   C20821262   1.804   2.882   4.776  0.7043 -0.1048  0.0505
   88MOL   C20921263   1.604   2.986   4.657  0.0407  0.4647  0.1311
   88MOL   C21021264   1.476   3.068   4.670  0.2677 -0.8776  0.7393
   88MOL   O21121265   1.417   3.081   4.776 -0.3021  0.0636  0.2573
   88MOL   H21221266   1.695   3.038   4.853 -0.5030 -0.0642  0.2628
   88MOL   H21321267   1.885   2.947   4.742  0.0943  0.0654 -1.0803
   88MOL   H21421268   1.795   2.792   4.715  0.5359 -1.4416  1.9917
   88MOL   H21521269   1.834   2.842   4.873  1.8534 -3.1932 -1.4904
   88MOL   H21621270   1.561   2.910   4.592 -1.7435  2.8502 -1.5414
   88MOL   H21721271   1.683   3.036   4.601  0.7828 -0.7003  0.1152
   88MOL   O21821272   1.433   3.115   4.552 -0.3077  0.1281  0.3451
   88MOL   C21921273   1.332   3.210   4.538 -0.0781  0.8839 -0.2126
   88MOL   C22021274   1.387   3.288   4.418 -0.0504  0.4529  0.1512
   88MOL   C22121275   1.201   3.144   4.491 -0.7069 -0.3615  0.0907
   88MOL   C22221276   1.102   3.089   4.599 -0.1479  0.1480 -0.0400
   88MOL   O22321277   1.098   3.123   4.720  0.3404  0.1754  0.4545
   88MOL   H22421278   1.323   3.275   4.625 -1.2509  2.6248 -1.5802
   88MOL   H22521279   1.409   3.239   4.324  0.5264  0.3768  0.3248
   88MOL   H22621280   1.471   3.355   4.435 -1.1758  2.4887 -2.0243
   88MOL   H22721281   1.312   3.363   4.393  2.2968  2.6988 -0.3079
   88MOL   H22821282   1.213   3.068   4.414 -2.4987 -0.5002 -0.0769
   88MOL   H22921283   1.150   3.230   4.447 -1.3418 -0.3835  0.7692
   88MOL   O23021284   1.020   2.999   4.550  0.1229 -0.5774 -0.3229
   88MOL   C23121285   0.926   2.928   4.633 -0.5355  0.5174 -0.4531
   88MOL   C23221286   0.797   2.930   4.538  0.0909 -0.4234 -0.5682
   88MOL   C23321287   0.976   2.791   4.684 -0.2115  0.3692  0.2836
   88MOL   C23421288   1.052   2.789   4.815  0.5899  0.0786  0.0148
   88MOL   O23521289   0.995   2.738   4.911  0.0719  0.0021  0.1113
   88MOL   H23621290   0.914   2.990   4.722  3.2918  3.1691 -1.6907
   88MOL   H23721291   0.821   2.872   4.449  1.7603 -0.8775  0.1511
   88MOL   H23821292   0.768   3.031   4.510  0.2244 -0.2684 -0.1501
   88MOL   H23921293   0.700   2.898   4.577  0.0374 -1.7388 -1.7553
   88MOL   H24021294   1.039   2.741   4.610  1.0049  1.9320  0.2521
   88MOL   H24121295   0.887   2.728   4.689  0.2301 -0.1895  1.1274
   88MOL   H24221296   1.159   2.809   4.811  0.2497  1.9867 -0.2699
   89MOL     O121297   1.059   3.619   1.624  0.2559 -0.2200  0.2042
   89MOL     C221298   1.140   3.627   1.741  0.7016 -0.0109 -0.6511
   89MOL     C321299   1.228   3.501   1.741 -0.4090 -0.2176  0.5464
   89MOL     C421300   1.204   3.760   1.732 -0.3393 -0.0478  0.5553
   89MOL     C521301   1.286   3.803   1.854 -0.0752  0.0109  0.3864
   89MOL     O621302   1.234   3.881   1.933  0.3309  0.5700 -0.3446
   89MOL     H721303   1.086   3.616   1.835  0.1689 -0.4494 -1.0082
   89MOL     H821304   1.177   3.408   1.718 -0.0976 -0.2679  0.0384
   89MOL     H921305   1.295   3.478   1.823 -2.6094 -0.3822  2.3305
   89MOL    H1021306   1.297   3.518   1.658  0.4865  0.1980  1.3566
   89MOL    H1121307   1.128   3.836   1.715 -1.2217 -1.1108 -0.2914
   89MOL    H1221308   1.269   3.752   1.645  1.5170 -0.7329  1.9429
   89MOL    H1321309   0.969   3.619   1.654  0.0843 -1.3034 -0.2924
   89MOL    O1421310   1.413   3.748   1.855  0.3540 -0.1175 -0.0372
   89MOL    C1521311   1.508   3.789   1.952  0.0965  0.2290 -0.2385
   89MOL    C1621312   1.563   3.668   2.019 -0.2793  0.6349  0.1498
   89MOL    C1721313   1.622   3.865   1.868 -0.4742  0.2177 -0.6189
   89MOL    C1821314   1.723   3.950   1.954  0.4501  0.8944  0.1728
   89MOL    O1921315   1.839   3.922   1.970  0.4307  0.2636 -0.3407
   89MOL    H2021316   1.460   3.861   2.018 -0.2409 -0.2058 -0.0131
   89MOL    H2121317   1.485   3.615   2.073 -0.2415  2.2442  1.8397
   89MOL    H2221318   1.641   3.687   2.092 -0.4367 -0.7448  0.6934
   89MOL    H2321319   1.605   3.600   1.944 -0.6026 -2.1018  2.3544
   89MOL    H2421320   1.576   3.916   1.783  1.6667 -1.6047 -2.9230
   89MOL    H2521321   1.688   3.798   1.815  0.5211  0.6765  0.0235
   89MOL    O2621322   1.657   4.045   2.030 -0.1384 -0.3802  0.0091
   89MOL    C2721323   1.715   4.109   2.147 -0.2285  0.4661 -0.6979
   89MOL    C2821324   1.774   4.246   2.110 -0.9528  0.2018 -0.4300
   89MOL    C2921325   1.597   4.122   2.246 -0.0740  0.4160  0.4653
   89MOL    C3021326   1.555   3.983   2.303 -0.3095  0.0905  0.2231
   89MOL    O3121327   1.644   3.904   2.342  0.0567  0.3995 -0.4285
   89MOL    H3221328   1.790   4.047   2.195 -0.8338 -0.0676 -0.4335
   89MOL    H3321329   1.788   4.304   2.201 -4.7071  4.1460 -2.2050
   89MOL    H3421330   1.708   4.304   2.045 -1.0119  0.3950 -0.2012
   89MOL    H3521331   1.869   4.237   2.059 -0.0343 -0.5662  1.3683
   89MOL    H3621332   1.517   4.176   2.195  1.4934  0.5573 -1.9181
   89MOL    H3721333   1.625   4.188   2.328  4.8376 -1.2574  0.2728
   89MOL    O3821334   1.414   3.961   2.303  0.1734  0.2932  0.1316
   89MOL    C3921335   1.370   3.848   2.362  0.2569  0.1328  0.5425
   89MOL    C4021336   1.322   3.889   2.494  0.2535  0.8500 -0.5588
   89MOL    C4121337   1.267   3.792   2.266 -0.2439 -0.1997  0.0866
   89MOL    C4221338   1.200   3.665   2.291  0.3205 -0.7003  0.3860
   89MOL    O4321339   1.151   3.640   2.397  0.2650  0.6997 -0.9842
   89MOL    H4421340   1.454   3.779   2.370  0.1859 -0.5144 -3.2776
   89MOL    H4521341   1.312   3.798   2.552 -2.2962  0.9295 -0.8384
   89MOL    H4621342   1.228   3.943   2.487  0.2602  1.0463  0.7085
   89MOL    H4721343   1.395   3.937   2.559  0.0462 -1.0662  1.1411
   89MOL    H4821344   1.311   3.781   2.167 -2.2486  1.8472 -1.0962
   89MOL    H4921345   1.185   3.864   2.267 -1.2820 -1.3499 -0.8564
   89MOL    O5021346   1.198   3.576   2.185  0.3339 -0.5792 -0.4212
   89MOL    C5121347   1.174   3.443   2.207 -0.3216 -1.0424  0.1745
   89MOL    C5221348   1.108   3.388   2.084 -0.5757 -0.3786  0.4617
   89MOL    C5321349   1.312   3.372   2.247 -0.1670  0.0336  0.0856
   89MOL    C5421350   1.293   3.245   2.325 -0.1839  0.7245  0.2697
   89MOL    O5521351   1.192   3.222   2.388 -0.0929 -0.1321 -0.5157
   89MOL    H5621352   1.106   3.445   2.291 -0.2531 -2.2248  0.2659
   89MOL    H5721353   1.094   3.281   2.099  1.3236 -0.7522 -0.3579
   89MOL    H5821354   1.165   3.403   1.992 -0.0712  1.4237  1.0486
   89MOL    H5921355   1.006   3.427   2.071 -0.0129  1.5961  1.8352
   89MOL    H6021356   1.378   3.435   2.308 -1.5305 -0.1338  1.7742
   89MOL    H6121357   1.365   3.337   2.159 -1.5359  2.3479 -1.7367
   89MOL    O6221358   1.395   3.152   2.305  0.8392 -0.5217 -0.0478
   89MOL    C6321359   1.395   3.030   2.373 -0.3410 -0.0196 -0.9092
   89MOL    C6421360   1.490   2.949   2.298 -0.6384 -0.0677 -0.3517
   89MOL    C6521361   1.444   3.059   2.514 -0.5987 -0.5420  0.6852
   89MOL    C6621362   1.447   2.939   2.607 -0.5864  0.5508 -0.1735
   89MOL    O6721363   1.553   2.878   2.632 -0.6470 -0.5290 -0.1437
   89MOL    H6821364   1.294   2.988   2.372 -0.3354 -0.0894  0.6975
   89MOL    H6921365   1.592   2.980   2.318 -1.2238  0.4082  2.0200
   89MOL    H7021366   1.465   2.946   2.192 -0.4357 -0.2957 -0.3944
   89MOL    H7121367   1.479   2.844   2.326 -1.2287 -0.9715 -3.6358
   89MOL    H7221368   1.372   3.131   2.554  3.1587  1.9557  3.3144
   89MOL    H7321369   1.535   3.116   2.493 -1.2533  0.1387 -0.3354
   89MOL    O7421370   1.324   2.905   2.654 -0.2169 -0.3688 -0.1402
   89MOL    C7521371   1.315   2.794   2.748 -0.7509 -0.6225 -0.3873
   89MOL    C7621372   1.195   2.826   2.845 -0.4134  0.5332  0.0774
   89MOL    C7721373   1.315   2.656   2.685 -0.7183 -0.0090 -1.0195
   89MOL    C7821374   1.200   2.629   2.590 -0.3906 -0.2983  0.2291
   89MOL    O7921375   1.140   2.525   2.600  0.7040 -0.3485 -0.5676
   89MOL    H8021376   1.400   2.785   2.815 -0.7449  0.3666 -0.2496
   89MOL    H8121377   1.174   2.767   2.934  0.0142  2.0629  1.2043
   89MOL    H8221378   1.103   2.837   2.787 -0.3766 -1.0721 -0.3094
   89MOL    H8321379   1.210   2.927   2.882  0.0630  0.7673 -0.7390
   89MOL    H8421380   1.314   2.573   2.756 -2.1670  0.9670  0.1523
   89MOL    H8521381   1.410   2.639   2.636 -0.7330 -3.7671  0.1266
   89MOL    O8621382   1.169   2.727   2.504  0.6766  0.8558  0.2058
   89MOL    C8721383   1.076   2.707   2.396 -0.6689 -0.0657 -0.5528
   89MOL    C8821384   0.968   2.818   2.394  0.1514 -0.5483 -0.3729
   89MOL    C8921385   1.152   2.694   2.258 -0.0597  0.0389  0.3730
   89MOL    C9021386   1.081   2.622   2.148 -0.3572 -0.2084 -0.0333
   89MOL    O9121387   1.019   2.689   2.069  0.1862 -0.4536  0.6442
   89MOL    H9221388   1.019   2.616   2.418  1.2832 -0.4609  3.3299
   89MOL    H9321389   0.882   2.805   2.329 -1.5165  0.1939  1.6194
   89MOL    H9421390   1.016   2.906   2.352 -0.1256 -0.2949 -0.1611
   89MOL    H9521391   0.930   2.834   2.495  0.9806 -0.0322 -0.1304
   89MOL    H9621392   1.238   2.631   2.281  1.2551  1.6316 -0.0920
   89MOL    H9721393   1.190   2.791   2.228 -0.4352  0.2515  0.5843
   89MOL    O9821394   1.109   2.488   2.135  0.2791  0.3144 -0.2338
   89MOL    C9921395   1.047   2.409   2.041  0.0660  0.2079 -0.0043
   89MOL   C10021396   1.157   2.371   1.939 -0.5403 -0.0173  0.4403
   89MOL   C10121397   0.981   2.281   2.111  0.5896 -0.0541  0.0528
   89MOL   C10221398   1.016   2.156   2.038 -0.3859  1.0517  0.2833
   89MOL   O10321399   1.114   2.090   2.070  0.0229 -0.3339 -0.8856
   89MOL   H10421400   0.965   2.456   1.987  0.1141 -0.7137 -0.9008
   89MOL   H10521401   1.116   2.315   1.856 -0.6534  1.5423 -0.5781
   89MOL   H10621402   1.235   2.309   1.983  0.9263  1.3611 -0.1320
   89MOL   H10721403   1.210   2.460   1.903  0.5313 -0.6954  0.3072
   89MOL   H10821404   0.876   2.309   2.118  0.1922 -0.8429 -2.1496
   89MOL   H10921405   1.011   2.268   2.215  0.1303  0.7261  0.2820
   89MOL   O11021406   0.918   2.123   1.946 -0.7219 -0.1141  0.0790
   89MOL   C11121407   0.926   1.989   1.891  0.6243  0.1191  0.1968
   89MOL   C11221408   0.877   1.878   1.982  0.0159  0.6927  0.1574
   89MOL   C11321409   0.828   2.001   1.771 -0.6029  0.0696 -0.0392
   89MOL   C11421410   0.864   1.894   1.662 -0.0832 -0.6636  0.3507
   89MOL   O11521411   0.788   1.795   1.634  0.2727 -0.1390  0.2319
   89MOL   H11621412   1.029   1.967   1.863  0.3866  0.1532 -0.6982
   89MOL   H11721413   0.778   1.904   2.017  0.8229  2.2626  1.3426
   89MOL   H11821414   0.946   1.859   2.064 -0.3356 -2.6788 -0.2768
   89MOL   H11921415   0.854   1.785   1.932  0.6186  0.0190  1.1184
   89MOL   H12021416   0.826   2.100   1.726  0.9164  0.6985  1.2356
   89MOL   H12121417   0.724   1.988   1.803 -0.1775 -0.7704  1.0264
   89MOL   O12221418   0.987   1.916   1.606  0.0321 -0.5138  0.2863
   89MOL   C12321419   1.027   1.841   1.497  0.6540 -0.1045 -0.8041
   89MOL   C12421420   0.988   1.916   1.370 -0.4104 -0.1831  0.2411
   89MOL   C12521421   1.177   1.837   1.507  0.2561 -0.0955  0.1493
   89MOL   C12621422   1.231   1.741   1.406  0.3026 -0.2254  0.2991
   89MOL   O12721423   1.314   1.779   1.326  0.4759  0.6162 -0.0476
   89MOL   H12821424   0.985   1.740   1.504  2.0845 -0.5600  2.5809
   89MOL   H12921425   1.033   2.015   1.361  0.9571 -0.9361 -1.5039
   89MOL   H13021426   0.880   1.913   1.355 -0.0364 -1.0614 -2.5717
   89MOL   H13121427   1.032   1.873   1.281 -1.2906  0.0423 -0.3093
   89MOL   H13221428   1.211   1.796   1.603  0.4104  1.0577  0.5962
   89MOL   H13321429   1.231   1.931   1.501  2.3168 -1.2842 -0.4841
   89MOL   O13421430   1.186   1.614   1.413 -0.8920  0.1683  0.4503
   89MOL   C13521431   1.245   1.497   1.344 -0.3812  0.4992 -0.8056
   89MOL   C13621432   1.236   1.361   1.412  0.3894 -0.1928  0.3810
   89MOL   C13721433   1.182   1.495   1.205 -0.7067 -0.2019  0.1934
   89MOL   C13821434   1.029   1.465   1.202  0.0561  0.1047  0.1950
   89MOL   O13921435   0.998   1.347   1.180 -0.5162  0.1508 -0.7255
   89MOL   H14021436   1.354   1.505   1.335 -0.0165 -0.4995  2.0590
   89MOL   H14121437   1.266   1.289   1.336  0.6504 -0.5213  0.7934
   89MOL   H14221438   1.135   1.333   1.443  0.2884  0.6209  0.7936
   89MOL   H14321439   1.300   1.354   1.501  0.3018  0.4890  0.5022
   89MOL   H14421440   1.231   1.432   1.131 -0.7745 -0.3983  0.3164
   89MOL   H14521441   1.198   1.588   1.150 -1.0162 -0.1463  0.1962
   89MOL   O14621442   0.949   1.573   1.210  0.4696  0.3855 -0.6493
   89MOL   C14721443   0.804   1.556   1.191 -0.4409 -0.0943  0.0196
   89MOL   C14821444   0.743   1.610   1.323 -0.8646 -0.1842 -0.9856
   89MOL   C14921445   0.760   1.631   1.061  0.3253  0.1416 -0.3028
   89MOL   C15021446   0.612   1.613   1.033 -0.4541  0.9463  0.9573
   89MOL   O15121447   0.554   1.509   1.065 -0.1224 -0.4198  0.2850
   89MOL   H15221448   0.780   1.451   1.183  1.3685 -0.5780  0.6054
   89MOL   H15321449   0.635   1.601   1.329 -0.8982  0.3105 -0.7717
   89MOL   H15421450   0.781   1.712   1.337  0.4696 -0.7653 -0.2352
   89MOL   H15521451   0.783   1.551   1.406 -0.8021  3.4180  1.7197
   89MOL   H15621452   0.825   1.586   0.986  0.0263 -1.6036  0.4523
   89MOL   H15721453   0.781   1.737   1.074  2.1650 -0.1546 -0.8092
   89MOL   O15821454   0.543   1.709   0.966  0.4369 -0.2764  0.0534
   89MOL   C15921455   0.406   1.716   0.940  0.4909 -0.2038 -0.4323
   89MOL   C16021456   0.382   1.859   0.882 -0.4890  0.3547 -0.8422
   89MOL   C16121457   0.359   1.606   0.843 -0.1075  0.2811 -0.3572
   89MOL   C16221458   0.214   1.554   0.851 -0.4661  0.4979 -0.9526
   89MOL   O16321459   0.179   1.438   0.821  0.3903  0.1605  0.3065
   89MOL   H16421460   0.347   1.710   1.031  0.8591  1.3642 -0.0806
   89MOL   H16521461   0.367   1.914   0.975 -3.3274 -2.3349  0.3878
   89MOL   H16621462   0.284   1.867   0.836  0.4448  0.5772 -2.8446
   89MOL   H16721463   0.461   1.905   0.822  0.0024 -1.3741 -1.5389
   89MOL   H16821464   0.415   1.514   0.858 -1.3027 -1.1516 -4.0878
   89MOL   H16921465   0.377   1.642   0.741 -0.2216 -1.7462 -1.1116
   89MOL   O17021466   0.142   1.651   0.904  0.4065 -0.3902 -0.6944
   89MOL   C17121467   0.006   1.637   0.937  0.1662 -0.2182  0.7818
   89MOL   C17221468   0.005   1.575   1.074  0.7868  0.4004  0.0970
   89MOL   C17321469   7.922   1.775   0.921 -0.0888  0.6926 -0.1707
   89MOL   C17421470   7.969   1.886   1.016  0.4409 -0.0980  0.0489
   89MOL   O17521471   0.098   1.884   1.072 -0.4448  0.0416  0.2954
   89MOL   H17621472   7.932   1.576   0.865 -2.1603  1.7841  0.7494
   89MOL   H17721473   0.050   1.476   1.081  1.7949  0.8832  0.5176
   89MOL   H17821474   7.881   1.565   1.105  0.4931 -0.2934 -1.0478
   89MOL   H17921475   0.055   1.646   1.139  1.6552 -0.3743  0.2854
   89MOL   H18021476   7.814   1.775   0.941 -0.3633  2.8934 -1.5428
   89MOL   H18121477   7.918   1.806   0.817 -1.3989 -1.1865 -0.7081
   89MOL   O18221478   7.872   1.979   1.039 -0.1323 -0.2125  0.1758
   89MOL   C18321479   7.898   2.092   1.122  0.1400 -0.6782  0.4546
   89MOL   C18421480   7.834   2.210   1.055  0.0922  0.0306 -0.4055
   89MOL   C18521481   7.830   2.073   1.262  0.0548 -0.4622 -0.0441
   89MOL   C18621482   7.880   2.164   1.378  0.3414  0.4420 -0.3188
   89MOL   O18721483   7.829   2.273   1.388  0.0752 -0.1695 -0.0440
   89MOL   H18821484   0.023   2.119   1.136  0.1119 -0.5331  0.3842
   89MOL   H18921485   7.822   2.295   1.122 -0.3555 -0.5020  0.2027
   89MOL   H19021486   7.731   2.188   1.028  0.5256  0.2668 -2.3501
   89MOL   H19121487   7.893   2.241   0.969  0.7143 -0.0705 -0.0186
   89MOL   H19221488   7.842   1.968   1.290 -3.1179 -0.6197  0.8545
   89MOL   H19321489   7.724   2.082   1.241  0.1034 -0.1924 -0.1746
   89MOL   O19421490   7.957   2.102   1.466  0.1738 -0.2977 -0.1827
   89MOL   C19521491   0.002   2.165   1.590  0.0349  0.2407  0.7522
   89MOL   C19621492   7.912   2.087   1.705 -0.2206  0.1886 -0.1903
   89MOL   C19721493   0.153   2.170   1.597 -0.2275  0.5469 -0.3107
   89MOL   C19821494   0.215   2.229   1.721  0.5022  0.4758  0.0878
   89MOL   O19921495   0.159   2.303   1.799 -0.2081 -0.4068 -0.1819
   89MOL   H20021496   7.946   2.268   1.588 -1.4272 -0.2393  1.4527
   89MOL   H20121497   7.826   2.031   1.669  0.8272  0.2974 -3.0521
   89MOL   H20221498   7.876   2.165   1.772 -1.7874  1.4384 -2.4358
   89MOL   H20321499   7.977   2.015   1.754 -0.6814  0.7424  1.2703
   89MOL   H20421500   0.210   2.197   1.509  0.4070  2.0416  0.5437
   89MOL   H20521501   0.179   2.065   1.605 -2.0713  0.1804  1.4173
   89MOL   O20621502   0.337   2.185   1.737 -0.1253  0.1388  0.2761
   89MOL   C20721503   0.414   2.255   1.836  0.2676  0.2132  0.1431
   89MOL   C20821504   0.450   2.134   1.922  0.4104  0.2290 -0.3414
   89MOL   C20921505   0.535   2.316   1.771  0.2804 -0.0452  0.0877
   89MOL   C21021506   0.628   2.390   1.865  0.7621  0.7437  0.2400
   89MOL   O21121507   0.745   2.392   1.852 -0.3501 -0.1012  0.0847
   89MOL   H21221508   0.359   2.335   1.885  0.4480  1.9053 -2.2887
   89MOL   H21321509   0.479   2.035   1.889  1.1812 -0.2600  1.7102
   89MOL   H21421510   0.357   2.117   1.977  1.4411 -2.2171  0.7039
   89MOL   H21521511   0.515   2.168   2.002  3.5497 -2.2926 -1.7244
   89MOL   H21621512   0.507   2.374   1.683 -2.0144 -2.4788 -0.8570
   89MOL   H21721513   0.587   2.230   1.728  0.7581 -0.0016  0.5786
   89MOL   O21821514   0.564   2.456   1.964  0.3095  0.0548 -0.2083
   89MOL   C21921515   0.636   2.524   2.072  0.1411 -0.2539  0.2560
   89MOL   C22021516   0.588   2.666   2.069  0.0376  0.7345  0.2545
   89MOL   C22121517   0.616   2.441   2.202 -0.2786 -0.7527  0.1366
   89MOL   C22221518   0.659   2.516   2.326  0.0224  0.1463  1.3032
   89MOL   O22321519   0.776   2.520   2.364  0.7804  0.3201 -1.1152
   89MOL   H22421520   0.744   2.521   2.056  0.0052 -1.9027 -0.4558
   89MOL   H22521521   0.614   2.712   1.973 -3.6085  0.3601 -0.9936
   89MOL   H22621522   0.635   2.720   2.151  0.4745  0.2216  0.3474
   89MOL   H22721523   0.482   2.679   2.091 -0.3620  0.7300 -1.5584
   89MOL   H22821524   0.674   2.349   2.192 -0.2449 -0.7361  0.1781
   89MOL   H22921525   0.513   2.409   2.214 -0.2867 -2.1960 -3.3075
   89MOL   O23021526   0.562   2.588   2.379 -0.3374 -0.2779  0.1898
   89MOL   C23121527   0.575   2.698   2.470  0.5375 -0.6182 -0.4344
   89MOL   C23221528   0.445   2.774   2.460  0.1010 -0.2747 -0.0907
   89MOL   C23321529   0.614   2.645   2.610 -0.0856 -0.1498 -0.0651
   89MOL   C23421530   0.632   2.747   2.711 -0.8583  0.7299 -1.0989
   89MOL   O23521531   0.651   2.863   2.674  0.3389  0.0308  0.5010
   89MOL   H23621532   0.658   2.758   2.433 -0.7199  1.0655 -0.5446
   89MOL   H23721533   0.423   2.819   2.363  0.2258 -1.2702 -0.5843
   89MOL   H23821534   0.428   2.858   2.527 -2.5698  1.1310 -2.3961
   89MOL   H23921535   0.358   2.709   2.473 -0.6257  0.6323 -0.3522
   89MOL   H24021536   0.714   2.603   2.596 -0.0715  0.1345 -0.8224
   89MOL   H24121537   0.536   2.573   2.635 -1.9268  1.0827 -2.1700
   89MOL   H24221538   0.626   2.711   2.814 -1.2122  1.0058 -1.0236
   90MOL     O121539   3.194   2.144   0.205  0.4516 -0.4681  0.7633
   90MOL     C221540   3.187   2.235   0.094  0.0177 -0.0704 -0.3336
   90MOL     C321541   3.146   2.370   0.155 -0.4910 -0.2391 -0.2119
   90MOL     C421542   3.320   2.235   0.021  0.1466 -0.3289  0.6094
   90MOL     C521543   3.316   2.291   7.864 -0.7384 -0.0942 -0.2454
   90MOL     O621544   3.394   2.387   7.837 -0.2344  0.6568  0.1128
   90MOL     H721545   3.105   2.200   0.032  1.6328 -2.2516 -1.3258
   90MOL     H821546   3.053   2.365   0.212  1.7210 -1.5889  3.4429
   90MOL     H921547   3.143   2.456   0.088  0.5107 -1.2924 -1.6307
   90MOL    H1021548   3.209   2.395   0.240  1.1209  0.4993 -1.5870
   90MOL    H1121549   3.374   2.141   0.013  0.1170 -0.2604 -0.4476
   90MOL    H1221550   3.382   2.295   0.088  2.7728 -3.4476  1.0507
   90MOL    H1321551   3.174   2.058   0.173 -0.6142  0.2983 -0.6841
   90MOL    O1421552   3.224   2.229   7.783  0.5201  0.6935 -0.2733
   90MOL    C1521553   3.197   2.268   7.648 -0.5262  0.2519 -0.0552
   90MOL    C1621554   3.237   2.152   7.554 -0.3694 -0.4940  0.3129
   90MOL    C1721555   3.052   2.299   7.621 -0.0548 -0.3399 -0.3188
   90MOL    C1821556   3.024   2.441   7.644 -0.1139  1.0758  0.3733
   90MOL    O1921557   3.041   2.526   7.556  0.0248 -0.3109  0.1703
   90MOL    H2021558   3.258   2.356   7.630 -0.4248  0.5492  1.6387
   90MOL    H2121559   3.180   2.066   7.592 -0.1579  0.1366  2.0815
   90MOL    H2221560   3.337   2.112   7.566 -0.4390 -0.7935 -0.0985
   90MOL    H2321561   3.221   2.163   7.447 -3.3296 -0.4009  0.7118
   90MOL    H2421562   2.990   2.230   7.679  0.0221  0.7519  1.0846
   90MOL    H2521563   3.030   2.277   7.517  0.5161 -2.0327 -0.1063
   90MOL    O2621564   3.002   2.473   7.767  0.1355  0.4576  0.3367
   90MOL    C2721565   2.979   2.610   7.798  0.8050 -0.4494  0.2856
   90MOL    C2821566   2.897   2.610   7.920  0.0386 -0.6352 -0.1985
   90MOL    C2921567   3.110   2.689   7.800 -0.0564  0.3654  0.5751
   90MOL    C3021568   3.090   2.840   7.826 -0.3058  0.3090  0.3635
   90MOL    O3121569   3.152   2.890   7.921 -0.1643  0.2579 -0.2448
   90MOL    H3221570   2.905   2.657   7.733  0.5498 -0.5321  0.5181
   90MOL    H3321571   2.821   2.531   7.920  2.1338 -2.8014 -3.4742
   90MOL    H3421572   2.845   2.705   7.933 -0.2031 -0.8451  0.3934
   90MOL    H3521573   2.960   2.584   0.025  0.6791  1.1745 -0.1093
   90MOL    H3621574   3.157   2.699   7.702  0.5449 -2.1741  0.5657
   90MOL    H3721575   3.178   2.636   7.867 -1.3955  1.0823  2.5432
   90MOL    O3821576   3.019   2.899   7.733 -0.4306  0.2076 -0.3490
   90MOL    C3921577   2.987   3.042   7.747 -0.3929  0.6994 -0.2562
   90MOL    C4021578   3.103   3.122   7.691 -0.4474  0.0681  0.3359
   90MOL    C4121579   2.866   3.076   7.657 -0.0131 -0.2383 -0.3032
   90MOL    C4221580   2.810   3.213   7.665  0.1128  0.7714  0.5503
   90MOL    O4321581   2.769   3.271   7.561 -0.1677 -0.0562  0.0451
   90MOL    H4421582   2.971   3.064   7.853  1.3460  1.4071 -0.1260
   90MOL    H4521583   3.081   3.227   7.711  1.6272  0.4504  0.7953
   90MOL    H4621584   3.125   3.109   7.585 -2.7864  0.1986 -0.1770
   90MOL    H4721585   3.195   3.097   7.745  0.6484 -0.6867 -1.8119
   90MOL    H4821586   2.786   3.006   7.684  0.0245 -0.8255 -1.6805
   90MOL    H4921587   2.893   3.048   7.555  0.6469  1.0237 -0.4738
   90MOL    O5021588   2.802   3.258   7.784  0.6250 -0.7514  0.3060
   90MOL    C5121589   2.753   3.389   7.810  0.4778 -0.6047  0.6186
   90MOL    C5221590   2.686   3.381   7.945  0.2229  0.4874 -0.1125
   90MOL    C5321591   2.874   3.482   7.813 -0.2705  0.3821  0.4135
   90MOL    C5421592   2.856   3.630   7.806  0.7634 -0.7838 -0.2462
   90MOL    O5521593   2.918   3.711   7.879 -0.4991  0.0965  0.0192
   90MOL    H5621594   2.676   3.431   7.746 -1.0868 -1.7975  1.6442
   90MOL    H5721595   2.616   3.464   7.944  0.2568  0.5138 -0.5729
   90MOL    H5821596   2.752   3.361   0.049 -0.4755 -0.5957  0.1979
   90MOL    H5921597   2.607   3.307   7.933  1.4067 -1.3064  2.7360
   90MOL    H6021598   2.938   3.450   7.730 -0.9556  2.6114 -1.0266
   90MOL    H6121599   2.933   3.473   7.904  1.5209  1.1275 -0.6445
   90MOL    O6221600   2.765   3.656   7.717 -0.0871 -0.5542  0.6418
   90MOL    C6321601   2.751   3.782   7.654 -0.1954  0.0291  0.6016
   90MOL    C6421602   2.775   3.768   7.509 -0.3683  0.1399 -0.2835
   90MOL    C6521603   2.616   3.832   7.699  0.2812 -0.0680  0.5035
   90MOL    C6621604   2.499   3.754   7.636  0.2664  0.4182  0.2555
   90MOL    O6721605   2.459   3.782   7.522  0.2167  0.1907 -0.0997
   90MOL    H6821606   2.821   3.855   7.695  0.5460 -0.1447 -0.3592
   90MOL    H6921607   2.879   3.742   7.488  0.3849  1.5926  1.5376
   90MOL    H7021608   2.759   3.862   7.456  2.1192  1.8080  1.7946
   90MOL    H7121609   2.715   3.691   7.461  0.8933 -0.2288 -1.2940
   90MOL    H7221610   2.606   3.933   7.659 -0.2234 -1.2523 -2.5280
   90MOL    H7321611   2.610   3.828   7.808 -0.9683  1.1687  0.5014
   90MOL    O7421612   2.455   3.648   7.704  0.1221  0.3005  0.0943
   90MOL    C7521613   2.349   3.568   7.657 -0.4057  0.6862  0.0614
   90MOL    C7621614   2.389   3.423   7.680  0.0361  0.6092 -0.1097
   90MOL    C7721615   2.209   3.598   7.718 -1.1529 -0.0326 -0.0091
   90MOL    C7821616   2.123   3.683   7.624  0.1586 -0.1510  0.3559
   90MOL    O7921617   2.011   3.642   7.585  0.0023 -0.2004 -0.3357
   90MOL    H8021618   2.333   3.568   7.549  1.7047  0.8535 -0.2733
   90MOL    H8121619   2.308   3.360   7.642 -0.6881  0.4644  1.6274
   90MOL    H8221620   2.409   3.383   7.780 -0.5642 -0.9676 -0.5964
   90MOL    H8321621   2.479   3.408   7.621  2.3164  3.2425  2.5255
   90MOL    H8421622   2.215   3.631   7.822 -1.2014 -0.3200  0.0845
   90MOL    H8521623   2.174   3.495   7.716  0.2868 -0.5745  1.5911
   90MOL    O8621624   2.172   3.809   7.600  0.0872 -0.1016 -0.3686
   90MOL    C8721625   2.101   3.901   7.533 -0.5196  0.3610 -0.3031
   90MOL    C8821626   1.974   3.950   7.605 -0.4106  0.0742 -0.2991
   90MOL    C8921627   2.201   4.008   7.500 -0.4827 -0.3486 -0.4334
   90MOL    C9021628   2.150   4.119   7.414  0.0397 -0.3151 -0.3953
   90MOL    O9121629   2.150   4.236   7.460  0.2772  0.3911  0.6668
   90MOL    H9221630   2.066   3.861   7.438  2.2358 -0.5407 -0.9818
   90MOL    H9321631   1.931   4.030   7.544  0.8738 -0.6096 -2.1427
   90MOL    H9421632   1.981   3.981   7.709  1.2945  1.1154 -0.7063
   90MOL    H9521633   1.901   3.870   7.592  0.2597 -0.5644 -0.1610
   90MOL    H9621634   2.270   3.962   7.430 -0.0805  0.6481 -0.7018
   90MOL    H9721635   2.267   4.038   7.581 -0.7582  2.2240 -1.1345
   90MOL    O9821636   2.111   4.073   7.291  0.1439  0.2034  0.2705
   90MOL    C9921637   2.067   4.164   7.190 -0.4423 -0.2833  0.1465
   90MOL   C10021638   2.169   4.154   7.070 -0.3826  0.1183 -0.0815
   90MOL   C10121639   1.919   4.135   7.153  0.1266  0.3257 -0.0162
   90MOL   C10221640   1.895   3.998   7.096  1.0785 -0.3162  0.3642
   90MOL   O10321641   1.904   3.986   6.975 -0.5355  0.2277  0.5832
   90MOL   H10421642   2.077   4.268   7.221  1.6793 -0.2543 -0.5522
   90MOL   H10521643   2.267   4.182   7.111  0.3962 -2.4596 -0.0900
   90MOL   H10621644   2.163   4.220   6.984  2.2175 -0.8699 -1.0827
   90MOL   H10721645   2.194   4.054   7.036  1.5327  0.8494 -0.8918
   90MOL   H10821646   1.880   4.196   7.072  1.0855  0.2820 -0.5177
   90MOL   H10921647   1.859   4.143   7.243  4.4025 -1.4017  3.1821
   90MOL   O11021648   1.871   3.908   7.198  0.5349  0.4028  0.2560
   90MOL   C11121649   1.843   3.771   7.172 -0.1352 -0.2605  0.0386
   90MOL   C11221650   1.972   3.696   7.159 -1.1131 -0.5391 -0.4311
   90MOL   C11321651   1.755   3.722   7.285 -0.0791  0.1987  0.1378
   90MOL   C11421652   1.609   3.771   7.287 -0.6264  0.6640  0.4125
   90MOL   O11521653   1.519   3.705   7.241 -0.0912 -0.4361 -0.0618
   90MOL   H11621654   1.798   3.762   7.073 -0.8779  0.4089  0.3141
   90MOL   H11721655   1.950   3.601   7.110 -1.6781 -0.1102 -1.0148
   90MOL   H11821656   2.008   3.671   7.258 -1.5890 -0.8012 -0.3216
   90MOL   H11921657   2.047   3.761   7.114  0.7007 -1.6869  0.8776
   90MOL   H12021658   1.800   3.716   7.384 -0.4408 -1.7814  0.2072
   90MOL   H12121659   1.733   3.616   7.272 -0.8039  0.3534  0.0930
   90MOL   O12221660   1.598   3.890   7.340  0.0579 -0.2489 -0.2201
   90MOL   C12321661   1.469   3.950   7.365  0.4647  0.2803  0.0133
   90MOL   C12421662   1.438   3.930   7.514  0.4321 -0.9707  0.7211
   90MOL   C12521663   1.475   4.103   7.326 -0.0112  0.1595  0.0219
   90MOL   C12621664   1.532   4.130   7.185  0.1115 -0.0248  0.1105
   90MOL   O12721665   1.623   4.209   7.177  1.3883 -0.3003  0.5477
   90MOL   H12821666   1.399   3.897   7.300  1.2413 -1.0094  0.2208
   90MOL   H12921667   1.440   3.823   7.534 -1.0193 -1.4853 -1.6564
   90MOL   H13021668   1.334   3.960   7.528  0.1871 -0.9289 -1.1153
   90MOL   H13121669   1.506   3.983   7.581  0.7390  0.7917 -0.9525
   90MOL   H13221670   1.551   4.143   7.393  0.0328 -0.0259  0.0823
   90MOL   H13321671   1.382   4.159   7.340 -0.9858 -1.1428 -1.2148
   90MOL   O13421672   1.479   4.061   7.087  0.0695  0.1855 -0.0176
   90MOL   C13521673   1.547   4.062   6.961 -0.1238 -0.2394 -0.3037
   90MOL   C13621674   1.583   3.914   6.932 -0.6939  0.1059  0.9989
   90MOL   C13721675   1.468   4.142   6.852 -0.5589  0.0121 -0.2581
   90MOL   C13821676   1.545   4.153   6.718 -0.3365  0.1849 -0.2241
   90MOL   O13921677   1.494   4.127   6.610 -0.1458 -0.6641 -0.3602
   90MOL   H14021678   1.649   4.101   6.970 -1.0842  2.1403  0.7197
   90MOL   H14121679   1.634   3.867   7.016  3.2380 -1.4316 -2.0708
   90MOL   H14221680   1.648   3.896   6.846 -0.2388 -1.4223  1.6645
   90MOL   H14321681   1.491   3.859   6.915  0.0038 -0.9772  0.7042
   90MOL   H14421682   1.453   4.241   6.896  2.6431 -0.2466  1.4850
   90MOL   H14521683   1.370   4.097   6.835  0.2145 -1.3524 -1.2142
   90MOL   O14621684   1.662   4.206   6.736 -0.0806  0.3272  0.0239
   90MOL   C14721685   1.758   4.214   6.629  0.3208 -0.0431 -0.4343
   90MOL   C14821686   1.717   4.332   6.539 -0.0616  0.1203  0.3877
   90MOL   C14921687   1.883   4.241   6.704  0.0045 -0.1185 -0.0130
   90MOL   C15021688   2.020   4.211   6.637 -0.5062 -0.9782  0.6782
   90MOL   O15121689   2.032   4.156   6.530 -0.2390  0.1887  0.1379
   90MOL   H15221690   1.762   4.127   6.563 -1.0470 -0.0896 -0.4679
   90MOL   H15321691   1.784   4.328   6.454  0.0113 -0.8264  0.4787
   90MOL   H15421692   1.731   4.433   6.577 -0.2332 -0.3908  1.8762
   90MOL   H15521693   1.614   4.335   6.503  0.2173  2.0498 -0.2506
   90MOL   H15621694   1.888   4.172   6.789  0.9854  2.7084  2.2826
   90MOL   H15721695   1.875   4.343   6.739 -1.4062  0.6935 -2.6022
   90MOL   O15821696   2.118   4.282   6.707 -0.6262  0.2108  0.3532
   90MOL   C15921697   2.247   4.287   6.644  0.6039 -0.9790 -0.3791
   90MOL   C16021698   2.245   4.385   6.527  0.2253  0.3000  0.8311
   90MOL   C16121699   2.344   4.311   6.762 -1.0260 -0.6819  0.8333
   90MOL   C16221700   2.491   4.266   6.745 -0.7236  0.5728 -0.9740
   90MOL   O16321701   2.538   4.229   6.634 -0.0800 -0.0716 -0.6575
   90MOL   H16421702   2.279   4.191   6.603 -0.6817 -1.1139 -1.0746
   90MOL   H16521703   2.340   4.386   6.474  1.0054  0.6188  2.1958
   90MOL   H16621704   2.238   4.489   6.560  1.6630  0.8188 -0.4445
   90MOL   H16721705   2.170   4.368   6.450 -0.0803 -0.6555  1.3335
   90MOL   H16821706   2.325   4.235   6.838 -0.9906 -0.8926  0.6324
   90MOL   H16921707   2.334   4.409   6.809  0.1155  0.5428 -1.3715
   90MOL   O17021708   2.556   4.277   6.865  0.1191 -0.1564  0.7096
   90MOL   C17121709   2.697   4.247   6.862  0.5964  0.6751 -0.6941
   90MOL   C17221710   2.762   4.334   6.968  0.1070  0.3665 -0.1381
   90MOL   C17321711   2.701   4.093   6.894 -0.2165  0.0395  0.1497
   90MOL   C17421712   2.831   4.020   6.897  0.3858  0.0461 -0.4255
   90MOL   O17521713   2.935   4.078   6.863 -0.2197 -0.1833 -0.5661
   90MOL   H17621714   2.737   4.263   6.762  3.8519  0.1976  0.4737
   90MOL   H17721715   2.728   4.293   7.063  1.0005 -0.2063 -0.0559
   90MOL   H17821716   2.728   4.437   6.954  1.6356  0.9563  0.3500
   90MOL   H17921717   2.871   4.338   6.965  0.1011  0.3907 -0.2964
   90MOL   H18021718   2.632   4.055   6.819 -2.4926 -0.5987  2.4815
   90MOL   H18121719   2.651   4.061   6.986  0.1575  0.1866  0.4057
   90MOL   O18221720   2.816   3.907   6.958 -0.2680  0.4060  0.2186
   90MOL   C18321721   2.925   3.828   6.985 -0.3017 -0.0274  0.5542
   90MOL   C18421722   2.919   3.779   7.130  0.1292 -0.1508  0.0293
   90MOL   C18521723   2.926   3.706   6.896  0.3718  0.1442 -0.0729
   90MOL   C18621724   2.970   3.742   6.750 -0.0998  0.0130 -0.0025
   90MOL   O18721725   3.087   3.734   6.719  0.1875  0.0080 -0.1126
   90MOL   H18821726   3.014   3.891   6.972 -1.4372  1.3745 -0.5475
   90MOL   H18921727   2.827   3.727   7.155  0.1009 -1.6181 -2.9422
   90MOL   H19021728   2.929   3.861   7.201  2.7926 -1.8797  1.7853
   90MOL   H19121729   3.001   3.715   7.163  0.7231  0.2993 -0.5509
   90MOL   H19221730   2.827   3.661   6.890 -0.4513  1.6640  1.6294
   90MOL   H19321731   2.997   3.633   6.934 -0.1882 -0.4691 -0.1970
   90MOL   O19421732   2.876   3.792   6.672  0.1941  0.3906  0.1709
   90MOL   C19521733   2.894   3.840   6.545 -0.6646  0.0177 -0.4933
   90MOL   C19621734   2.756   3.837   6.469 -0.0959  0.4797 -0.2050
   90MOL   C19721735   2.956   3.982   6.542 -0.2513  0.3755  0.3865
   90MOL   C19821736   3.008   4.026   6.403 -0.6854 -0.3679 -0.3643
   90MOL   O19921737   3.019   3.948   6.306  0.0438 -0.0574 -0.2130
   90MOL   H20021738   2.965   3.782   6.487  1.8136  0.9451  1.5395
   90MOL   H20121739   2.681   3.894   6.525 -0.1608  1.1487 -0.9689
   90MOL   H20221740   2.721   3.735   6.452 -0.1920  0.5295 -0.3055
   90MOL   H20321741   2.763   3.882   6.371 -3.6612 -1.0326 -1.2332
   90MOL   H20421742   3.035   3.984   6.616  0.1223 -1.9028  0.0881
   90MOL   H20521743   2.873   4.048   6.568 -0.0882  1.2309 -1.1569
   90MOL   O20621744   3.061   4.149   6.406 -0.1593  0.0258  0.2824
   90MOL   C20721745   3.122   4.201   6.283  0.3287  0.1279 -0.5247
   90MOL   C20821746   3.078   4.348   6.275  0.6439  0.1203  0.4727
   90MOL   C20921747   3.277   4.179   6.291  0.9039  0.4000  0.4342
   90MOL   C21021748   3.357   4.258   6.386  0.4064  0.0391 -0.4983
   90MOL   O21121749   3.401   4.210   6.485  0.6937  0.0460  0.1939
   90MOL   H21221750   3.088   4.145   6.196 -0.7258  0.6347 -0.4432
   90MOL   H21321751   3.093   4.396   6.178 -2.8605 -2.1804 -1.2851
   90MOL   H21421752   3.122   4.411   6.352 -0.4605  0.7498  0.5891
   90MOL   H21521753   2.973   4.364   6.300  0.6187 -0.6865  0.8875
   90MOL   H21621754   3.324   4.209   6.197 -0.3905 -1.4516 -0.8387
   90MOL   H21721755   3.297   4.072   6.289  1.5446  0.5255 -1.4103
   90MOL   O21821756   3.376   4.376   6.342 -0.0105  0.9580 -0.0136
   90MOL   C21921757   3.449   4.475   6.414  0.8100  0.2934 -0.3590
   90MOL   C22021758   3.586   4.506   6.364 -0.6724 -0.2935 -0.5290
   90MOL   C22121759   3.359   4.600   6.435 -0.1970 -0.0291  0.4323
   90MOL   C22221760   3.296   4.598   6.574  0.0218 -0.4686  0.2388
   90MOL   O22321761   3.344   4.662   6.667 -0.4014 -0.6775 -0.0212
   90MOL   H22421762   3.464   4.440   6.516 -1.6194 -1.3687 -0.5287
   90MOL   H22521763   3.650   4.418   6.357  0.3862  0.2823  1.3650
   90MOL   H22621764   3.638   4.581   6.425  0.2022  0.6185 -2.3609
   90MOL   H22721765   3.576   4.535   6.260 -1.8417 -1.0627 -0.6323
   90MOL   H22821766   3.282   4.608   6.358  0.5184 -1.7347 -0.5070
   90MOL   H22921767   3.422   4.688   6.432 -0.1258 -0.0924 -0.1414
   90MOL   O23021768   3.189   4.519   6.582 -0.1979 -0.3212  0.2481
   90MOL   C23121769   3.129   4.498   6.704  0.4179 -0.5794  0.4182
   90MOL   C23221770   2.979   4.516   6.682  0.3204 -0.2791 -0.3368
   90MOL   C23321771   3.158   4.353   6.747 -0.6031  0.3246 -0.1245
   90MOL   C23421772   3.308   4.324   6.793 -0.0933  0.2164 -0.1562
   90MOL   O23521773   3.344   4.246   6.884 -0.8886 -0.2982 -0.0599
   90MOL   H23621774   3.155   4.564   6.787  1.6141  1.0435 -1.1958
   90MOL   H23721775   2.960   4.621   6.659 -0.5480 -0.3830 -0.1155
   90MOL   H23821776   2.916   4.489   6.767 -1.1739 -0.0861 -1.3613
   90MOL   H23921777   2.942   4.452   6.601  1.8543 -0.1708 -1.1386
   90MOL   H24021778   3.122   4.283   6.672 -0.5396 -0.9908  1.0562
   90MOL   H24121779   3.100   4.325   6.835 -2.2053 -0.2756 -1.3601
   90MOL   H24221780   3.382   4.387   6.743  1.0636 -0.2412  0.9434
   91MOL     O121781   1.366   3.465   3.360  0.2109 -0.2211  0.2874
   91MOL     C221782   1.245   3.484   3.427  0.3244 -0.5773 -1.2536
   91MOL     C321783   1.163   3.349   3.427 -0.0843  0.0868 -0.4793
   91MOL     C421784   1.266   3.539   3.573  0.3798  0.2131 -0.1141
   91MOL     C521785   1.131   3.590   3.627 -0.1098 -0.4139  0.1280
   91MOL     O621786   1.089   3.701   3.588 -0.1105  0.1510  0.6690
   91MOL     H721787   1.181   3.556   3.375 -0.2698 -2.4175 -3.1608
   91MOL     H821788   1.130   3.315   3.328  1.2925  0.3368 -1.0301
   91MOL     H921789   1.066   3.356   3.476 -0.4390  0.7573 -1.2566
   91MOL    H1021790   1.218   3.269   3.477 -0.0840  1.6363  2.0848
   91MOL    H1121791   1.333   3.623   3.587  1.3234 -0.6059  0.3165
   91MOL    H1221792   1.296   3.459   3.641 -0.9643  1.2778  1.7878
   91MOL    H1321793   1.351   3.466   3.267  2.2124  0.3260 -0.0605
   91MOL    O1421794   1.078   3.512   3.726 -0.6741  0.0858  0.4601
   91MOL    C1521795   0.956   3.539   3.788 -0.1280 -0.7672 -0.2176
   91MOL    C1621796   0.904   3.395   3.791 -0.7871 -0.7077 -0.0186
   91MOL    C1721797   0.984   3.589   3.934  0.4694 -0.1973 -0.4279
   91MOL    C1821798   1.033   3.741   3.945 -0.3975  0.2715 -0.4421
   91MOL    O1921799   0.966   3.820   4.010 -0.0431 -0.0883  0.4017
   91MOL    H2021800   0.898   3.607   3.725  0.8319 -0.0757 -0.3686
   91MOL    H2121801   0.950   3.326   3.862 -1.6741  0.7878  2.0562
   91MOL    H2221802   0.915   3.343   3.696 -1.9793 -0.0001 -0.5608
   91MOL    H2321803   0.796   3.394   3.807 -0.5164 -1.4168  1.8267
   91MOL    H2421804   1.061   3.530   3.984  0.5777 -1.4623 -2.0608
   91MOL    H2521805   0.891   3.584   3.990  0.9432 -0.1012  0.3902
   91MOL    O2621806   1.147   3.767   3.869 -0.1296  0.1687 -0.2215
   91MOL    C2721807   1.187   3.903   3.848  1.0764  0.4185 -0.7666
   91MOL    C2821808   1.342   3.908   3.839 -0.1235 -0.0365  0.2625
   91MOL    C2921809   1.113   3.980   3.740  0.5636 -0.2191  0.4483
   91MOL    C3021810   1.124   4.127   3.755  0.3126  0.0811  0.0861
   91MOL    O3121811   1.050   4.193   3.827  0.3483  0.5328 -0.2674
   91MOL    H3221812   1.165   3.963   3.937  0.1837  1.6411 -1.8087
   91MOL    H3321813   1.389   3.902   3.938  2.6739 -0.3309 -1.0280
   91MOL    H3421814   1.374   4.005   3.800 -2.1582 -0.4687 -2.6137
   91MOL    H3521815   1.396   3.841   3.773  1.5914  0.6935  0.8794
   91MOL    H3621816   1.007   3.958   3.723  0.7274  0.9887 -2.4903
   91MOL    H3721817   1.157   3.965   3.641 -0.7191 -0.6350 -0.0839
   91MOL    O3821818   1.212   4.181   3.670  0.1977  0.5184 -0.2824
   91MOL    C3921819   1.250   4.321   3.695 -0.1348 -0.6540  0.3629
   91MOL    C4021820   1.389   4.316   3.622 -0.0994  0.0135 -0.6276
   91MOL    C4121821   1.146   4.412   3.638 -0.6707  0.5608 -0.5604
   91MOL    C4221822   1.192   4.561   3.653  0.5881 -0.8275 -1.3712
   91MOL    O4321823   1.165   4.632   3.748  0.7185 -0.7999 -0.2657
   91MOL    H4421824   1.264   4.341   3.801  1.8935  0.7206 -0.1208
   91MOL    H4521825   1.458   4.238   3.654 -0.3371 -0.6813 -1.7497
   91MOL    H4621826   1.437   4.412   3.637 -0.1880 -0.4838  3.3459
   91MOL    H4721827   1.374   4.305   3.514 -1.2399  1.6407 -0.6415
   91MOL    H4821828   1.060   4.381   3.697 -0.3109  1.2322  0.3279
   91MOL    H4921829   1.116   4.400   3.533 -1.0475 -1.6209 -0.2238
   91MOL    O5021830   1.267   4.595   3.550 -0.5192  0.0527  0.3294
   91MOL    C5121831   1.303   4.730   3.536  0.3646 -1.1118  0.4908
   91MOL    C5221832   1.412   4.711   3.425  0.2684 -0.3198  0.2914
   91MOL    C5321833   1.189   4.815   3.480 -0.3801 -0.1674 -0.5656
   91MOL    C5421834   1.221   4.963   3.484  1.0204 -0.1046  0.3825
   91MOL    O5521835   1.316   5.008   3.548 -0.1130  0.5563 -0.8102
   91MOL    H5621836   1.336   4.776   3.629  0.9549 -1.0565  0.2525
   91MOL    H5721837   1.383   4.640   3.349  1.6214 -1.6345  0.9682
   91MOL    H5821838   1.491   4.655   3.476  2.1724  1.7336 -0.2992
   91MOL    H5921839   1.454   4.808   3.394  0.7510 -0.7382 -0.3772
   91MOL    H6021840   1.102   4.809   3.545 -1.7735  1.3161 -2.2128
   91MOL    H6121841   1.158   4.780   3.382 -0.0391  0.7135 -1.0025
   91MOL    O6221842   1.126   5.031   3.422 -0.1117  0.0859  0.5223
   91MOL    C6321843   1.129   5.176   3.410 -0.2305  0.1204  0.0363
   91MOL    C6421844   1.140   5.227   3.272  0.2392  0.4288  0.4258
   91MOL    C6521845   1.003   5.228   3.482  0.1070 -0.1535  0.4715
   91MOL    C6621846   1.027   5.372   3.525 -0.7328 -0.2763 -0.0926
   91MOL    O6721847   1.121   5.399   3.601 -0.4439  0.6447  0.4596
   91MOL    H6821848   1.218   5.220   3.454 -1.4436  2.7405 -0.0191
   91MOL    H6921849   1.044   5.239   3.223  0.4258  0.1294 -0.0160
   91MOL    H7021850   1.197   5.157   3.211  0.8107  2.2376 -1.1649
   91MOL    H7121851   1.172   5.330   3.254 -1.1019  0.5878 -1.2332
   91MOL    H7221852   0.987   5.175   3.576 -1.3568 -0.0758  0.2850
   91MOL    H7321853   0.915   5.213   3.419 -1.5436 -0.5207  2.7868
   91MOL    O7421854   0.942   5.460   3.474  0.1202  0.0633  0.2449
   91MOL    C7521855   0.945   5.592   3.507  0.2520 -0.2596 -0.1001
   91MOL    C7621856   1.040   5.663   3.410  0.5399  0.0927  0.4464
   91MOL    C7721857   0.804   5.649   3.469 -0.0489 -0.4068 -0.6957
   91MOL    C7821858   0.696   5.626   3.575  0.5134 -0.1096  0.5150
   91MOL    O7921859   0.642   5.728   3.627 -0.0189 -0.3193  0.4692
   91MOL    H8021860   0.982   5.610   3.608  1.0351  1.2806 -0.6423
   91MOL    H8121861   1.143   5.628   3.416  0.9577  1.4637  1.5380
   91MOL    H8221862   1.045   5.772   3.420  0.6166  0.2682 -1.2668
   91MOL    H8321863   1.001   5.654   3.309 -0.2666  1.3565  0.6335
   91MOL    H8421864   0.773   5.616   3.369 -1.9681 -0.4730 -0.0875
   91MOL    H8521865   0.808   5.757   3.454  1.1344 -0.6763 -2.5821
   91MOL    O8621866   0.675   5.501   3.611 -0.2928 -0.2120 -0.6449
   91MOL    C8721867   0.574   5.462   3.701  0.6056 -0.4756 -0.2660
   91MOL    C8821868   0.528   5.313   3.656 -0.5654 -0.4362 -0.0486
   91MOL    C8921869   0.625   5.471   3.849 -0.3315 -0.2660  0.6359
   91MOL    C9021870   0.524   5.495   3.959  0.0250 -0.3743  0.3376
   91MOL    O9121871   0.411   5.514   3.927  0.0902 -0.3607  0.1197
   91MOL    H9221872   0.495   5.534   3.680  0.5671 -0.6445 -0.7044
   91MOL    H9321873   0.472   5.322   3.563  0.7987  0.5249 -0.7887
   91MOL    H9421874   0.467   5.269   3.735 -0.5159  0.9355  0.7819
   91MOL    H9521875   0.610   5.242   3.645  0.7920  1.4087 -2.1010
   91MOL    H9621876   0.696   5.553   3.859  0.4813 -0.6703 -1.4695
   91MOL    H9721877   0.683   5.381   3.867  1.3454  0.4786 -0.8970
   91MOL    O9821878   0.570   5.477   4.087 -0.3232 -0.1117  0.0762
   91MOL    C9921879   0.475   5.471   4.191 -0.1351  0.0237 -0.7839
   91MOL   C10021880   0.415   5.327   4.207 -0.0542  0.0150 -0.0066
   91MOL   C10121881   0.543   5.548   4.315 -0.3013 -0.2652  0.5723
   91MOL   C10221882   0.663   5.477   4.385  0.0791 -0.9433 -0.8217
   91MOL   O10321883   0.775   5.526   4.378 -0.4087 -0.1552  0.3587
   91MOL   H10421884   0.393   5.532   4.153 -0.3518  1.1667  1.4707
   91MOL   H10521885   0.388   5.297   4.308  1.2833 -0.4696  0.2231
   91MOL   H10621886   0.479   5.241   4.187  1.9890  1.4303  0.2177
   91MOL   H10721887   0.318   5.331   4.159 -0.0963 -1.6631 -0.0832
   91MOL   H10821888   0.461   5.563   4.384  0.7795 -0.4302  1.9127
   91MOL   H10921889   0.565   5.655   4.307  0.0442 -0.3005  1.0481
   91MOL   O11021890   0.620   5.380   4.467  0.2852 -0.0874  1.2094
   91MOL   C11121891   0.706   5.276   4.513  0.5482 -0.0859  0.2288
   91MOL   C11221892   0.763   5.319   4.653 -1.0275 -0.1808 -0.2196
   91MOL   C11321893   0.637   5.137   4.522 -0.6221 -0.4943  0.1827
   91MOL   C11421894   0.507   5.122   4.600 -0.0049  0.3478  0.1557
   91MOL   O11521895   0.403   5.172   4.560 -0.3632 -0.1072 -0.1476
   91MOL   H11621896   0.789   5.272   4.443  0.0376 -1.5345 -0.3092
   91MOL   H11721897   0.843   5.250   4.677  2.2072  3.0660 -1.2584
   91MOL   H11821898   0.684   5.319   4.729 -1.5046  0.0351 -0.7111
   91MOL   H11921899   0.818   5.413   4.653 -2.0886  0.4706  0.8715
   91MOL   H12021900   0.709   5.064   4.557  1.9254  0.6466 -2.5446
   91MOL   H12121901   0.614   5.110   4.419 -3.4191  3.1405 -0.2564
   91MOL   O12221902   0.521   5.068   4.719 -0.6968 -0.5389  0.9967
   91MOL   C12321903   0.419   5.065   4.822 -0.0884  0.8807 -0.4121
   91MOL   C12421904   0.316   4.959   4.792 -0.7982 -0.0798 -0.4060
   91MOL   C12521905   0.477   5.062   4.965  0.6015  0.1257 -0.8590
   91MOL   C12621906   0.548   5.192   4.995  0.5351 -0.2518 -0.1175
   91MOL   O12721907   0.660   5.193   5.037  0.4754 -0.4788  0.1809
   91MOL   H12821908   0.364   5.157   4.803  0.5012  1.1606 -0.8056
   91MOL   H12921909   0.233   4.953   4.862  0.7140 -1.4776  1.3422
   91MOL   H13021910   0.362   4.860   4.798  0.0721  0.2334 -1.7271
   91MOL   H13121911   0.265   4.966   4.697  0.8206 -0.2233 -1.3046
   91MOL   H13221912   0.551   4.983   4.979  1.2514  0.8096 -0.3936
   91MOL   H13321913   0.404   5.044   5.045 -0.1030 -0.1266 -1.5510
   91MOL   O13421914   0.474   5.301   4.976  0.2045  0.0069  0.0664
   91MOL   C13521915   0.520   5.429   5.003  0.1228 -0.6928  0.4898
   91MOL   C13621916   0.445   5.531   4.912 -0.1418 -0.7418  0.4462
   91MOL   C13721917   0.495   5.458   5.153 -0.7706 -0.1175 -0.0991
   91MOL   C13821918   0.348   5.452   5.196  0.1344  0.1777  0.1229
   91MOL   O13921919   0.278   5.552   5.193 -0.5911  0.3814  0.2856
   91MOL   H14021920   0.627   5.427   4.985 -0.0024  1.4454 -0.5480
   91MOL   H14121921   0.339   5.540   4.936 -0.3335  1.0066 -0.9590
   91MOL   H14221922   0.458   5.513   4.806 -0.4578  1.2338  0.0626
   91MOL   H14321923   0.486   5.628   4.939 -2.4965  0.6122 -0.7882
   91MOL   H14421924   0.526   5.560   5.177  0.1974 -0.3284 -0.4268
   91MOL   H14521925   0.561   5.393   5.211  1.1257  0.4521 -1.5711
   91MOL   O14621926   0.316   5.334   5.238  0.3916  0.4598  0.4155
   91MOL   C14721927   0.178   5.308   5.277  0.0289 -0.4019  0.1548
   91MOL   C14821928   0.143   5.195   5.182  0.0489 -0.2980  0.7920
   91MOL   C14921929   0.170   5.253   5.423  0.1421  0.2139  1.2385
   91MOL   C15021930   0.199   5.364   5.522 -0.0487  0.1012 -0.3513
   91MOL   O15121931   0.103   5.406   5.590 -0.1209 -0.1553 -0.3981
   91MOL   H15221932   0.119   5.398   5.263 -1.9328 -1.6438  0.2036
   91MOL   H15321933   0.052   5.140   5.208  0.5905 -1.8705 -0.6100
   91MOL   H15421934   0.214   5.113   5.178 -1.2688 -1.3523 -2.4043
   91MOL   H15521935   0.136   5.228   5.078  0.7499 -0.3181  0.7413
   91MOL   H15621936   0.253   5.186   5.444  0.8841 -0.2422 -2.7628
   91MOL   H15721937   0.068   5.218   5.439 -0.1624 -0.3165 -1.6494
   91MOL   O15821938   0.327   5.419   5.521 -0.4339  0.8806 -0.0271
   91MOL   C15921939   0.361   5.526   5.614  0.3612 -0.2988 -0.4791
   91MOL   C16021940   0.447   5.481   5.737 -0.3330 -0.2365 -0.6234
   91MOL   C16121941   0.438   5.636   5.541  0.0667  1.0010  0.3288
   91MOL   C16221942   0.348   5.747   5.489 -0.7277 -0.0567 -0.0444
   91MOL   O16321943   0.224   5.751   5.499 -0.2830  0.0781 -0.2764
   91MOL   H16421944   0.270   5.576   5.648  0.4362 -0.6182  0.1930
   91MOL   H16521945   0.392   5.415   5.804 -1.0947  0.0578 -0.9564
   91MOL   H16621946   0.458   5.574   5.794 -0.4590  0.2186 -1.3286
   91MOL   H16721947   0.550   5.449   5.724  0.3842  0.8527  2.0258
   91MOL   H16821948   0.492   5.590   5.459 -0.7310 -0.8131  0.7936
   91MOL   H16921949   0.503   5.682   5.616  1.1217  2.6920 -1.5813
   91MOL   O17021950   0.422   5.845   5.426  0.4429  0.0282  0.1462
   91MOL   C17121951   0.372   5.908   5.307  0.1142  0.4219  0.1989
   91MOL   C17221952   0.387   6.060   5.321 -0.0003 -0.6990  0.0885
   91MOL   C17321953   0.446   5.870   5.182 -0.1063 -0.3001  0.1815
   91MOL   C17421954   0.383   5.905   5.047 -0.3737 -0.3747 -0.0307
   91MOL   O17521955   0.449   5.937   4.946 -0.6290 -0.3543 -0.2387
   91MOL   H17621956   0.269   5.876   5.297  0.4910 -1.2066  1.2831
   91MOL   H17721957   0.308   6.105   5.382  0.8588  1.9761 -0.6957
   91MOL   H17821958   0.384   6.112   5.225  1.5004 -0.0591  0.3765
   91MOL   H17921959   0.484   6.094   5.356 -0.6470 -0.1411  1.3395
   91MOL   H18021960   0.474   5.765   5.190 -1.2644 -0.6947 -0.8150
   91MOL   H18121961   0.542   5.921   5.189 -1.2927  2.3411 -1.9193
   91MOL   O18221962   0.254   5.895   5.053  0.0311 -0.1913 -0.2012
   91MOL   C18321963   0.166   5.913   4.943 -0.7129  0.3367  0.6851
   91MOL   C18421964   0.143   5.784   4.861  0.6942 -0.1873  0.5372
   91MOL   C18521965   0.033   5.976   5.006 -0.6604  0.2756 -0.0593
   91MOL   C18621966   7.917   6.035   4.900  0.4002 -0.1594  0.0759
   91MOL   O18721967   7.895   6.152   4.888  0.1600  0.7515 -0.1902
   91MOL   H18821968   0.213   5.984   4.875  2.9019 -1.0445  1.6690
   91MOL   H18921969   0.096   5.710   4.925 -1.8246 -0.0460 -1.0850
   91MOL   H19021970   0.239   5.744   4.829  0.3564  0.5027 -1.4269
   91MOL   H19121971   0.074   5.801   4.778  1.5579  2.0769  0.2430
   91MOL   H19221972   0.059   6.060   5.070  2.1828 -0.0988 -0.6845
   91MOL   H19321973   7.962   5.897   5.063 -0.3304  1.2629  1.6261
   91MOL   O19421974   7.842   5.937   4.832  0.1043  0.1042  0.0288
   91MOL   C19521975   7.752   5.970   4.723  0.0041  0.3500 -0.6041
   91MOL   C19621976   7.825   5.918   4.594 -0.1527 -0.4320  0.1721
   91MOL   C19721977   7.612   5.906   4.742 -0.0662 -0.4296  0.0378
   91MOL   C19821978   7.496   5.960   4.660  0.4046  0.6853 -0.6194
   91MOL   O19921979   7.523   6.043   4.572 -0.2165 -0.0335  0.4441
   91MOL   H20021980   7.740   6.078   4.727  2.3862  0.6180  0.8238
   91MOL   H20121981   7.769   5.927   4.501 -0.1459  2.0001  0.3763
   91MOL   H20221982   7.852   5.812   4.595  0.6273 -0.2619  3.2554
   91MOL   H20321983   7.918   5.973   4.582 -0.2381 -0.3601 -0.1753
   91MOL   H20421984   7.584   5.902   4.847 -1.5637  0.1599 -0.3231
   91MOL   H20521985   7.630   5.804   4.708 -1.1380 -0.7453  0.3937
   91MOL   O20621986   7.374   5.909   4.694  0.2060  0.3582 -0.6992
   91MOL   C20721987   7.261   5.950   4.615  0.1141 -0.7683 -0.2207
   91MOL   C20821988   7.155   5.840   4.629 -0.5756 -0.3074 -0.3283
   91MOL   C20921989   7.205   6.086   4.660  0.3219  0.1864 -0.3614
   91MOL   C21021990   7.109   6.168   4.573 -0.0678  0.0737  0.5386
   91MOL   O21121991   7.048   6.113   4.482 -0.0361 -0.3595 -0.7899
   91MOL   H21221992   7.286   5.949   4.509  2.5157 -1.2164  0.3170
   91MOL   H21321993   7.133   5.816   4.734  1.0376  0.8530  0.2884
   91MOL   H21421994   7.186   5.749   4.578  0.7209 -0.5692  0.8962
   91MOL   H21521995   7.058   5.872   4.589 -0.7494  0.5910  0.7888
   91MOL   H21621996   7.293   6.148   4.676 -0.2359  1.1416 -0.9451
   91MOL   H21721997   7.151   6.067   4.753  2.0556 -1.4324  0.3389
   91MOL   O21821998   7.124   6.303   4.596  0.2371  0.3056 -0.0909
   91MOL   C21921999   7.055   6.410   4.522  0.3713 -0.0045 -0.4700
   91MOL   C22022000   7.007   6.501   4.629  0.2788  0.3531 -0.9503
   91MOL   C22122001   7.155   6.494   4.442 -0.1340  0.1286 -0.1783
   91MOL   C22222002   7.151   6.437   4.297 -0.4604 -0.2279 -0.1718
   91MOL   O22322003   7.066   6.470   4.219  0.1149 -0.4354 -0.1593
   91MOL   H22422004   6.972   6.368   4.465  0.8523 -0.7152 -0.6468
   91MOL   H22522005   7.083   6.553   4.686  0.3875 -0.7537 -0.0595
   91MOL   H22622006   6.950   6.440   4.699  1.3333  2.2344  1.5884
   91MOL   H22722007   6.942   6.579   4.591 -0.5822 -0.1095 -0.4469
   91MOL   H22822008   7.257   6.486   4.478 -0.7030  2.1432  2.0078
   91MOL   H22922009   7.130   6.600   4.447 -0.1438  0.0762  0.9301
   91MOL   O23022010   7.233   6.332   4.279 -0.3314  0.2174  0.4702
   91MOL   C23122011   7.245   6.250   4.165  0.4310 -0.1203  0.9500
   91MOL   C23222012   7.344   6.317   4.062  0.6723 -0.6919 -0.6742
   91MOL   C23322013   7.287   6.101   4.200  0.0195  0.4063 -0.1571
   91MOL   C23422014   7.439   6.080   4.233  0.5099 -0.7185  0.6133
   91MOL   O23522015   7.496   5.980   4.193 -0.3235  0.7322  0.1799
   91MOL   H23622016   7.142   6.251   4.131  1.0114 -0.4153 -0.8244
   91MOL   H23722017   7.326   6.422   4.039  0.3142 -0.7961 -0.8803
   91MOL   H23822018   7.350   6.252   3.975 -0.2005 -0.9907 -0.5189
   91MOL   H23922019   7.451   6.307   4.079  0.7375  0.9862 -0.0074
   91MOL   H24022020   7.282   6.042   4.109 -0.9310  2.7136 -1.6499
   91MOL   H24122021   7.225   6.059   4.279 -0.4773 -1.5860 -1.5734
   91MOL   H24222022   7.482   6.161   4.293 -0.8026  0.6788 -0.2923
   92MOL     O122023   7.536   1.756   4.280  0.1058  0.1252  0.8385
   92MOL     C222024   7.530   1.829   4.152  0.1134  0.6391  0.0756
   92MOL     C322025   7.391   1.892   4.146  0.3456  0.2576  0.3487
   92MOL     C422026   7.630   1.943   4.157 -0.1230 -0.1060 -0.1436
   92MOL     C522027   7.641   2.019   4.023  0.5745 -0.1770  0.8592
   92MOL     O622028   7.608   1.964   3.917  0.0403 -0.2275 -0.2637
   92MOL     H722029   7.546   1.762   4.067  0.3087 -1.0019  1.3644
   92MOL     H822030   7.312   1.817   4.139 -0.9375  1.4979  1.1009
   92MOL     H922031   7.379   1.957   4.059  0.2058  0.2235  0.3427
   92MOL    H1022032   7.376   1.952   4.236  0.7183  0.7398  0.0913
   92MOL    H1122033   7.730   1.900   4.169 -0.0496  0.1090  0.0237
   92MOL    H1222034   7.616   2.021   4.232 -0.3585  0.8538 -1.1588
   92MOL    H1322035   7.480   1.681   4.267  1.0338 -0.1658 -1.9008
   92MOL    O1422036   7.707   2.129   4.043  0.0148 -0.0672  0.1625
   92MOL    C1522037   7.760   2.204   3.931 -0.5298  0.0009 -0.5186
   92MOL    C1622038   7.793   2.345   3.986 -0.3285  0.0985  0.8175
   92MOL    C1722039   7.883   2.123   3.876  0.0778  0.2023 -1.0425
   92MOL    C1822040   7.913   2.165   3.732  0.2138  0.1556 -0.3511
   92MOL    O1922041   0.043   2.222   3.709  0.0336 -0.2475  0.2495
   92MOL    H2022042   7.682   2.227   3.858 -0.3821 -1.0573 -1.0183
   92MOL    H2122043   7.838   2.400   3.903  2.0943  1.0763  2.7086
   92MOL    H2222044   7.854   2.355   4.076 -0.5376  1.1829  0.8447
   92MOL    H2322045   7.703   2.403   4.005  0.0241  1.3237 -1.0847
   92MOL    H2422046   7.859   2.018   3.862  0.0516 -0.0322  0.6636
   92MOL    H2522047   7.964   2.147   3.946 -0.7040  2.8064 -0.9576
   92MOL    O2622048   7.812   2.139   3.642  0.3352  0.4254  0.5099
   92MOL    C2722049   7.815   2.189   3.508  0.3246  1.0835  0.2315
   92MOL    C2822050   7.722   2.116   3.411  0.1081  0.0826  0.2632
   92MOL    C2922051   7.771   2.337   3.508 -0.1456  0.0390 -0.6284
   92MOL    C3022052   7.868   2.444   3.462  0.4871  0.3442  0.4544
   92MOL    O3122053   7.853   2.492   3.353  0.1582 -1.0597 -0.3130
   92MOL    H3222054   7.914   2.176   3.464 -0.0141  0.8504 -0.4770
   92MOL    H3322055   7.739   2.155   3.311  1.6645  0.6275  0.7235
   92MOL    H3422056   7.618   2.143   3.428 -0.5916 -1.3093 -1.5859
   92MOL    H3522057   7.730   2.007   3.409  1.9554  0.2113 -0.3044
   92MOL    H3622058   7.743   2.351   3.613 -2.5290 -1.2961 -1.0337
   92MOL    H3722059   7.675   2.348   3.456 -1.3299 -0.5068  1.3675
   92MOL    O3822060   7.952   2.481   3.563 -0.1631 -0.1887  0.1100
   92MOL    C3922061   0.085   2.574   3.541  0.5419  0.5830  0.6405
   92MOL    C4022062   0.042   2.713   3.482 -0.6663 -0.0310  0.3159
   92MOL    C4122063   0.154   2.595   3.676 -0.6122  0.1282  1.0081
   92MOL    C4222064   0.259   2.500   3.722 -0.7596  0.3136  0.2665
   92MOL    O4322065   0.345   2.460   3.643 -0.4806  0.3572  0.2137
   92MOL    H4422066   0.163   2.529   3.480  2.8162 -0.1050  3.9356
   92MOL    H4522067   0.135   2.768   3.462 -1.8741  0.7150 -3.6796
   92MOL    H4622068   7.944   2.762   3.541 -1.2663 -0.0538 -0.4563
   92MOL    H4722069   7.966   2.703   3.390 -0.3772 -1.4633  0.2972
   92MOL    H4822070   0.081   2.592   3.757 -0.7425  0.9669  0.9187
   92MOL    H4922071   0.211   2.688   3.670  2.6461 -1.7629  1.2167
   92MOL    O5022072   0.239   2.458   3.852  0.8907 -0.4980 -0.2885
   92MOL    C5122073   0.312   2.342   3.905 -0.1003 -0.3885 -0.2136
   92MOL    C5222074   0.455   2.365   3.936 -0.2804 -0.0415  0.7420
   92MOL    C5322075   0.237   2.283   4.019  0.0536 -0.1264 -0.2501
   92MOL    C5422076   0.256   2.136   4.046 -0.4292  0.4568  0.4539
   92MOL    O5522077   0.345   2.065   3.996 -0.1701 -0.3856 -0.0231
   92MOL    H5622078   0.309   2.270   3.824 -0.5951  1.9238 -2.2819
   92MOL    H5722079   0.478   2.443   4.008  1.3810  0.8572 -0.6975
   92MOL    H5822080   0.524   2.389   3.855  1.4002  0.4843  2.2924
   92MOL    H5922081   0.502   2.269   3.958  0.1205 -0.3030 -1.0921
   92MOL    H6022082   0.131   2.297   4.001  0.4335  0.2421 -2.3060
   92MOL    H6122083   0.250   2.333   4.115  0.8751 -0.7350 -0.0330
   92MOL    O6222084   0.154   2.094   4.129  0.2372  0.4531  0.1077
   92MOL    C6322085   0.143   1.960   4.175  0.0197  0.4168  0.2837
   92MOL    C6422086   0.084   1.954   4.316  0.8349  0.0337 -0.2081
   92MOL    C6522087   0.079   1.868   4.068 -0.6363 -0.2513  0.2329
   92MOL    C6622088   0.072   1.718   4.100  0.7616  0.5418  0.3466
   92MOL    O6722089   7.975   1.678   4.183 -0.6122 -0.1686  0.4204
   92MOL    H6822090   0.243   1.918   4.189 -0.0691  0.6341  1.6492
   92MOL    H6922091   0.040   1.862   4.355  0.9628 -0.1253 -0.4432
   92MOL    H7022092   0.003   2.026   4.334 -0.6920 -1.9633  1.2939
   92MOL    H7122093   0.159   1.987   4.387  0.9369 -0.2519 -0.1823
   92MOL    H7222094   0.135   1.881   3.975 -0.5788  1.2153  0.4637
   92MOL    H7322095   7.955   1.902   4.064 -0.6019 -0.2299 -0.6745
   92MOL    O7422096   0.171   1.645   4.027 -0.1844  0.4822  0.0175
   92MOL    C7522097   0.176   1.503   4.054 -0.0917 -0.0503 -0.2170
   92MOL    C7622098   0.244   1.441   3.932  0.3861  0.5744  0.6860
   92MOL    C7722099   0.254   1.474   4.180 -0.2875  0.6906 -0.5920
   92MOL    C7822100   0.249   1.333   4.242  0.1458 -0.6772  0.4290
   92MOL    O7922101   0.180   1.296   4.339  0.1046 -0.1695  0.2354
   92MOL    H8022102   0.080   1.452   4.061  0.5419 -1.1722  0.4732
   92MOL    H8122103   0.283   1.339   3.945  0.2342  0.5069  0.6065
   92MOL    H8222104   0.313   1.511   3.884  1.6273 -0.9839  0.1359
   92MOL    H8322105   0.171   1.419   3.854  0.7419 -0.0782  0.5279
   92MOL    H8422106   0.225   1.544   4.259 -2.1984 -0.4796 -0.2088
   92MOL    H8522107   0.356   1.507   4.160 -0.9487  1.5875 -2.6431
   92MOL    O8622108   0.359   1.270   4.191 -0.1879 -0.4531  0.2874
   92MOL    C8722109   0.420   1.155   4.247 -0.0209 -1.0401  0.2786
   92MOL    C8822110   0.354   1.030   4.185 -0.6229 -0.1157  0.2639
   92MOL    C8922111   0.570   1.154   4.229  0.4215 -0.0616 -0.2718
   92MOL    C9022112   0.656   1.238   4.323 -0.1645 -0.8295  0.4655
   92MOL    O9122113   0.617   1.347   4.372 -0.5798 -0.8742  0.2216
   92MOL    H9222114   0.398   1.151   4.354  1.0924 -0.4029  0.5323
   92MOL    H9322115   0.246   1.018   4.195 -0.2948 -2.9562  0.8433
   92MOL    H9422116   0.394   0.938   4.229 -0.1879  0.8176  1.8451
   92MOL    H9522117   0.379   1.031   4.079 -1.4291 -2.4989  0.0141
   92MOL    H9622118   0.602   1.196   4.133 -0.2519  0.8638 -0.1004
   92MOL    H9722119   0.617   1.057   4.241 -0.4270 -0.4320  0.0965
   92MOL    O9822120   0.787   1.194   4.339 -0.0572 -0.3354  0.1799
   92MOL    C9922121   0.888   1.268   4.406 -0.5181  0.3174 -0.8506
   92MOL   C10022122   0.981   1.157   4.455  0.1274 -0.5906 -0.0075
   92MOL   C10122123   0.957   1.367   4.308  0.4180 -0.4234 -0.3774
   92MOL   C10222124   1.053   1.455   4.394  0.2918  0.4285 -0.9141
   92MOL   O10322125   1.177   1.438   4.394 -0.0910 -0.2345  0.1297
   92MOL   H10422126   0.848   1.331   4.486  0.8038  1.5743 -1.1715
   92MOL   H10522127   1.074   1.191   4.499  0.1996  0.7435 -1.1600
   92MOL   H10622128   1.014   1.082   4.384 -0.2676 -0.7439 -0.0313
   92MOL   H10722129   0.914   1.104   4.522  0.0363 -0.3263  0.1110
   92MOL   H10822130   0.870   1.419   4.267  0.1570 -1.4279 -1.1116
   92MOL   H10922131   1.019   1.322   4.230  2.8654  0.4400  0.9930
   92MOL   O11022132   0.972   1.537   4.462 -0.2725 -0.3571 -0.4779
   92MOL   C11122133   1.027   1.606   4.573  0.6804 -0.3815  0.1402
   92MOL   C11222134   1.073   1.745   4.534 -1.0088  0.2839 -0.2234
   92MOL   C11322135   0.907   1.612   4.675  0.2449  0.4426  0.6409
   92MOL   C11422136   0.947   1.573   4.816 -0.4165  0.1911 -0.6736
   92MOL   O11522137   1.062   1.605   4.857  0.0233 -0.2968  0.2575
   92MOL   H11622138   1.105   1.546   4.621  1.6189 -0.0226 -0.8987
   92MOL   H11722139   1.093   1.800   4.625  1.4742 -0.6479 -0.1758
   92MOL   H11822140   0.993   1.793   4.478  0.9524  1.7654 -1.8105
   92MOL   H11922141   1.164   1.749   4.475 -0.9387  0.7955 -0.0824
   92MOL   H12022142   0.836   1.537   4.639  0.4059  1.0317 -0.9389
   92MOL   H12122143   0.855   1.707   4.683  0.7831  0.5787  2.7675
   92MOL   O12222144   0.845   1.519   4.885  0.1558 -0.3641 -0.3589
   92MOL   C12322145   0.867   1.472   5.018  0.1863 -0.6801 -0.2272
   92MOL   C12422146   0.739   1.511   5.097 -0.9568  0.2865  1.1540
   92MOL   C12522147   0.894   1.319   5.014  0.5246 -0.3947  0.5001
   92MOL   C12622148   0.981   1.264   5.126  0.4044  0.3165 -0.8329
   92MOL   O12722149   1.065   1.327   5.189 -0.5180  0.2577 -0.5136
   92MOL   H12822150   0.941   1.533   5.069 -0.4822 -2.3247  2.7971
   92MOL   H12922151   0.647   1.482   5.048  1.1937 -2.1107 -1.6481
   92MOL   H13022152   0.739   1.620   5.101  1.7430  0.4116 -0.9096
   92MOL   H13122153   0.751   1.476   5.200  1.5329 -0.9765  0.4908
   92MOL   H13222154   0.951   1.303   4.923  0.1548 -1.6659  0.4851
   92MOL   H13322155   0.803   1.268   4.982  2.0679 -1.1356 -2.8758
   92MOL   O13422156   0.952   1.133   5.156  0.6446 -0.1524  0.1198
   92MOL   C13522157   0.994   1.077   5.274 -0.1107 -0.3124  0.2145
   92MOL   C13622158   0.912   1.132   5.397  0.5742 -0.1418 -0.3599
   92MOL   C13722159   0.963   0.926   5.253 -0.7380  0.1874 -0.4575
   92MOL   C13822160   1.007   0.839   5.366  0.2668 -0.4516  0.0466
   92MOL   O13922161   0.925   0.778   5.441 -0.1612  0.8506  0.6582
   92MOL   H14022162   1.098   1.107   5.283 -0.7940  1.6144  1.9830
   92MOL   H14122163   0.806   1.151   5.377  0.6231 -1.0530 -1.4892
   92MOL   H14222164   0.948   1.229   5.433 -2.1532  0.7044  0.2349
   92MOL   H14322165   0.918   1.077   5.492  3.2438  4.1276  2.1075
   92MOL   H14422166   0.999   0.889   5.157 -3.9853  1.7304 -2.3719
   92MOL   H14522167   0.855   0.917   5.260 -0.7273  0.1453 -0.3535
   92MOL   O14622168   1.135   0.828   5.382  0.6084  0.3878  0.2441
   92MOL   C14722169   1.197   0.747   5.485  0.1745  0.4211 -0.4974
   92MOL   C14822170   1.323   0.676   5.427 -0.1654 -0.4197 -0.1898
   92MOL   C14922171   1.236   0.831   5.611 -0.0199 -0.0830  0.0559
   92MOL   C15022172   1.346   0.931   5.587  0.2219  0.2029  0.3761
   92MOL   O15122173   1.466   0.893   5.587 -0.2708  0.3021 -0.2109
   92MOL   H15222174   1.139   0.667   5.532  0.5922 -0.0361 -0.7507
   92MOL   H15322175   1.385   0.742   5.366 -1.4192 -1.5905 -2.8590
   92MOL   H15422176   1.293   0.588   5.370 -1.2482 -1.9067  2.5809
   92MOL   H15522177   1.378   0.640   5.513  1.7715 -1.1240 -1.6780
   92MOL   H15622178   1.263   0.767   5.695 -0.3714  0.1737  0.3719
   92MOL   H15722179   1.156   0.897   5.647  0.9835  0.4979  1.2489
   92MOL   O15822180   1.290   1.051   5.564 -0.2474 -0.3861 -0.0654
   92MOL   C15922181   1.374   1.164   5.555 -0.2232 -0.1369 -0.3373
   92MOL   C16022182   1.349   1.218   5.410 -0.5343  0.8490  0.0267
   92MOL   C16122183   1.324   1.267   5.655  0.7441  0.6146  0.3868
   92MOL   C16222184   1.353   1.231   5.804 -0.6070  0.5086  0.1737
   92MOL   O16322185   1.407   1.304   5.893  0.6507  0.7101  0.4606
   92MOL   H16422186   1.477   1.145   5.585  0.8553  0.4225 -3.4637
   92MOL   H16522187   1.373   1.136   5.342  0.9559  1.1776  0.1394
   92MOL   H16622188   1.392   1.312   5.375  1.2058 -0.1002 -0.4358
   92MOL   H16722189   1.244   1.239   5.388 -0.8829 -3.0876 -2.3991
   92MOL   H16822190   1.215   1.261   5.653  0.7957 -0.1947 -0.1541
   92MOL   H16922191   1.360   1.366   5.628  0.3233  0.6712  0.0238
   92MOL   O17022192   1.296   1.111   5.835  0.5037  0.3022  0.5069
   92MOL   C17122193   1.291   1.071   5.971  0.0525  0.1534 -0.0152
   92MOL   C17222194   1.184   0.952   5.984  0.2818 -0.3263  0.7759
   92MOL   C17322195   1.437   1.024   6.017  0.2185 -0.5234 -0.2210
   92MOL   C17422196   1.450   1.025   6.168 -0.8096 -0.3044 -0.1928
   92MOL   O17522197   1.511   1.117   6.225 -0.0292  0.2014 -0.4071
   92MOL   H17622198   1.253   1.161   6.017 -0.4495 -0.2731  0.4156
   92MOL   H17722199   1.191   0.872   5.910 -1.5930 -1.0593  1.3713
   92MOL   H17822200   1.085   0.987   5.955  0.3650 -0.7218 -0.0167
   92MOL   H17922201   1.178   0.912   6.085 -0.1640  2.4617  1.8886
   92MOL   H18022202   1.515   1.090   5.978  1.0306 -0.8425  0.8463
   92MOL   H18122203   1.439   0.921   5.983 -1.2689 -0.4832 -0.4742
   92MOL   O18222204   1.405   0.910   6.218  0.1317 -0.4343 -0.0510
   92MOL   C18322205   1.411   0.891   6.358  0.3793 -0.1158 -0.2315
   92MOL   C18422206   1.260   0.882   6.394 -1.0363 -0.2012  0.2193
   92MOL   C18522207   1.496   0.768   6.404  0.0639  0.0954  0.2035
   92MOL   C18622208   1.525   0.762   6.552 -0.9342 -0.4933  0.7526
   92MOL   O18722209   1.447   0.703   6.635  0.4548 -0.1086  0.0099
   92MOL   H18822210   1.438   0.978   6.418  0.5565  0.7743 -1.5803
   92MOL   H18922211   1.228   0.986   6.394  0.7150  0.3559 -0.6333
   92MOL   H19022212   1.231   0.851   6.494  0.6787 -0.4477  0.6565
   92MOL   H19122213   1.199   0.829   6.320  0.4173 -3.2979  1.1449
   92MOL   H19222214   1.576   0.738   6.336 -1.0910 -0.2762 -1.0361
   92MOL   H19322215   1.436   0.678   6.404 -2.0055  1.4466  1.2973
   92MOL   O19422216   1.633   0.841   6.578 -0.0111  0.0603 -0.0283
   92MOL   C19522217   1.675   0.874   6.709 -0.6495 -0.1270  0.0790
   92MOL   C19622218   1.800   0.788   6.741  0.0643 -0.1811  0.0782
   92MOL   C19722219   1.691   1.026   6.718  0.0324  0.1253  0.5160
   92MOL   C19822220   1.730   1.082   6.858  0.6590  0.0066 -0.0856
   92MOL   O19922221   1.795   1.185   6.863  0.4810  0.0027 -0.0086
   92MOL   H20022222   1.595   0.833   6.771  0.6224 -1.8296  0.6390
   92MOL   H20122223   1.807   0.769   6.848 -0.6660 -0.3897  0.0908
   92MOL   H20222224   1.890   0.841   6.710 -0.5528  1.8009  1.5153
   92MOL   H20322225   1.813   0.691   6.694 -0.2125 -0.5579  0.7831
   92MOL   H20422226   1.594   1.063   6.685 -0.1175 -0.5335  0.2215
   92MOL   H20522227   1.769   1.048   6.645 -0.7187 -1.0452 -0.6579
   92MOL   O20622228   1.683   1.005   6.970 -0.2995  0.3148 -0.2969
   92MOL   C20722229   1.728   1.043   7.098 -0.5526  0.2616  0.2546
   92MOL   C20822230   1.616   1.061   7.192  0.5446 -0.1308  0.3873
   92MOL   C20922231   1.846   0.954   7.144  0.0980  0.6897  0.2012
   92MOL   C21022232   1.920   1.015   7.266 -0.4439  0.3220  0.2810
   92MOL   O21122233   1.919   0.960   7.376 -0.1734  0.5105 -0.1591
   92MOL   H21222234   1.771   1.143   7.091  1.5307 -0.5047  1.5895
   92MOL   H21322235   1.531   1.123   7.164 -0.2408 -0.9783  0.9098
   92MOL   H21422236   1.650   1.102   7.287  2.5245 -0.7590 -0.0081
   92MOL   H21522237   1.581   0.961   7.215  1.5096 -0.9094 -1.3787
   92MOL   H21622238   1.915   0.936   7.062 -2.0671  0.2741 -1.5856
   92MOL   H21722239   1.807   0.857   7.175  2.8600 -0.3492  0.6153
   92MOL   O21822240   1.986   1.120   7.220  0.2079  0.7401 -0.0343
   92MOL   C21922241   2.060   1.207   7.309 -0.4018 -0.5725  0.4622
   92MOL   C22022242   2.214   1.181   7.291  0.5996 -0.0137  0.1775
   92MOL   C22122243   2.030   1.352   7.277  0.3463 -0.2609 -0.8510
   92MOL   C22222244   1.889   1.397   7.307 -0.2031 -0.6044 -0.3274
   92MOL   O22322245   1.827   1.342   7.399  0.1539  0.5999  0.3838
   92MOL   H22422246   2.026   1.188   7.411  3.1442 -1.0538  1.6239
   92MOL   H22522247   2.245   1.237   7.203 -1.0216  0.1940 -0.2786
   92MOL   H22622248   2.235   1.075   7.277  1.4876  0.5173 -2.8566
   92MOL   H22722249   2.278   1.219   7.371  0.6610  0.9165 -0.2980
   92MOL   H22822250   2.050   1.393   7.178  3.2461  0.4454 -0.0350
   92MOL   H22922251   2.091   1.412   7.346 -0.5622  1.7129 -1.7203
   92MOL   O23022252   1.835   1.493   7.235  0.0357  0.0300  0.2454
   92MOL   C23122253   1.704   1.535   7.257 -0.4693 -0.0748 -0.2225
   92MOL   C23222254   1.705   1.652   7.364  0.0846  0.0590 -0.1940
   92MOL   C23322255   1.649   1.583   7.125 -0.8316  0.5120 -0.1998
   92MOL   C23422256   1.648   1.462   7.022 -0.3553 -0.4273 -1.0264
   92MOL   O23522257   1.592   1.360   7.062 -0.1623 -0.5902  0.6348
   92MOL   H23622258   1.642   1.455   7.295  0.0154  0.5491  1.9559
   92MOL   H23722259   1.797   1.709   7.375 -0.7820  1.2575  1.0275
   92MOL   H23822260   1.698   1.616   7.466  3.1370 -1.6356 -0.5412
   92MOL   H23922261   1.632   1.730   7.339  1.1889  0.3493 -2.6865
   92MOL   H24022262   1.716   1.664   7.095 -1.5922  1.3008  0.1936
   92MOL   H24122263   1.549   1.625   7.137 -0.4104  1.4625  0.0264
   92MOL   H24222264   1.689   1.467   6.921  0.3126  0.6250 -0.7119
   93MOL     O122265   5.936   0.591   7.887 -0.1565 -0.4341 -0.1605
   93MOL     C222266   5.837   0.635   7.974 -0.3513 -0.2529 -0.5374
   93MOL     C322267   5.750   0.516   0.029 -0.4848 -0.3524 -0.8341
   93MOL     C422268   5.892   0.708   0.117 -0.2072 -0.1971  0.0479
   93MOL     C522269   5.794   0.807   0.181 -0.0452 -0.4943  0.2625
   93MOL     O622270   5.698   0.774   0.250 -0.3584  0.1342 -0.0338
   93MOL     H722271   5.771   0.705   7.924  0.0189  0.4279 -0.0905
   93MOL     H822272   5.707   0.469   7.920  1.0321  0.0904 -1.8324
   93MOL     H922273   5.659   0.549   0.079 -0.8234 -1.7427 -0.4954
   93MOL    H1022274   5.792   0.453   0.106 -0.0917  1.5514  0.5381
   93MOL    H1122275   5.971   0.771   0.076 -0.2556  0.8093  1.4450
   93MOL    H1222276   5.939   0.637   0.186  0.0634 -1.2278 -1.1713
   93MOL    H1322277   5.896   0.586   7.802 -0.6568 -0.1123  0.0504
   93MOL    O1422278   5.829   0.939   0.155 -0.2525  0.0519  0.0710
   93MOL    C1522279   5.749   1.041   0.208 -0.2151  0.1345 -0.0213
   93MOL    C1622280   5.840   1.129   0.284  0.4493  0.1907  0.3494
   93MOL    C1722281   5.686   1.120   0.093  0.3228  0.4658  0.6547
   93MOL    C1822282   5.543   1.090   0.059  0.2358 -0.0632  0.4746
   93MOL    O1922283   5.469   1.179   0.029  0.3072  0.1390  0.3689
   93MOL    H2022284   5.667   1.008   0.271  0.4338  0.1700  0.8460
   93MOL    H2122285   5.780   1.207   0.332 -0.2164 -0.1920  0.1413
   93MOL    H2222286   5.892   1.188   0.209 -0.8732 -1.1922 -1.6933
   93MOL    H2322287   5.914   1.085   0.350  0.4598 -0.6595 -0.2206
   93MOL    H2422288   5.735   1.104   7.976 -2.6116 -1.1115 -0.6322
   93MOL    H2522289   5.698   1.226   0.113  0.1070  0.9467 -1.6242
   93MOL    O2622290   5.505   0.961   0.065  0.3696  0.1962  0.0222
   93MOL    C2722291   5.406   0.903   7.958  0.3596  0.2096 -0.0215
   93MOL    C2822292   5.450   0.917   7.807  0.3055  0.6262  0.5836
   93MOL    C2922293   5.385   0.751   0.024  0.6279  0.7462  0.2182
   93MOL    C3022294   5.324   0.732   0.163 -0.3474 -0.1981 -1.1085
   93MOL    O3122295   5.209   0.689   0.169 -0.5611  0.1698 -0.0845
   93MOL    H3222296   5.306   0.944   7.973  0.1433 -0.8517  1.5484
   93MOL    H3322297   5.541   0.860   7.787 -1.0937 -1.1472 -0.9186
   93MOL    H3422298   5.481   1.017   7.777  1.5790  0.9147  2.7622
   93MOL    H3522299   5.374   0.880   7.738  0.5190  1.0562  0.1188
   93MOL    H3622300   5.483   0.704   0.015 -0.1798 -0.6287 -1.7517
   93MOL    H3722301   5.322   0.701   7.930  3.7669 -1.0849 -1.3218
   93MOL    O3822302   5.405   0.775   0.267 -0.2647  0.3425 -0.3854
   93MOL    C3922303   5.365   0.754   0.404 -0.1049 -0.3945 -0.1181
   93MOL    C4022304   5.441   0.633   0.455 -0.6620 -0.6302 -0.0652
   93MOL    C4122305   5.394   0.880   0.491 -0.2765 -0.6124 -0.0739
   93MOL    C4222306   5.296   0.990   0.457 -0.9071  0.1794  0.5340
   93MOL    O4322307   5.219   0.984   0.358  0.1068 -0.5319  0.7014
   93MOL    H4422308   5.261   0.723   0.410 -0.1689 -0.7665 -2.8121
   93MOL    H4522309   5.546   0.650   0.434 -1.1945  0.9617 -1.5966
   93MOL    H4622310   5.406   0.548   0.396 -0.8860 -0.2047 -0.5543
   93MOL    H4722311   5.424   0.623   0.562  2.9949  0.9969  0.7252
   93MOL    H4822312   5.497   0.916   0.490 -0.3247 -0.4571  0.7607
   93MOL    H4922313   5.385   0.853   0.596 -0.4895  0.8492  0.2949
   93MOL    O5022314   5.306   1.091   0.539  0.3459 -0.4776 -0.1362
   93MOL    C5122315   5.220   1.201   0.533  0.0498 -0.2670  0.1923
   93MOL    C5222316   5.108   1.187   0.638 -0.3031  0.7178 -0.1696
   93MOL    C5322317   5.299   1.326   0.559  0.0958 -0.3631 -0.2526
   93MOL    C5422318   5.388   1.370   0.444  0.1420 -0.2605  0.0737
   93MOL    O5522319   5.413   1.287   0.354  0.5371  0.4098 -0.2172
   93MOL    H5622320   5.172   1.207   0.436 -0.1611  1.0765  0.3600
   93MOL    H5722321   5.043   1.274   0.654 -0.4968  0.2014  1.9620
   93MOL    H5822322   5.147   1.151   0.733  1.1315 -0.0635 -1.0489
   93MOL    H5922323   5.036   1.113   0.602  0.8670 -0.2226 -0.5829
   93MOL    H6022324   5.365   1.327   0.646 -1.4376 -0.2193  0.9281
   93MOL    H6122325   5.229   1.409   0.565 -0.1344 -0.4748 -1.3086
   93MOL    O6222326   5.427   1.500   0.450  0.6368 -0.1841 -0.0440
   93MOL    C6322327   5.490   1.561   0.344 -0.4135  0.2391  0.1489
   93MOL    C6422328   5.442   1.710   0.340  0.5367  0.4977  0.1596
   93MOL    C6522329   5.642   1.550   0.348  0.1659 -0.2180 -0.1062
   93MOL    C6622330   5.719   1.605   0.467 -0.5241 -0.3527 -0.3769
   93MOL    O6722331   5.664   1.672   0.553  0.2272 -0.1996 -0.1040
   93MOL    H6822332   5.460   1.509   0.254  0.5586  1.7842 -1.0932
   93MOL    H6922333   5.339   1.715   0.304 -0.0482 -0.8164  1.5551
   93MOL    H7022334   5.510   1.770   0.281 -0.9978  1.4811 -0.6480
   93MOL    H7122335   5.435   1.749   0.442  0.6574  0.3609  0.2206
   93MOL    H7222336   5.685   1.583   0.254  0.2031 -1.2101 -0.4448
   93MOL    H7322337   5.655   1.442   0.343 -0.4120 -0.4322  2.3579
   93MOL    O7422338   5.852   1.568   0.462  0.6665 -0.1256  0.0932
   93MOL    C7522339   5.944   1.580   0.572  0.0476 -0.2072 -0.2019
   93MOL    C7622340   5.959   1.443   0.644 -0.3673  0.1037 -0.1426
   93MOL    C7722341   6.073   1.641   0.517  0.0922  0.2908 -0.1599
   93MOL    C7822342   6.062   1.793   0.489  0.4714  0.5183  0.1570
   93MOL    O7922343   6.112   1.875   0.568  0.6332  0.6684  0.5788
   93MOL    H8022344   5.894   1.650   0.639 -0.9319  0.8427 -1.9713
   93MOL    H8122345   5.983   1.360   0.577 -2.3309 -2.3039  2.0027
   93MOL    H8222346   5.856   1.420   0.673 -0.3539 -0.6554 -0.6676
   93MOL    H8322347   6.018   1.452   0.735  1.5554 -3.0410 -1.0004
   93MOL    H8422348   6.110   1.599   0.423 -1.3430 -1.6799  0.1156
   93MOL    H8522349   6.153   1.631   0.590  0.5298 -1.8801 -0.8712
   93MOL    O8622350   6.011   1.828   0.374 -0.1904  0.2521 -1.2338
   93MOL    C8722351   6.033   1.955   0.315  0.0322 -0.1892  0.1783
   93MOL    C8822352   6.118   1.942   0.186  0.2703  0.0297 -0.4253
   93MOL    C8922353   5.902   2.021   0.304 -0.0965  0.7668 -0.7851
   93MOL    C9022354   5.793   1.954   0.219  0.4984  0.3449  0.3274
   93MOL    O9122355   5.702   1.894   0.275  0.1705 -0.3942 -0.1332
   93MOL    H9222356   6.097   2.019   0.376  2.0474 -0.6810 -1.3768
   93MOL    H9322357   6.212   1.887   0.190  2.2650  3.2465 -0.5899
   93MOL    H9422358   6.141   2.035   0.134  1.0814 -0.0831 -0.2782
   93MOL    H9522359   6.051   1.889   0.120 -0.0488 -0.5132  0.3328
   93MOL    H9622360   5.909   2.119   0.258  0.3048  1.0572 -0.1238
   93MOL    H9722361   5.864   2.035   0.405  2.5896 -1.1663  0.5780
   93MOL    O9822362   5.795   1.980   0.086  0.1086 -0.1987 -0.5454
   93MOL    C9922363   5.711   1.927   7.971 -0.1768  0.1029  0.5595
   93MOL   C10022364   5.693   2.033   7.861 -0.2955  0.2307  0.0215
   93MOL   C10122365   5.774   1.796   7.919  0.4573  1.1595  0.6122
   93MOL   C10222366   5.669   1.711   7.831 -0.3155  0.1038 -0.1780
   93MOL   O10322367   5.592   1.631   7.888 -1.0459 -0.6293 -0.1381
   93MOL   H10422368   5.616   1.907   0.042 -0.3289  0.4895  0.4241
   93MOL   H10522369   5.785   2.068   7.815  0.6158  1.3127  2.5560
   93MOL   H10622370   5.641   2.122   7.898  1.2049  0.3523  1.9376
   93MOL   H10722371   5.632   1.993   7.780  0.2513 -0.8350  0.1298
   93MOL   H10822372   5.791   1.733   0.026 -0.7130 -0.1451 -0.0888
   93MOL   H10922373   5.861   1.801   7.853 -1.3201  2.5551 -1.7201
   93MOL   O11022374   5.668   1.747   7.710 -0.2505  0.4738 -0.5872
   93MOL   C11122375   5.559   1.721   7.620  0.2174 -0.0095  0.2762
   93MOL   C11222376   5.468   1.845   7.598  0.4132 -0.0155 -0.2904
   93MOL   C11322377   5.628   1.683   7.483 -0.1310 -0.0733  0.5994
   93MOL   C11422378   5.529   1.590   7.409  0.0028 -0.4439  0.2346
   93MOL   O11522379   5.485   1.606   7.292 -0.1703  0.0909 -0.5626
   93MOL   H11622380   5.503   1.640   7.667  1.7583 -0.8999  0.6081
   93MOL   H11722381   5.415   1.879   7.687 -0.4044  1.0263 -1.1685
   93MOL   H11822382   5.386   1.819   7.531 -0.7606  2.8025 -0.0281
   93MOL   H11922383   5.536   1.924   7.567 -0.0138 -0.3357 -2.0623
   93MOL   H12022384   5.723   1.632   7.492  0.6127  1.1412 -0.1804
   93MOL   H12122385   5.645   1.767   7.415 -0.3598  0.1237  0.7851
   93MOL   O12222386   5.503   1.486   7.483 -0.1005  0.4333 -0.1716
   93MOL   C12322387   5.408   1.391   7.443  0.4859 -0.8808  0.2263
   93MOL   C12422388   5.468   1.280   7.360 -0.2197 -0.5779  0.2141
   93MOL   C12522389   5.333   1.348   7.569 -0.1772 -0.9258 -0.1123
   93MOL   C12622390   5.206   1.265   7.535  0.5224  0.2043  1.1793
   93MOL   O12722391   5.098   1.313   7.506  0.8978 -0.2380  0.0807
   93MOL   H12822392   5.331   1.440   7.384  2.3456  0.8031 -0.8633
   93MOL   H12922393   5.403   1.193   7.363 -2.7209  1.0315 -3.5984
   93MOL   H13022394   5.567   1.259   7.400 -0.0360  2.0584  1.2797
   93MOL   H13122395   5.470   1.306   7.254  1.0726  2.8313  1.0022
   93MOL   H13222396   5.306   1.433   7.631 -0.1966 -0.0078 -1.3425
   93MOL   H13322397   5.398   1.284   7.628 -1.0773 -0.6818  1.1556
   93MOL   O13422398   5.216   1.131   7.545  0.2744 -0.3522  0.3155
   93MOL   C13522399   5.109   1.044   7.519 -0.1585 -0.2938  0.4440
   93MOL   C13622400   5.165   0.923   7.444  0.4273  0.4852 -0.1799
   93MOL   C13722401   5.039   1.009   7.645 -0.3779  0.1744 -0.1255
   93MOL   C13822402   4.903   1.077   7.671 -0.8686  0.3918  0.6527
   93MOL   O13922403   4.804   1.054   7.605  0.0252  0.4240 -0.4846
   93MOL   H14022404   5.034   1.077   7.447  0.7931  1.0215  0.0462
   93MOL   H14122405   5.219   0.948   7.353 -1.0993  0.4922 -1.1104
   93MOL   H14222406   5.099   0.844   7.409  0.1221 -0.7991  3.1468
   93MOL   H14322407   5.232   0.874   7.513 -1.2356 -0.5118  0.7644
   93MOL   H14422408   5.106   1.032   7.727  1.0760 -1.4214 -0.8346
   93MOL   H14522409   5.021   0.901   7.637  1.8488 -0.3062  0.9821
   93MOL   O14622410   4.904   1.153   7.783 -0.0217 -0.0643 -0.0114
   93MOL   C14722411   4.786   1.202   7.836  1.1258 -0.3873 -0.5801
   93MOL   C14822412   4.755   1.122   7.960 -0.2878  0.0256 -1.0788
   93MOL   C14922413   4.781   1.359   7.857  0.2659  0.2092  0.1800
   93MOL   C15022414   4.859   1.398   7.978 -0.6764 -0.1160  0.3776
   93MOL   O15122415   4.805   1.416   0.108 -0.7317  0.0178  0.2406
   93MOL   H15222416   4.700   1.184   7.771 -0.6646 -1.9153  2.1111
   93MOL   H15322417   4.661   1.147   0.029  0.1515 -0.4949  0.0579
   93MOL   H15422418   4.839   1.118   0.051  1.5053 -2.1518 -3.2366
   93MOL   H15522419   4.740   1.019   7.931 -0.2729 -1.3094  3.2645
   93MOL   H15622420   4.680   1.392   7.881  0.0770 -0.8411  0.8739
   93MOL   H15722421   4.805   1.421   7.771 -0.6694  2.4250  1.4761
   93MOL   O15822422   4.990   1.414   7.945 -0.8445 -0.0434 -0.1022
   93MOL   C15922423   5.093   1.446   0.061 -0.4690  0.2397 -0.2538
   93MOL   C16022424   5.125   1.320   0.147  0.4085 -0.2868  0.2048
   93MOL   C16122425   5.220   1.493   7.966 -0.1764  0.7241  0.3409
   93MOL   C16222426   5.215   1.634   7.911  0.6744  0.0943 -0.2455
   93MOL   O16322427   5.219   1.658   7.794  0.4335 -0.0121 -0.6638
   93MOL   H16422428   5.054   1.517   0.133 -1.9604 -1.0362  0.2358
   93MOL   H16522429   5.040   1.270   0.193 -1.2573  0.4959 -1.9111
   93MOL   H16622430   5.191   1.347   0.229  1.6504  1.4214 -1.2947
   93MOL   H16722431   5.175   1.247   0.084 -0.2050  0.9620 -1.7882
   93MOL   H16822432   5.231   1.421   7.884 -1.5913 -0.4510  1.1619
   93MOL   H16922433   5.305   1.489   0.054  0.3975  2.2432 -0.2642
   93MOL   O17022434   5.221   1.723   0.034  0.0233 -0.4328  0.3299
   93MOL   C17122435   5.209   1.863   0.012  0.5062 -0.1101  0.0703
   93MOL   C17222436   5.100   1.909   0.114  0.5759  0.1628 -0.1371
   93MOL   C17322437   5.353   1.918   0.023 -0.2927 -0.4128  0.3592
   93MOL   C17422438   5.363   2.070   7.973 -0.5699  0.9207 -0.5004
   93MOL   O17522439   5.395   2.149   0.083 -0.3332  0.7899 -0.0909
   93MOL   H17622440   5.173   1.890   7.892 -1.2527 -3.3242 -0.2207
   93MOL   H17722441   5.124   1.885   0.217  0.6860 -1.5662 -0.5574
   93MOL   H17822442   5.004   1.859   0.099  1.0275 -1.1248  1.1352
   93MOL   H17922443   5.079   2.016   0.102 -0.6213  0.0922  1.2336
   93MOL   H18022444   5.397   1.857   7.924  1.7680  0.7190  0.6052
   93MOL   H18122445   5.406   1.907   0.117  0.7698 -2.7210 -0.4721
   93MOL   O18222446   5.340   2.101   7.848 -0.5441 -0.5731 -0.0965
   93MOL   C18322447   5.352   2.237   7.795 -0.5625  0.5606 -0.8051
   93MOL   C18422448   5.380   2.204   7.651 -0.3728 -0.6067  0.6731
   93MOL   C18522449   5.223   2.324   7.830 -0.0330 -0.1520  0.3307
   93MOL   C18622450   5.096   2.297   7.756  0.3469 -0.3531  0.0175
   93MOL   O18722451   5.054   2.376   7.676 -0.1460 -0.5507 -0.3493
   93MOL   H18822452   5.440   2.279   7.844  0.4942 -1.6441 -0.7575
   93MOL   H18922453   5.402   2.296   7.597 -0.4697 -0.0787  1.5244
   93MOL   H19022454   5.309   2.136   7.604 -1.4644 -1.0669  2.9480
   93MOL   H19122455   5.475   2.152   7.649 -0.5490 -1.0117  2.3948
   93MOL   H19222456   5.247   2.429   7.811 -0.3694 -0.2526 -0.6812
   93MOL   H19322457   5.201   2.325   7.937 -1.1399 -0.7790  0.1157
   93MOL   O19422458   5.036   2.184   7.794  0.3321 -0.1733  0.4545
   93MOL   C19522459   4.908   2.137   7.734 -0.2272 -0.4939 -0.4084
   93MOL   C19622460   4.905   1.988   7.776 -0.2672 -0.1931  0.3643
   93MOL   C19722461   4.791   2.228   7.783  0.2071 -0.5424  0.2171
   93MOL   C19822462   4.667   2.218   7.696 -0.4428  0.8177 -0.1134
   93MOL   O19922463   4.649   2.110   7.633  0.1944  0.3826  0.2249
   93MOL   H20022464   4.913   2.141   7.625 -0.8969 -3.1060 -0.5791
   93MOL   H20122465   4.815   1.935   7.742 -1.2095  0.4841  1.7743
   93MOL   H20222466   4.914   1.975   7.884  0.6583 -2.7088  0.0306
   93MOL   H20322467   4.998   1.940   7.744  0.4251  1.9191 -0.8634
   93MOL   H20422468   4.831   2.329   7.795 -1.2033  0.0657 -0.1160
   93MOL   H20522469   4.751   2.204   7.882  0.9086 -0.4547  0.5299
   93MOL   O20622470   4.598   2.336   7.692 -0.1894 -0.3994  0.0190
   93MOL   C20722471   4.478   2.345   7.622 -0.1658 -0.1221  0.0159
   93MOL   C20822472   4.377   2.395   7.732 -0.2879  0.1453  0.1412
   93MOL   C20922473   4.498   2.439   7.499 -0.0375 -0.0576  1.0103
   93MOL   C21022474   4.373   2.488   7.421 -0.4239  0.1741  0.3688
   93MOL   O21122475   4.335   2.432   7.316 -0.4149 -0.6246 -0.3426
   93MOL   H21222476   4.457   2.248   7.576  0.0880 -0.5471  0.7833
   93MOL   H21322477   4.270   2.384   7.711 -0.2490  0.5325 -0.2617
   93MOL   H21422478   4.394   2.501   7.751  0.0642  0.5640 -2.3067
   93MOL   H21522479   4.390   2.338   7.824 -1.1814 -0.4491 -0.0872
   93MOL   H21622480   4.573   2.400   7.430 -0.8077  2.9476 -1.6143
   93MOL   H21722481   4.557   2.527   7.524 -1.7529  1.4362 -0.0876
   93MOL   O21822482   4.313   2.592   7.475  0.5895  0.3365 -0.1112
   93MOL   C21922483   4.203   2.651   7.416  0.0145 -0.5265 -0.1996
   93MOL   C22022484   4.073   2.575   7.451 -0.2368  0.1576  0.2378
   93MOL   C22122485   4.205   2.796   7.465 -0.1943 -0.6106  0.3450
   93MOL   C22222486   4.082   2.866   7.417  0.0546  0.1315  0.5282
   93MOL   O22322487   4.076   2.889   7.295 -0.2518 -0.5082  0.3426
   93MOL   H22422488   4.221   2.644   7.309  0.9825  0.3150 -0.0934
   93MOL   H22522489   4.068   2.550   7.557 -0.3739 -0.8981 -0.0139
   93MOL   H22622490   4.059   2.488   7.386 -0.6693 -0.3552  1.0167
   93MOL   H22722491   3.981   2.628   7.426  0.7624  1.9123  0.2172
   93MOL   H22822492   4.297   2.845   7.432  0.7231 -1.8620  0.9826
   93MOL   H22922493   4.204   2.796   7.574 -0.2990  0.0165  0.3462
   93MOL   O23022494   3.992   2.900   7.512  0.1350 -0.3138 -0.2562
   93MOL   C23122495   3.863   2.948   7.464  0.2180  0.5198  0.3283
   93MOL   C23222496   3.756   2.837   7.502  0.0674  0.0945  0.2072
   93MOL   C23322497   3.829   3.082   7.523  0.5406  0.6973  0.4635
   93MOL   C23422498   3.858   3.198   7.427  0.4895  0.7781  0.0140
   93MOL   O23522499   3.787   3.296   7.426 -0.0517  0.3093  0.1524
   93MOL   H23622500   3.864   2.956   7.356  1.9463 -0.3891  0.2651
   93MOL   H23722501   3.748   2.805   7.606  0.2095  0.5529  0.3619
   93MOL   H23822502   3.771   2.745   7.445 -0.0146  0.0330  0.2851
   93MOL   H23922503   3.660   2.862   7.458 -0.1373  0.3583  0.8029
   93MOL   H24022504   3.874   3.104   7.620  1.7292 -1.1100  0.3556
   93MOL   H24122505   3.723   3.089   7.548  0.2877 -1.5599  0.1590
   93MOL   H24222506   3.933   3.179   7.350  1.2171  2.7967  0.1860
   94MOL     O122507   4.436   6.218   6.896  0.0133 -1.0749 -0.1991
   94MOL     C222508   4.573   6.252   6.878  0.2222  0.2303 -0.8490
   94MOL     C322509   4.582   6.332   6.746  0.0288 -0.0359  1.0144
   94MOL     C422510   4.610   6.335   7.002  0.0771  0.2219 -0.6035
   94MOL     C522511   4.763   6.355   7.023  0.2818  0.6328  0.0194
   94MOL     O622512   4.809   6.306   7.128 -0.1370  0.2057  0.7793
   94MOL     H722513   4.631   6.160   6.870  0.8012  0.6131 -1.0975
   94MOL     H822514   4.557   6.277   6.655  1.2446  0.4771  0.3679
   94MOL     H922515   4.682   6.372   6.728  1.0414 -1.6769  2.7981
   94MOL    H1022516   4.524   6.423   6.755  1.9771  1.2136  1.1780
   94MOL    H1122517   4.574   6.279   7.088 -0.3222  0.5534 -0.5563
   94MOL    H1222518   4.549   6.426   7.009 -3.5170 -2.3149  3.1909
   94MOL    H1322519   4.425   6.149   6.833  4.0360 -0.8301 -1.3268
   94MOL    O1422520   4.831   6.411   6.926  0.3545 -0.2832 -0.1545
   94MOL    C1522521   4.973   6.427   6.928 -0.7207 -0.8854 -0.2832
   94MOL    C1622522   5.028   6.412   6.784  0.6127  0.3559  0.2184
   94MOL    C1722523   5.003   6.552   7.005 -0.3732 -0.0252 -0.6122
   94MOL    C1822524   5.153   6.576   7.028  0.0407  0.1947  0.3109
   94MOL    O1922525   5.233   6.485   7.015 -0.2366 -0.2414 -0.0022
   94MOL    H2022526   5.008   6.347   6.993 -2.3521 -1.9952 -0.7178
   94MOL    H2122527   5.137   6.417   6.779  0.6196  0.0759  0.0340
   94MOL    H2222528   4.987   6.495   6.727  0.5255  1.6051  2.0710
   94MOL    H2322529   4.998   6.321   6.732  2.2703  0.4096 -0.8991
   94MOL    H2422530   4.947   6.559   7.098  1.1260 -2.0979  0.5001
   94MOL    H2522531   4.958   6.628   6.942 -1.9160 -0.3387  0.0876
   94MOL    O2622532   5.189   6.700   7.067 -0.2272 -0.4118 -0.2095
   94MOL    C2722533   5.326   6.734   7.094 -0.1828  0.5286 -0.0880
   94MOL    C2822534   5.348   6.850   6.999 -0.7966  0.1052  0.7070
   94MOL    C2922535   5.331   6.782   7.241  0.0163  0.3879 -0.7241
   94MOL    C3022536   5.477   6.802   7.293  0.3360  0.6255  0.4431
   94MOL    O3122537   5.513   6.917   7.317 -0.2017  0.1927 -0.4161
   94MOL    H3222538   5.404   6.661   7.072  0.1896  0.4446  1.4397
   94MOL    H3322539   5.276   6.924   7.032 -0.3128  0.9309 -0.0677
   94MOL    H3422540   5.325   6.825   6.896 -2.6634  0.7818  0.9389
   94MOL    H3522541   5.449   6.891   6.997 -0.5900 -0.3511  1.3851
   94MOL    H3622542   5.279   6.704   7.297 -0.4598  0.2996 -1.2904
   94MOL    H3722543   5.263   6.867   7.241 -1.2422 -0.6114 -1.1284
   94MOL    O3822544   5.551   6.686   7.305  0.1917  0.4743  0.2719
   94MOL    C3922545   5.686   6.693   7.345  0.9849  0.2270  0.2178
   94MOL    C4022546   5.701   6.654   7.493  0.1091  0.2231  0.1993
   94MOL    C4122547   5.755   6.601   7.246  0.1118 -0.8191 -0.1077
   94MOL    C4222548   5.721   6.452   7.260  0.0298  0.2438 -0.1277
   94MOL    O4322549   5.780   6.377   7.331 -0.0621 -0.1549 -0.4221
   94MOL    H4422550   5.731   6.791   7.335  1.4994  0.0896  1.1231
   94MOL    H4522551   5.641   6.563   7.502  2.8634 -1.5961  0.5688
   94MOL    H4622552   5.659   6.726   7.563 -2.8336 -0.6831 -0.5320
   94MOL    H4722553   5.803   6.642   7.529  0.7335  0.5384 -1.4336
   94MOL    H4822554   5.862   6.613   7.259 -0.0470 -0.7114  1.1826
   94MOL    H4922555   5.723   6.641   7.149  0.8901 -3.6799 -1.5879
   94MOL    O5022556   5.618   6.419   7.183  0.4763 -0.2189 -0.0396
   94MOL    C5122557   5.566   6.284   7.184 -0.0129 -0.2888  0.2096
   94MOL    C5222558   5.415   6.277   7.186 -0.1715 -0.0797  0.0925
   94MOL    C5322559   5.637   6.198   7.077 -0.2563  0.5667 -1.1026
   94MOL    C5422560   5.606   6.050   7.094 -0.6778 -0.1329  0.0431
   94MOL    O5522561   5.577   5.981   6.993 -0.2691 -0.2539 -0.3176
   94MOL    H5622562   5.598   6.238   7.278  0.3219  0.9101  0.6965
   94MOL    H5722563   5.383   6.359   7.251 -1.4538  0.3546 -1.0534
   94MOL    H5822564   5.373   6.186   7.229  2.0592 -1.6182 -0.9489
   94MOL    H5922565   5.387   6.281   7.081  2.0225  0.5637 -0.4910
   94MOL    H6022566   5.743   6.223   7.071  0.1186 -0.4756  0.9922
   94MOL    H6122567   5.611   6.238   6.979  0.5401  1.9574 -0.7571
   94MOL    O6222568   5.610   6.007   7.219 -0.1164 -0.3137  0.3093
   94MOL    C6322569   5.590   5.874   7.257  0.1550  0.0661 -0.4489
   94MOL    C6422570   5.713   5.830   7.338  0.4658 -0.3825 -0.3689
   94MOL    C6522571   5.444   5.858   7.320  0.0577 -0.1156 -0.1779
   94MOL    C6622572   5.338   5.846   7.214 -0.0969 -0.6856  0.3097
   94MOL    O6722573   5.322   5.739   7.158  0.8494  0.6108 -0.4518
   94MOL    H6822574   5.578   5.812   7.168 -2.7500 -1.0469  0.6471
   94MOL    H6922575   5.704   5.725   7.366 -0.3931  0.3364  2.3037
   94MOL    H7022576   5.711   5.876   7.437 -1.5393  0.1666 -0.6308
   94MOL    H7122577   5.804   5.842   7.280  1.3990 -0.1185  1.1235
   94MOL    H7222578   5.433   5.945   7.385 -0.2555 -1.6970  1.9328
   94MOL    H7322579   5.443   5.769   7.382  1.0919 -0.6418 -0.8999
   94MOL    O7422580   5.281   5.963   7.174 -0.3088  0.1824  0.2260
   94MOL    C7522581   5.184   5.963   7.065 -0.0146 -0.6456 -0.4253
   94MOL    C7622582   5.103   6.087   7.100  0.8081  0.7605  0.1538
   94MOL    C7722583   5.268   5.959   6.940 -0.0357 -1.2184 -0.2605
   94MOL    C7822584   5.175   5.978   6.818  0.1564  0.6257 -0.3091
   94MOL    O7922585   5.177   6.083   6.756 -0.7169 -0.4195  0.1845
   94MOL    H8022586   5.123   5.874   7.078  1.5930 -2.1288 -2.6148
   94MOL    H8122587   5.164   6.177   7.090  2.0396  0.2290  2.4293
   94MOL    H8222588   5.052   6.079   7.196  1.6532 -1.5948  0.4413
   94MOL    H8322589   5.023   6.098   7.027  1.6900 -0.2934 -0.9861
   94MOL    H8422590   5.328   5.868   6.936  1.7029 -0.1755  1.4099
   94MOL    H8522591   5.333   6.046   6.936  1.7770 -2.5197  0.3402
   94MOL    O8622592   5.097   5.873   6.800  0.3853  0.5981  0.0819
   94MOL    C8722593   5.000   5.872   6.693 -0.7967 -0.5215 -0.3697
   94MOL    C8822594   5.054   5.832   6.559  0.1812 -0.1322  0.1844
   94MOL    C8922595   4.888   5.780   6.736 -0.1601  0.4821  0.6039
   94MOL    C9022596   4.745   5.831   6.711 -0.0600 -0.1336  0.6292
   94MOL    O9122597   4.713   5.950   6.713 -0.4846  0.7759 -0.6876
   94MOL    H9222598   4.964   5.975   6.687 -0.4353 -0.3910 -0.3196
   94MOL    H9322599   5.120   5.744   6.561 -0.9558 -1.0655 -1.7575
   94MOL    H9422600   5.117   5.914   6.525 -0.7188  1.0400  1.3510
   94MOL    H9522601   4.973   5.829   6.486  0.1945  1.3464  0.0960
   94MOL    H9622602   4.892   5.759   6.843  0.9531 -1.2029  0.2553
   94MOL    H9722603   4.899   5.678   6.698  0.2352  0.8482 -0.2864
   94MOL    O9822604   4.666   5.721   6.680  1.2319  0.4891 -0.5450
   94MOL    C9922605   4.526   5.729   6.645  0.1260 -0.0688  0.7982
   94MOL   C10022606   4.525   5.758   6.491 -0.4538 -0.7117  0.2594
   94MOL   C10122607   4.472   5.597   6.681  0.7303 -0.3151 -0.5376
   94MOL   C10222608   4.466   5.554   6.822  0.3013  0.0556  0.3740
   94MOL   O10322609   4.359   5.558   6.893  0.1974  0.5163  0.1650
   94MOL   H10422610   4.488   5.809   6.708  1.3736  0.0051  1.4773
   94MOL   H10522611   4.595   5.694   6.437  0.6010  2.5513 -2.4067
   94MOL   H10622612   4.554   5.860   6.466  3.4707 -1.7805  0.0592
   94MOL   H10722613   4.426   5.755   6.446 -0.2792  0.4809 -0.2271
   94MOL   H10822614   4.537   5.516   6.646  0.5104  0.1823 -2.1716
   94MOL   H10922615   4.372   5.582   6.640 -0.0903  1.2914  0.8220
   94MOL   O11022616   4.584   5.487   6.859  0.1452  0.3149  0.0053
   94MOL   C11122617   4.597   5.427   6.995 -0.4199  0.3733  0.5921
   94MOL   C11222618   4.524   5.288   6.990  0.1842 -0.3721  1.0234
   94MOL   C11322619   4.745   5.413   7.017 -1.1703 -0.3102 -0.1390
   94MOL   C11422620   4.804   5.413   7.162  0.5155 -0.6511 -1.1592
   94MOL   O11522621   4.749   5.354   7.251  0.2349 -0.0829 -0.1389
   94MOL   H11622622   4.552   5.486   7.074  1.9170  1.7163  0.9506
   94MOL   H11722623   4.527   5.241   7.088 -1.8889  0.7460  1.6799
   94MOL   H11822624   4.566   5.210   6.928 -0.4576 -0.7729  1.0882
   94MOL   H11922625   4.419   5.298   6.961  0.0313  1.9903  2.2726
   94MOL   H12022626   4.789   5.502   6.971 -1.3481 -0.2027 -0.0990
   94MOL   H12122627   4.783   5.324   6.966 -0.1807 -0.0417  0.1034
   94MOL   O12222628   4.909   5.493   7.181  0.6522  1.1429  0.0883
   94MOL   C12322629   4.965   5.517   7.313  0.7549  0.4077  0.0960
   94MOL   C12422630   5.083   5.425   7.327 -0.2686  0.0488 -0.6362
   94MOL   C12522631   5.005   5.663   7.321  0.0997  0.3117  0.8643
   94MOL   C12622632   4.895   5.767   7.326  0.7431  0.1652 -0.2909
   94MOL   O12722633   4.877   5.828   7.428 -0.0540  0.1899 -0.3732
   94MOL   H12822634   4.883   5.497   7.382 -0.1884 -0.1305 -1.1640
   94MOL   H12922635   5.135   5.455   7.418 -0.8096 -0.8274 -0.0246
   94MOL   H13022636   5.156   5.438   7.248 -1.7915  2.6152 -1.6860
   94MOL   H13122637   5.051   5.321   7.333  1.5832 -0.5765 -1.3928
   94MOL   H13222638   5.087   5.696   7.257 -1.6891  0.2395 -1.5189
   94MOL   H13322639   5.058   5.681   7.415  2.1673 -1.1036  0.0286
   94MOL   O13422640   4.828   5.780   7.210  0.2968  0.2921  0.5438
   94MOL   C13522641   4.712   5.862   7.187 -0.1409 -0.5236 -0.0520
   94MOL   C13622642   4.750   5.998   7.126 -0.0523 -0.2130  0.1461
   94MOL   C13722643   4.615   5.789   7.096 -0.4249  0.2038 -0.4801
   94MOL   C13822644   4.487   5.868   7.059  0.0375  0.4504  0.2714
   94MOL   O13922645   4.468   5.903   6.939 -0.0653  0.5766  0.9043
   94MOL   H14022646   4.674   5.874   7.289  0.4736 -3.0465  0.5258
   94MOL   H14122647   4.818   6.046   7.196 -0.0353 -0.4085  0.2613
   94MOL   H14222648   4.658   6.056   7.112 -0.8308 -1.4422  0.1114
   94MOL   H14322649   4.814   6.004   7.038 -2.2433 -0.0551 -1.4816
   94MOL   H14422650   4.583   5.695   7.141 -1.3807 -0.6350 -2.8324
   94MOL   H14522651   4.673   5.758   7.008 -3.1022 -0.0080 -2.2444
   94MOL   O14622652   4.383   5.866   7.147 -0.0478 -0.1313 -0.4690
   94MOL   C14722653   4.261   5.935   7.118 -0.8625 -0.8498 -0.2155
   94MOL   C14822654   4.148   5.837   7.160 -0.3355  0.3146  0.9633
   94MOL   C14922655   4.265   6.071   7.179  0.3535 -0.1251  0.3511
   94MOL   C15022656   4.167   6.168   7.120  0.3551 -0.8230 -0.4796
   94MOL   O15122657   4.061   6.136   7.063 -0.1635  0.2121  0.1204
   94MOL   H15222658   4.254   5.948   7.010  0.6578 -0.8675 -0.3154
   94MOL   H15322659   4.136   5.813   7.266  1.2594 -2.2255  0.6229
   94MOL   H15422660   4.168   5.747   7.101 -0.7881  0.6254  0.3381
   94MOL   H15522661   4.057   5.872   7.112  0.1978  1.4472  0.7675
   94MOL   H15622662   4.368   6.103   7.161  0.2427  0.3181  0.4970
   94MOL   H15722663   4.243   6.079   7.285  0.1858 -0.9167  0.3824
   94MOL   O15822664   4.207   6.294   7.151 -0.1272 -0.5079 -0.0173
   94MOL   C15922665   4.142   6.407   7.101 -0.1811  0.4589 -0.0381
   94MOL   C16022666   4.130   6.510   7.212 -0.2036  0.2452  0.0156
   94MOL   C16122667   4.211   6.452   6.975 -0.4077 -0.5963  0.1909
   94MOL   C16222668   4.164   6.571   6.910  0.2230 -0.5333  0.2988
   94MOL   O16322669   4.235   6.670   6.901  0.1540 -0.0373  0.0095
   94MOL   H16422670   4.039   6.375   7.082  0.5559 -1.9301 -0.1463
   94MOL   H16522671   4.230   6.541   7.241 -0.0907 -1.2000  1.2429
   94MOL   H16622672   4.088   6.464   7.302  1.3365  1.0666  1.1989
   94MOL   H16722673   4.073   6.602   7.197 -0.5679 -0.0489 -0.3882
   94MOL   H16822674   4.207   6.360   6.915  0.3543 -0.4208 -0.1350
   94MOL   H16922675   4.318   6.461   6.992 -0.1076 -2.2908 -0.6796
   94MOL   O17022676   4.046   6.557   6.864 -0.1869 -0.2387 -0.1048
   94MOL   C17122677   3.996   6.667   6.782  0.1021 -0.6288 -0.4554
   94MOL   C17222678   4.030   6.627   6.629 -0.7500  0.2199 -0.9284
   94MOL   C17322679   3.848   6.706   6.816 -0.5146  0.4653 -0.5722
   94MOL   C17422680   3.844   6.770   6.954 -0.5840 -0.2298  0.5183
   94MOL   O17522681   3.830   6.703   7.056  0.6548 -0.7899 -0.0264
   94MOL   H17622682   4.049   6.761   6.798 -0.3629  0.1669 -3.3631
   94MOL   H17722683   4.136   6.624   6.607 -1.4466  1.6397 -4.9377
   94MOL   H17822684   3.987   6.702   6.562 -1.8774  1.1479  0.7736
   94MOL   H17922685   3.989   6.529   6.602 -2.0214 -0.1665  2.2007
   94MOL   H18022686   3.787   6.616   6.811 -1.1808  0.9567 -1.4310
   94MOL   H18122687   3.819   6.777   6.738 -2.8848 -1.4330 -1.4585
   94MOL   O18222688   3.867   6.906   6.956  0.4699 -0.5317  0.7623
   94MOL   C18322689   3.885   6.979   7.080 -0.1927 -0.2329  0.0145
   94MOL   C18422690   4.039   6.989   7.112 -0.1028  0.2873 -0.2309
   94MOL   C18522691   3.827   7.114   7.040 -0.1250 -0.2757  0.0394
   94MOL   C18622692   3.834   7.218   7.149  0.6420 -0.6180  0.0722
   94MOL   O18722693   3.879   7.328   7.127  0.5604 -0.4573 -0.0562
   94MOL   H18822694   3.820   6.944   7.160  0.5516 -0.6298  0.4490
   94MOL   H18922695   4.045   7.023   7.216 -0.1005  1.2218 -0.5342
   94MOL   H19022696   4.075   7.078   7.061 -2.2779  0.7884 -0.9565
   94MOL   H19122697   4.093   6.896   7.094 -1.7264 -0.1978 -2.8468
   94MOL   H19222698   3.723   7.105   7.010  0.3981  0.7495 -2.2514
   94MOL   H19322699   3.878   7.156   6.953  0.3108  0.7206  0.7641
   94MOL   O19422700   3.759   7.190   7.254 -0.0624  0.6466 -0.0707
   94MOL   C19522701   3.744   7.279   7.366  0.9177 -0.0654  0.3127
   94MOL   C19622702   3.610   7.347   7.350 -0.3611  0.3975  0.0041
   94MOL   C19722703   3.749   7.200   7.492 -0.3701  0.3570 -0.0423
   94MOL   C19822704   3.761   7.278   7.623 -0.1315 -0.0638 -0.5698
   94MOL   O19922705   3.843   7.249   7.716 -0.4503 -0.0817  0.6773
   94MOL   H20022706   3.826   7.352   7.361 -0.6116  1.6413 -0.2452
   94MOL   H20122707   3.614   7.440   7.408  1.5690  1.2647 -1.4782
   94MOL   H20222708   3.525   7.282   7.373 -0.6111 -0.0880 -2.1851
   94MOL   H20322709   3.601   7.389   7.250 -0.7613 -1.6264 -0.8336
   94MOL   H20422710   3.815   7.115   7.480 -0.7264  0.0166  0.4007
   94MOL   H20522711   3.655   7.144   7.497 -0.4076  0.4880  0.8493
   94MOL   O20622712   3.672   7.382   7.633  0.0700 -0.3040 -0.3356
   94MOL   C20722713   3.674   7.470   7.751 -0.4010  0.2697  0.2298
   94MOL   C20822714   3.785   7.578   7.736  0.0302  0.2677 -0.0442
   94MOL   C20922715   3.536   7.515   7.801  0.0153 -0.0089  0.0035
   94MOL   C21022716   3.537   7.587   7.935 -0.6277 -0.2528 -0.1777
   94MOL   O21122717   3.456   7.677   7.954  0.2860  0.0335 -0.2398
   94MOL   H21222718   3.702   7.399   7.829 -2.6179  0.3723  1.1694
   94MOL   H21322719   3.808   7.632   7.827  1.7893 -0.7784  0.1628
   94MOL   H21422720   3.750   7.649   7.662  0.9872 -0.7007 -1.4516
   94MOL   H21522721   3.882   7.534   7.712  1.0114  1.2571  2.0052
   94MOL   H21622722   3.488   7.417   7.810  0.9285 -0.2773  2.3136
   94MOL   H21722723   3.487   7.575   7.724  1.1285  0.1763 -0.5780
   94MOL   O21822724   3.636   7.554   0.047 -0.5074  0.1123  0.0604
   94MOL   C21922725   3.656   7.629   0.172 -0.0886 -0.4046  0.8176
   94MOL   C22022726   3.566   7.577   0.286 -0.6535 -0.3300 -0.0644
   94MOL   C22122727   3.808   7.630   0.209  0.4310 -0.0991 -0.4485
   94MOL   C22222728   3.868   7.493   0.233  0.5071  0.1530 -0.2170
   94MOL   O22322729   3.832   7.412   0.322  0.2474  0.4029  0.7408
   94MOL   H22422730   3.627   7.731   0.146  0.2975 -0.7231 -0.8869
   94MOL   H22522731   3.461   7.579   0.258 -0.5881 -1.5586 -0.4048
   94MOL   H22622732   3.575   7.645   0.370  1.7933  2.4469 -2.4547
   94MOL   H22722733   3.576   7.471   0.310  0.4130 -0.3903 -0.7633
   94MOL   H22822734   3.828   7.699   0.290 -0.6041 -1.5197  1.0528
   94MOL   H22922735   3.855   7.669   0.118  0.7523 -0.2582 -0.3474
   94MOL   O23022736   3.980   7.471   0.156 -0.8911  0.3644 -0.1198
   94MOL   C23122737   4.048   7.348   0.145 -0.3303  0.4285 -0.0873
   94MOL   C23222738   4.052   7.321   7.970  0.4395  0.1046 -0.2548
   94MOL   C23322739   4.193   7.360   0.204  0.2484  0.0547 -0.6952
   94MOL   C23422740   4.281   7.236   0.194  0.0833  0.5543  0.6093
   94MOL   O23522741   4.336   7.185   0.290  0.7749  0.0175  0.4838
   94MOL   H23622742   3.997   7.264   0.193 -1.6775  1.2740 -0.0269
   94MOL   H23722743   4.120   7.394   7.924  1.2529  0.3282  1.2601
   94MOL   H23822744   3.948   7.332   7.939  0.6774  0.0973 -1.0656
   94MOL   H23922745   4.082   7.221   7.938  3.4598  0.2738  1.7919
   94MOL   H24022746   4.181   7.395   0.307 -0.6741 -0.5316 -0.6039
   94MOL   H24122747   4.236   7.437   0.139  0.4439 -0.3945 -1.0971
   94MOL   H24222748   4.299   7.197   0.094 -0.0271  0.2351  0.7149
   95MOL     O122749   1.114   0.939   2.076  0.0523 -0.1163 -0.5214
   95MOL     C222750   1.152   0.989   2.196  0.3478 -0.7185  0.6741
   95MOL     C322751   1.200   1.130   2.174  0.6086  0.0457  0.0547
   95MOL     C422752   1.024   0.985   2.277  0.2799  0.7519 -0.1747
   95MOL     C522753   1.052   1.005   2.429 -0.9686 -0.0238  0.7766
   95MOL     O622754   1.096   1.113   2.476  0.6334 -0.2168 -0.1025
   95MOL     H722755   1.231   0.926   2.236  0.2237 -2.1340 -1.2268
   95MOL     H822756   1.134   1.200   2.123  0.4392  0.1302  0.3944
   95MOL     H922757   1.288   1.133   2.110  0.0959  1.6560 -0.6105
   95MOL    H1022758   1.233   1.173   2.268 -0.5735  1.5601 -0.2142
   95MOL    H1122759   0.967   0.892   2.275 -0.7797  1.3863 -0.2470
   95MOL    H1222760   0.948   1.057   2.245  0.0208  0.2505 -0.6974
   95MOL    H1322761   1.193   0.913   2.031  0.9208  2.1829 -0.3720
   95MOL    O1422762   1.031   0.892   2.491  0.1696  0.5204  0.3861
   95MOL    C1522763   1.033   0.886   2.640 -0.6139  0.1570  0.5275
   95MOL    C1622764   0.908   0.807   2.684  0.8674  0.1145 -0.1204
   95MOL    C1722765   1.158   0.808   2.687  0.8661  0.1002  0.7219
   95MOL    C1822766   1.288   0.887   2.675 -0.1005  0.6674 -0.1357
   95MOL    O1922767   1.332   0.954   2.771 -0.1456 -0.6488  0.1914
   95MOL    H2022768   1.035   0.991   2.669 -1.0445  0.8176 -1.6862
   95MOL    H2122769   0.904   0.807   2.793  1.2477 -0.8680 -0.1000
   95MOL    H2222770   0.914   0.703   2.651  0.0321  0.4611 -1.4095
   95MOL    H2322771   0.814   0.850   2.647  0.7607 -0.3382 -0.3836
   95MOL    H2422772   1.171   0.722   2.622  1.1331 -0.6842  1.8071
   95MOL    H2522773   1.150   0.777   2.791 -1.7521  0.5281  0.7009
   95MOL    O2622774   1.356   0.871   2.557 -0.5733  0.0977 -0.7353
   95MOL    C2722775   1.476   0.940   2.540  1.0850  0.2293 -0.3499
   95MOL    C2822776   1.590   0.838   2.552  1.0209  0.4847 -0.3461
   95MOL    C2922777   1.468   1.014   2.400 -0.5682  0.1123 -0.0992
   95MOL    C3022778   1.548   1.141   2.388  1.0409  0.6650  0.0643
   95MOL    O3122779   1.644   1.177   2.460  0.2492 -0.2337 -0.2085
   95MOL    H3222780   1.496   1.005   2.624  0.0385  0.5779 -0.3571
   95MOL    H3322781   1.577   0.793   2.650 -1.2367  1.7287 -0.0289
   95MOL    H3422782   1.689   0.882   2.543  0.7690  0.8309 -1.4766
   95MOL    H3522783   1.586   0.756   2.480  0.6391 -1.2280  1.5874
   95MOL    H3622784   1.366   1.048   2.384 -0.8547  0.9948  3.1897
   95MOL    H3722785   1.483   0.932   2.329  1.1386 -2.1718  2.7628
   95MOL    O3822786   1.492   1.214   2.286 -0.4524  0.3954 -0.0065
   95MOL    C3922787   1.558   1.327   2.230 -0.1116 -0.3060  0.6219
   95MOL    C4022788   1.493   1.339   2.090  0.0028  0.1950  0.2116
   95MOL    C4122789   1.539   1.455   2.320 -0.3800  0.1285  0.5839
   95MOL    C4222790   1.647   1.556   2.279  0.1329  0.1533 -0.2088
   95MOL    O4322791   1.618   1.664   2.231 -0.9757 -0.1654  0.1553
   95MOL    H4422792   1.662   1.299   2.212 -1.1976 -3.0403 -1.6563
   95MOL    H4522793   1.534   1.415   2.024  0.6311 -0.2597  0.0688
   95MOL    H4622794   1.391   1.375   2.099 -0.6082 -0.6869 -2.6447
   95MOL    H4722795   1.479   1.244   2.038 -1.2522  0.4496  0.0625
   95MOL    H4822796   1.560   1.427   2.424  1.3595 -1.9983 -0.2987
   95MOL    H4922797   1.441   1.502   2.315 -0.1514  0.5151 -0.4319
   95MOL    O5022798   1.770   1.507   2.304 -0.2598  0.0191  0.0625
   95MOL    C5122799   1.884   1.578   2.260 -0.5728 -0.1195  0.5741
   95MOL    C5222800   1.980   1.600   2.381  0.0127  0.1209 -0.9792
   95MOL    C5322801   1.946   1.498   2.147  0.4541  0.4449 -0.0539
   95MOL    C5422802   1.886   1.544   2.014  0.1386 -0.7130  0.4153
   95MOL    O5522803   1.782   1.485   1.978  0.1703 -0.1098 -1.0976
   95MOL    H5622804   1.856   1.674   2.218 -0.9665 -0.3104  0.3883
   95MOL    H5722805   2.074   1.646   2.350 -1.2860  2.5625 -1.4211
   95MOL    H5822806   2.011   1.505   2.426 -0.7716 -0.7232 -2.1954
   95MOL    H5922807   1.933   1.653   2.464  2.8471 -0.1839  0.8846
   95MOL    H6022808   1.956   1.390   2.156  0.6561  0.4549 -0.1652
   95MOL    H6122809   2.048   1.536   2.137  0.0372  1.1009 -1.9983
   95MOL    O6222810   1.943   1.654   1.959  0.3493 -0.0464 -0.7087
   95MOL    C6322811   1.890   1.713   1.840  0.0222  0.3999 -0.3017
   95MOL    C6422812   1.848   1.853   1.880  0.2159 -0.0482 -0.4046
   95MOL    C6522813   2.008   1.709   1.740  0.5487 -0.6558  0.1723
   95MOL    C6622814   2.027   1.576   1.671 -1.0094  0.3407  0.6369
   95MOL    O6722815   2.092   1.556   1.569  0.8384  0.2520 -0.4514
   95MOL    H6822816   1.812   1.648   1.801 -0.8190  0.4943  1.2056
   95MOL    H6922817   1.789   1.844   1.972  1.4080  1.1076  0.4934
   95MOL    H7022818   1.774   1.876   1.804  1.2630 -0.0698 -1.4361
   95MOL    H7122819   1.937   1.915   1.888 -0.5663  1.2838 -1.8580
   95MOL    H7222820   2.102   1.752   1.775 -0.9726  1.5117  1.7113
   95MOL    H7322821   1.996   1.776   1.655 -2.7588 -2.3648 -0.8034
   95MOL    O7422822   1.961   1.472   1.737 -0.4862 -0.4194  0.0533
   95MOL    C7522823   1.948   1.345   1.679  0.2846  0.3816  0.2676
   95MOL    C7622824   2.053   1.262   1.757  0.1530 -0.0529  0.1374
   95MOL    C7722825   1.802   1.300   1.691 -0.2892 -1.0268  0.2052
   95MOL    C7822826   1.706   1.371   1.600 -0.1244 -0.1077 -0.0853
   95MOL    O7922827   1.657   1.324   1.497  0.1409 -0.2692  0.2360
   95MOL    H8022828   1.965   1.343   1.571 -1.0372  1.1618  0.0370
   95MOL    H8122829   2.038   1.251   1.864  1.5438  1.1338  0.4722
   95MOL    H8222830   2.151   1.308   1.740 -1.0150  1.8546 -1.8075
   95MOL    H8322831   2.068   1.169   1.703  1.2130 -1.1718  2.3384
   95MOL    H8422832   1.761   1.329   1.788  1.7440 -0.1463  0.8385
   95MOL    H8522833   1.805   1.192   1.682  2.7957 -1.0054  0.3018
   95MOL    O8622834   1.677   1.494   1.647  0.7243 -0.2669 -0.1237
   95MOL    C8722835   1.560   1.560   1.594  0.2963  0.3234 -0.5412
   95MOL    C8822836   1.449   1.553   1.691 -0.1958  0.6266 -0.0377
   95MOL    C8922837   1.581   1.707   1.546  0.5759  0.4559  1.4080
   95MOL    C9022838   1.685   1.722   1.434  0.0504 -0.3353 -0.3380
   95MOL    O9122839   1.783   1.800   1.443 -0.2327  0.2905  0.3310
   95MOL    H9222840   1.521   1.514   1.503 -0.5257 -1.1865  0.5533
   95MOL    H9322841   1.457   1.600   1.789 -2.9559 -0.2484  0.6442
   95MOL    H9422842   1.430   1.447   1.711 -0.4794  0.4849 -1.0316
   95MOL    H9522843   1.358   1.594   1.648 -1.6816 -0.9604  1.5272
   95MOL    H9622844   1.621   1.761   1.632  2.7327  0.8115  0.2261
   95MOL    H9722845   1.484   1.748   1.519  0.3550 -1.6128 -1.0864
   95MOL    O9822846   1.664   1.638   1.327 -0.2102  0.2879  0.4705
   95MOL    C9922847   1.740   1.645   1.208 -0.3571 -0.7088  0.3057
   95MOL   C10022848   1.736   1.786   1.144  0.4881  0.5510 -0.2748
   95MOL   C10122849   1.884   1.588   1.251 -0.1886 -0.2438 -0.0898
   95MOL   C10222850   1.984   1.573   1.134 -0.1141  0.2655 -0.0397
   95MOL   O10322851   1.946   1.578   1.019 -0.4864 -0.1045  0.6273
   95MOL   H10422852   1.684   1.576   1.145  1.1375 -2.3961  0.7898
   95MOL   H10522853   1.802   1.846   1.207  0.5458 -0.4201  0.5947
   95MOL   H10622854   1.639   1.837   1.154 -0.2239 -0.8174 -0.1288
   95MOL   H10722855   1.771   1.780   1.042  0.4829 -1.5591 -0.1706
   95MOL   H10822856   1.869   1.484   1.282 -4.0465  0.1612 -0.2730
   95MOL   H10922857   1.940   1.639   1.330 -1.9640  2.3428 -0.4363
   95MOL   O11022858   2.109   1.559   1.174  0.1566  0.4906 -0.4375
   95MOL   C11122859   2.217   1.530   1.093  0.9127 -0.6355  0.0526
   95MOL   C11222860   2.250   1.649   1.010  0.4192  0.0915 -0.2282
   95MOL   C11322861   2.335   1.494   1.191 -0.0985 -0.2853  0.1167
   95MOL   C11422862   2.351   1.349   1.232  0.8201  0.0810  0.4172
   95MOL   O11522863   2.444   1.271   1.198  0.3194  0.3362 -0.2628
   95MOL   H11622864   2.196   1.444   1.029  1.1256 -0.8651  0.2858
   95MOL   H11722865   2.328   1.616   0.942 -0.2928 -0.9560 -0.5528
   95MOL   H11822866   2.277   1.738   1.066 -1.5966 -0.7109  2.1379
   95MOL   H11922867   2.168   1.685   0.948  0.1408  2.0409  1.2340
   95MOL   H12022868   2.348   1.548   1.285  0.9170  2.2809 -1.4449
   95MOL   H12122869   2.425   1.510   1.131 -0.7542  0.8735 -0.5791
   95MOL   O12222870   2.250   1.321   1.315  0.1458  0.4429 -0.2611
   95MOL   C12322871   2.211   1.186   1.343 -1.1007 -0.3441 -0.7641
   95MOL   C12422872   2.268   1.167   1.483 -0.2391 -0.4014  0.7744
   95MOL   C12522873   2.061   1.181   1.339  0.3078 -0.3459 -0.4290
   95MOL   C12622874   2.006   1.204   1.192  0.8109  0.8238  0.2617
   95MOL   O12722875   1.903   1.260   1.181 -0.5570 -0.3009  1.0961
   95MOL   H12822876   2.254   1.111   1.276  1.0454 -0.6825  0.9141
   95MOL   H12922877   2.267   1.268   1.525  0.6570 -1.1063  2.5589
   95MOL   H13022878   2.373   1.139   1.476 -0.6237 -1.6785 -0.2079
   95MOL   H13122879   2.210   1.100   1.546  0.1063 -2.0980 -0.6660
   95MOL   H13222880   2.018   1.250   1.412 -0.0206  1.0871 -1.9398
   95MOL   H13322881   2.025   1.085   1.376  0.3458 -1.0594 -2.1665
   95MOL   O13422882   2.089   1.152   1.095  0.2794 -0.2546 -0.2303
   95MOL   C13522883   2.081   1.194   0.957 -0.3599  0.4324 -0.1786
   95MOL   C13622884   2.224   1.197   0.889  0.1092 -0.2662  0.1214
   95MOL   C13722885   1.976   1.099   0.889 -0.2224 -0.5962 -0.0738
   95MOL   C13822886   1.922   1.136   0.753 -0.6693  0.0321  0.6158
   95MOL   O13922887   1.954   1.239   0.693  0.1888 -0.1177 -0.2753
   95MOL   H14022888   2.037   1.294   0.945  1.1887  1.0060 -1.2740
   95MOL   H14122889   2.273   1.102   0.912  1.2579  0.7213  1.8155
   95MOL   H14222890   2.286   1.273   0.936  0.1697 -0.0812 -0.2525
   95MOL   H14322891   2.216   1.210   0.781 -1.1013  1.4457  0.4021
   95MOL   H14422892   1.886   1.111   0.950 -0.4818 -0.4393 -0.4863
   95MOL   H14522893   2.015   0.997   0.885 -0.1764 -0.5898  0.1937
   95MOL   O14622894   1.843   1.043   0.707  0.4703  0.3084 -0.0439
   95MOL   C14722895   1.786   1.051   0.583 -0.2627 -0.0126 -0.7659
   95MOL   C14822896   1.678   1.150   0.567 -0.1484  0.0453 -0.7545
   95MOL   C14922897   1.888   1.062   0.465 -0.0859 -0.9066 -0.2709
   95MOL   C15022898   1.942   0.926   0.417 -0.2801 -0.0765  0.1033
   95MOL   O15122899   2.046   0.887   0.468  0.5238  0.6339 -0.3651
   95MOL   H15222900   1.734   0.956   0.582 -2.7670  1.3293 -1.7270
   95MOL   H15322901   1.633   1.165   0.665  0.8071 -0.2357 -0.2655
   95MOL   H15422902   1.610   1.111   0.491 -1.1151  2.2990 -1.0630
   95MOL   H15522903   1.715   1.243   0.524 -0.2913  1.3797  1.9458
   95MOL   H15622904   1.972   1.124   0.496 -0.7942 -0.0153 -0.1205
   95MOL   H15722905   1.848   1.111   0.376  0.6184 -2.3822 -1.4220
   95MOL   O15822906   1.855   0.845   0.346  0.1669  0.5908  0.0443
   95MOL   C15922907   1.887   0.709   0.314 -0.6489 -0.1512  0.1054
   95MOL   C16022908   1.759   0.636   0.267  0.0354 -0.0575  1.0067
   95MOL   C16122909   1.993   0.706   0.200  0.0726 -0.0363  0.0554
   95MOL   C16222910   2.030   0.563   0.174 -0.2269  0.2207 -0.2228
   95MOL   O16322911   2.066   0.519   0.071 -0.2549 -0.1783  0.4500
   95MOL   H16422912   1.937   0.658   0.396  0.8526  1.1876  0.0484
   95MOL   H16522913   1.751   0.532   0.234 -0.0499  0.4263 -0.5220
   95MOL   H16622914   1.718   0.701   0.190  1.6666  2.4788  2.2290
   95MOL   H16722915   1.686   0.647   0.347 -0.7913  1.5029  0.0592
   95MOL   H16822916   2.073   0.770   0.239 -0.1915  0.5533 -0.3560
   95MOL   H16922917   1.936   0.743   0.115 -1.1245  0.7841  1.1814
   95MOL   O17022918   2.038   0.490   0.288 -0.1335 -0.5581  0.0136
   95MOL   C17122919   2.081   0.352   0.292  0.2568  0.3151  0.0350
   95MOL   C17222920   2.228   0.326   0.242  0.1921  0.8046  0.5311
   95MOL   C17322921   2.064   0.296   0.438 -0.3055 -0.1601  0.3057
   95MOL   C17422922   2.137   0.361   0.558  0.2643  0.7240 -0.0515
   95MOL   O17522923   2.256   0.330   0.583  0.0566 -0.1168  0.6719
   95MOL   H17622924   2.015   0.294   0.228 -0.2509  0.3667  0.5085
   95MOL   H17722925   2.239   0.364   0.141 -0.7765  0.4046  0.2791
   95MOL   H17822926   2.259   0.222   0.253 -1.3510  0.0842 -1.7471
   95MOL   H17922927   2.300   0.376   0.307 -1.4199  0.5242  2.5902
   95MOL   H18022928   2.081   0.188   0.446 -1.7400 -0.3481  1.0510
   95MOL   H18122929   1.957   0.292   0.461 -0.3643 -0.2247  0.0254
   95MOL   O18222930   2.057   0.447   0.628 -0.4036  0.8679  0.2726
   95MOL   C18322931   2.100   0.517   0.742  0.4162 -0.1519  1.0659
   95MOL   C18422932   2.040   0.656   0.728 -0.1433 -0.1936  0.2238
   95MOL   C18522933   2.039   0.450   0.861  0.5151  0.0821 -0.6145
   95MOL   C18622934   2.104   0.501   0.993 -0.0932 -0.3289 -0.0729
   95MOL   O18722935   2.031   0.514   1.090  0.5202 -0.0858 -0.0844
   95MOL   H18822936   2.209   0.516   0.740  0.4555  1.4280  1.8119
   95MOL   H18922937   2.088   0.701   0.641 -1.5215  0.3006 -0.2960
   95MOL   H19022938   2.064   0.722   0.813  0.5590  0.4926 -0.4980
   95MOL   H19122939   1.933   0.669   0.712 -0.3748 -0.0744  1.7368
   95MOL   H19222940   2.047   0.342   0.846 -0.3596 -0.4103  2.0826
   95MOL   H19322941   1.932   0.471   0.868  0.3925 -1.5000  4.4176
   95MOL   O19422942   2.233   0.521   0.997  0.4639 -0.5374 -0.0390
   95MOL   C19522943   2.305   0.570   1.111  0.4679 -0.0658 -0.6936
   95MOL   C19622944   2.446   0.503   1.095  0.2983 -0.3018  0.6089
   95MOL   C19722945   2.299   0.725   1.108  0.4592  0.6033  0.2300
   95MOL   C19822946   2.367   0.799   1.226 -0.3267  0.3667  0.2811
   95MOL   O19922947   2.296   0.844   1.311 -0.3090 -0.1342 -0.1933
   95MOL   H20022948   2.260   0.521   1.197 -0.3370 -0.2141 -1.1876
   95MOL   H20122949   2.426   0.396   1.089  1.8973 -0.5500 -1.1887
   95MOL   H20222950   2.515   0.540   1.171 -0.9056  1.6888  0.7478
   95MOL   H20322951   2.484   0.534   0.997 -1.1798  0.1246  0.1554
   95MOL   H20422952   2.194   0.751   1.110 -0.6938 -3.5973 -0.4679
   95MOL   H20522953   2.331   0.764   1.011 -0.7172 -0.3988 -0.5770
   95MOL   O20622954   2.505   0.786   1.222  0.5205 -0.2132 -0.0312
   95MOL   C20722955   2.580   0.856   1.320  0.2167 -0.0399  0.3704
   95MOL   C20822956   2.697   0.766   1.359  0.1548  1.0727  0.0775
   95MOL   C20922957   2.614   0.996   1.277  0.1085  0.0898 -0.1347
   95MOL   C21022958   2.698   1.090   1.367 -0.7875 -0.0032  0.6512
   95MOL   O21122959   2.822   1.084   1.377 -0.0730 -0.3473  0.4950
   95MOL   H21222960   2.529   0.855   1.416  0.2115 -0.9520  0.3616
   95MOL   H21322961   2.765   0.752   1.275 -0.0810 -0.4666  0.1350
   95MOL   H21422962   2.656   0.670   1.391  2.6020  0.0646  0.2575
   95MOL   H21522963   2.750   0.799   1.449  0.7336 -1.9672  0.9102
   95MOL   H21622964   2.517   1.046   1.273 -0.7156 -1.3750  0.9729
   95MOL   H21722965   2.666   1.003   1.181 -0.1462  0.1834 -0.2663
   95MOL   O21822966   2.619   1.178   1.431 -0.1790 -0.0779 -0.4696
   95MOL   C21922967   2.666   1.279   1.520 -0.1946 -0.0828  0.3799
   95MOL   C22022968   2.577   1.403   1.499 -0.3782  0.8162 -0.3844
   95MOL   C22122969   2.675   1.252   1.675  0.4101  0.0129 -0.0855
   95MOL   C22222970   2.764   1.136   1.710  0.1598 -0.2714 -0.9076
   95MOL   O22322971   2.721   1.043   1.775  0.6089  0.2163 -0.6242
   95MOL   H22422972   2.769   1.301   1.491 -0.5042  0.1358 -0.5445
   95MOL   H22522973   2.603   1.475   1.577  0.9955 -1.1224  1.0067
   95MOL   H22622974   2.470   1.387   1.508 -0.2762  0.1666 -0.2890
   95MOL   H22722975   2.597   1.450   1.402 -3.8297 -0.4782 -1.8026
   95MOL   H22822976   2.572   1.231   1.707  1.0829 -1.2349  1.3187
   95MOL   H22922977   2.711   1.339   1.729  3.0164 -0.4135 -1.0618
   95MOL   O23022978   2.887   1.148   1.681 -0.1871  0.0809  0.0058
   95MOL   C23122979   2.982   1.045   1.725 -0.3316  0.1663  0.2593
   95MOL   C23222980   2.974   0.908   1.643 -0.6078 -0.0891 -0.3360
   95MOL   C23322981   3.122   1.103   1.719  0.2882  0.5783 -0.3468
   95MOL   C23422982   3.161   1.138   1.577 -0.6971  0.0932 -0.5127
   95MOL   O23522983   3.255   1.078   1.526  0.7905 -0.4169  0.0457
   95MOL   H23622984   2.965   1.023   1.830  1.1917  2.5577  1.0567
   95MOL   H23722985   2.908   0.834   1.688  0.2239 -0.9809 -0.5853
   95MOL   H23822986   3.071   0.860   1.631  0.5506  1.8677  0.9154
   95MOL   H23922987   2.925   0.925   1.547 -3.0401  1.0090  1.0448
   95MOL   H24022988   3.196   1.039   1.767 -2.8595 -0.8188  2.9221
   95MOL   H24122989   3.119   1.202   1.764 -0.9134  0.7876 -0.8624
   95MOL   H24222990   3.118   1.229   1.535  1.5016  1.1213 -0.5783
   96MOL     O122991   6.175   1.380   2.780 -0.2631 -0.3450 -0.1782
   96MOL     C222992   6.143   1.423   2.913  0.8398  0.1167 -0.2632
   96MOL     C322993   6.177   1.573   2.923  0.9964  0.1723 -0.3289
   96MOL     C422994   5.994   1.379   2.933 -0.4218  0.4014 -0.0269
   96MOL     C522995   5.975   1.232   2.969 -0.1409 -0.4503 -0.1433
   96MOL     O622996   6.050   1.172   3.046  0.7299 -0.9467 -0.2546
   96MOL     H722997   6.211   1.364   2.973  0.1741 -0.9120 -0.5120
   96MOL     H822998   6.149   1.603   3.024 -1.6634  0.2812 -1.0503
   96MOL     H922999   6.112   1.637   2.864 -1.0017 -1.7465 -0.2679
   96MOL    H1023000   6.283   1.584   2.900  1.5346 -0.6296  1.6204
   96MOL    H1123001   5.924   1.402   2.853 -0.4422  0.3106 -0.0350
   96MOL    H1223002   5.958   1.425   3.025  1.0463  0.9466  0.2937
   96MOL    H1323003   6.269   1.382   2.789 -0.2919  1.5903 -0.0204
   96MOL    O1423004   5.860   1.185   2.915 -0.1459  0.0942  0.1263
   96MOL    C1523005   5.803   1.058   2.937  0.4240 -0.0027  0.7308
   96MOL    C1623006   5.714   1.050   3.057 -0.6475  0.1399  0.3147
   96MOL    C1723007   5.730   1.029   2.805  0.2320  0.0795  0.3472
   96MOL    C1823008   5.600   1.110   2.780 -0.8921 -0.8068  0.0992
   96MOL    O1923009   5.491   1.073   2.838  0.1314 -0.1691  0.3375
   96MOL    H2023010   5.883   0.990   2.964 -1.0024 -0.3986  4.1922
   96MOL    H2123011   5.671   0.950   3.062  0.4868 -0.3461  0.6504
   96MOL    H2223012   5.644   1.133   3.046  0.1041  0.6202 -0.9454
   96MOL    H2323013   5.758   1.056   3.157 -0.4827 -0.5020  0.2815
   96MOL    H2423014   5.702   0.924   2.798 -0.9147  0.4731 -1.5613
   96MOL    H2523015   5.803   1.046   2.726 -0.2069 -0.2127 -0.1285
   96MOL    O2623016   5.629   1.221   2.713 -0.1393  0.4054  0.1875
   96MOL    C2723017   5.528   1.317   2.683  0.2195 -1.0175 -0.0601
   96MOL    C2823018   5.574   1.446   2.755  0.3811  0.0477  0.4437
   96MOL    C2923019   5.521   1.339   2.527  0.1474  0.7468  0.2622
   96MOL    C3023020   5.467   1.216   2.451 -0.5237  0.0281 -0.4049
   96MOL    O3123021   5.364   1.228   2.385  0.0406  0.3437 -0.2731
   96MOL    H3223022   5.431   1.283   2.718 -0.0798 -1.5977 -1.4005
   96MOL    H3323023   5.670   1.492   2.733  1.8883 -3.2583 -0.3097
   96MOL    H3423024   5.560   1.430   2.862  1.4365  2.0866  0.8992
   96MOL    H3523025   5.503   1.522   2.723  1.2371  0.5560 -0.2770
   96MOL    H3623026   5.620   1.349   2.482 -1.0808  1.1487 -2.4584
   96MOL    H3723027   5.468   1.431   2.503  0.2467  0.0120 -2.9780
   96MOL    O3823028   5.549   1.107   2.467  0.2533 -0.0017  0.3708
   96MOL    C3923029   5.538   0.980   2.402 -0.7497 -0.8629  0.6453
   96MOL    C4023030   5.673   0.950   2.334 -0.1245  0.1413 -0.2627
   96MOL    C4123031   5.498   0.876   2.512 -0.3495  0.4910  0.1784
   96MOL    C4223032   5.354   0.859   2.541  0.2073  0.3054  0.3833
   96MOL    O4323033   5.296   0.752   2.521  0.4862  0.2620 -0.0549
   96MOL    H4423034   5.464   0.974   2.323  2.4989  0.0668 -2.6423
   96MOL    H4523035   5.736   1.037   2.319  0.0596 -0.1846 -1.3638
   96MOL    H4623036   5.665   0.890   2.244 -0.1138  0.5923 -0.5675
   96MOL    H4723037   5.718   0.879   2.404 -1.3197 -1.6828 -1.3216
   96MOL    H4823038   5.543   0.899   2.609 -1.8407  1.1015  0.7344
   96MOL    H4923039   5.542   0.781   2.482 -0.3333  1.0471 -1.5771
   96MOL    O5023040   5.300   0.978   2.578 -0.0461  0.6300 -0.2911
   96MOL    C5123041   5.169   0.980   2.618 -0.2209  0.0420  0.0789
   96MOL    C5223042   5.172   1.070   2.740  0.8675  0.1539  0.1783
   96MOL    C5323043   5.084   1.040   2.500  0.4729  0.2558  0.0624
   96MOL    C5423044   4.942   0.990   2.492 -0.1214  0.0040  0.5443
   96MOL    O5523045   4.904   0.902   2.571  0.0707 -0.0459 -0.2926
   96MOL    H5623046   5.134   0.879   2.639  1.6206 -0.8606 -1.0682
   96MOL    H5723047   5.080   1.070   2.799  1.9030 -0.6154  1.8223
   96MOL    H5823048   5.204   1.171   2.712  1.3917 -0.2666 -0.7487
   96MOL    H5923049   5.248   1.028   2.805  0.5923 -0.9124 -0.1868
   96MOL    H6023050   5.129   1.004   2.408  0.5906  0.2298  0.1316
   96MOL    H6123051   5.096   1.149   2.499 -0.0086  0.3065 -1.1378
   96MOL    O6223052   4.868   1.056   2.406  0.1320 -0.1274 -0.4223
   96MOL    C6323053   4.724   1.019   2.395 -0.1889  0.2703 -0.1210
   96MOL    C6423054   4.653   1.154   2.402  0.2277 -0.3325  0.6145
   96MOL    C6523055   4.685   0.945   2.266 -0.4343 -0.1447 -0.4064
   96MOL    C6623056   4.748   0.807   2.267 -0.0533 -0.2287  0.1349
   96MOL    O6723057   4.688   0.708   2.323 -0.0074 -0.9145 -0.0921
   96MOL    H6823058   4.695   0.968   2.487  3.1747 -2.0221 -0.2590
   96MOL    H6923059   4.545   1.141   2.403  0.1264  0.5149  0.9734
   96MOL    H7023060   4.682   1.219   2.320 -1.5951 -1.5362 -1.0213
   96MOL    H7123061   4.683   1.210   2.491 -1.2326 -1.0874  1.6102
   96MOL    H7223062   4.717   1.002   2.178  4.3416 -2.5367 -0.3644
   96MOL    H7323063   4.576   0.946   2.254 -0.2969  1.4966 -1.7706
   96MOL    O7423064   4.872   0.805   2.219 -0.7217 -0.4689  0.2907
   96MOL    C7523065   4.952   0.684   2.220 -0.1489  0.3985 -0.3584
   96MOL    C7623066   4.922   0.632   2.072  0.3440 -0.0351  0.2605
   96MOL    C7723067   5.100   0.706   2.267  0.0747 -0.6104  0.2628
   96MOL    C7823068   5.205   0.769   2.164 -0.6759  0.0246  0.3194
   96MOL    O7923069   5.311   0.713   2.149 -0.6118  0.2499 -0.2630
   96MOL    H8023070   4.915   0.604   2.285  1.1535  1.5725  1.9314
   96MOL    H8123071   4.814   0.619   2.061  0.0342  2.2956  0.4136
   96MOL    H8223072   4.960   0.530   2.058  1.3972 -0.0822  3.2180
   96MOL    H8323073   4.957   0.697   1.992 -0.8407 -0.1994 -0.3981
   96MOL    H8423074   5.123   0.603   2.296  1.3487 -0.2002  0.7570
   96MOL    H8523075   5.107   0.763   2.359  1.1065  1.4228 -1.0419
   96MOL    O8623076   5.165   0.894   2.115  0.0968  0.3933 -0.2137
   96MOL    C8723077   5.256   0.952   2.020 -0.2998  0.4433 -0.3247
   96MOL    C8823078   5.213   0.931   1.872 -0.4132 -0.0124  0.7934
   96MOL    C8923079   5.291   1.091   2.073  0.4115  0.3639 -0.8611
   96MOL    C9023080   5.187   1.205   2.052 -0.0869  0.1697  0.5381
   96MOL    O9123081   5.089   1.189   1.976  0.3244  0.5550 -0.1782
   96MOL    H9223082   5.353   0.905   2.028 -1.0540 -0.6598  2.5916
   96MOL    H9323083   5.193   0.824   1.868 -2.0920  0.2426  1.6438
   96MOL    H9423084   5.285   0.968   1.800  0.1794 -1.9231  0.3642
   96MOL    H9523085   5.114   0.972   1.853 -0.5758 -0.7109  0.1116
   96MOL    H9623086   5.387   1.111   2.026  0.0715 -0.9095 -2.1036
   96MOL    H9723087   5.306   1.069   2.179 -0.5217 -1.2158 -1.0449
   96MOL    O9823088   5.221   1.316   2.121  0.6269 -0.3770  0.4510
   96MOL    C9923089   5.132   1.428   2.136  0.2822 -0.3534 -0.0338
   96MOL   C10023090   5.181   1.502   2.261  0.1546 -0.1311 -0.1301
   96MOL   C10123091   5.123   1.532   2.015 -0.4428  0.2972  0.0768
   96MOL   C10223092   4.999   1.621   2.015  0.4198 -0.0128  0.0290
   96MOL   O10323093   4.920   1.618   2.109 -0.3064  0.8645 -0.2786
   96MOL   H10423094   5.035   1.381   2.151 -0.8606  1.6261 -1.0043
   96MOL   H10523095   5.214   1.433   2.339 -4.2092 -3.9635 -1.4549
   96MOL   H10623096   5.096   1.560   2.296  0.1150 -1.4721  2.1153
   96MOL   H10723097   5.261   1.573   2.238  0.0372 -0.7554 -2.5170
   96MOL   H10823098   5.126   1.469   1.926 -0.3926  2.4773 -1.5075
   96MOL   H10923099   5.211   1.596   2.007 -0.8290  0.5575 -2.8165
   96MOL   O11023100   4.999   1.703   1.907 -0.1494 -0.5145 -0.5956
   96MOL   C11123101   4.902   1.805   1.903  0.1348 -1.3012 -0.0663
   96MOL   C11223102   4.975   1.941   1.935 -0.4482 -0.5692  0.0798
   96MOL   C11323103   4.815   1.804   1.773  0.2025 -0.1745  0.2224
   96MOL   C11423104   4.692   1.904   1.774 -0.3091 -0.0969 -1.0135
   96MOL   O11523105   4.587   1.863   1.823  0.7915 -0.5511  0.0153
   96MOL   H11623106   4.823   1.781   1.973  0.2528  3.1280  1.7609
   96MOL   H11723107   5.056   1.924   2.006 -0.8525  0.8051  0.8937
   96MOL   H11823108   4.913   2.017   1.983 -0.9688 -0.2293 -1.1093
   96MOL   H11923109   5.025   1.985   1.849  0.3710  0.2880  0.9824
   96MOL   H12023110   4.777   1.705   1.747  0.7803 -0.4666  0.4871
   96MOL   H12123111   4.887   1.835   1.698  0.5609  3.1055  1.8128
   96MOL   O12223112   4.726   2.032   1.731  0.1956  0.4470 -0.0546
   96MOL   C12323113   4.626   2.139   1.727  0.0836  0.2993 -0.4038
   96MOL   C12423114   4.717   2.263   1.723 -0.4156 -0.1026 -0.4710
   96MOL   C12523115   4.545   2.120   1.600 -0.2982  0.0528 -0.1767
   96MOL   C12623116   4.454   2.232   1.548 -0.3644 -0.7145 -0.5811
   96MOL   O12723117   4.390   2.302   1.628  0.0897 -0.4913  0.1986
   96MOL   H12823118   4.563   2.132   1.815  1.4553 -1.0200  0.4924
   96MOL   H12923119   4.663   2.357   1.725 -1.3259 -0.6195  2.4774
   96MOL   H13023120   4.786   2.268   1.639  2.0512  0.5172  1.5412
   96MOL   H13123121   4.776   2.263   1.815 -1.3255  0.2939  0.1206
   96MOL   H13223122   4.481   2.032   1.611 -0.4886 -0.0232 -1.8670
   96MOL   H13323123   4.622   2.092   1.529 -0.4969 -1.0350  0.0405
   96MOL   O13423124   4.473   2.252   1.419 -0.1805  0.1215 -0.7168
   96MOL   C13523125   4.403   2.343   1.341 -0.0655  0.3879  1.1168
   96MOL   C13623126   4.487   2.406   1.246 -0.1993  0.0071  0.4924
   96MOL   C13723127   4.277   2.267   1.288 -0.6454 -0.4070  0.3909
   96MOL   C13823128   4.304   2.172   1.171 -0.5581  1.0281 -0.4018
   96MOL   O13923129   4.238   2.178   1.068 -0.0455 -0.2876 -0.3869
   96MOL   H14023130   4.363   2.424   1.402  2.0920  2.0690  0.3201
   96MOL   H14123131   4.573   2.438   1.306  0.3130  1.4230 -0.9590
   96MOL   H14223132   4.443   2.487   1.188  2.5804  0.7611 -0.6343
   96MOL   H14323133   4.517   2.328   1.177  0.0282  0.0932  0.4920
   96MOL   H14423134   4.200   2.340   1.263  1.1614  1.4861  0.2912
   96MOL   H14523135   4.238   2.216   1.377  1.0983 -1.5686  0.5078
   96MOL   O14623136   4.402   2.083   1.190  0.0543 -0.0564  0.5113
   96MOL   C14723137   4.443   1.988   1.086  0.2011 -0.0453 -0.5580
   96MOL   C14823138   4.561   2.047   1.003 -0.3123 -0.0187 -0.2506
   96MOL   C14923139   4.470   1.857   1.166  0.7648  0.1557 -0.1749
   96MOL   C15023140   4.516   1.736   1.095 -0.6635  0.5937  0.3363
   96MOL   O15123141   4.484   1.706   0.980 -0.2003 -0.2657  0.4256
   96MOL   H15223142   4.360   1.978   1.017 -0.4056 -1.0297  0.3163
   96MOL   H15323143   4.650   2.058   1.065  1.1976 -1.3164 -2.1245
   96MOL   H15423144   4.560   2.138   0.945  1.5733 -0.7353 -1.4555
   96MOL   H15523145   4.581   1.974   0.925 -0.9598 -0.0400 -0.4026
   96MOL   H15623146   4.384   1.831   1.228 -1.5130 -1.5439 -3.8388
   96MOL   H15723147   4.552   1.873   1.235  1.2931 -3.1620  0.0792
   96MOL   O15823148   4.607   1.665   1.167  0.1136 -0.2581 -0.6014
   96MOL   C15923149   4.672   1.548   1.118 -0.0687 -0.6124  0.0203
   96MOL   C16023150   4.566   1.441   1.081  0.4069 -0.2212 -0.5941
   96MOL   C16123151   4.770   1.574   1.004 -0.2836 -0.3743  0.0754
   96MOL   C16223152   4.841   1.445   0.962 -0.3238  0.5205 -0.1295
   96MOL   O16323153   4.841   1.407   0.843  0.1634  0.1264  0.2501
   96MOL   H16423154   4.726   1.504   1.201  1.1587 -0.2476 -0.5822
   96MOL   H16523155   4.467   1.452   1.124 -0.0433 -0.9734 -1.4360
   96MOL   H16623156   4.613   1.348   1.113 -3.0186 -1.5811  0.6580
   96MOL   H16723157   4.548   1.456   0.974  0.2795 -0.8575 -0.6600
   96MOL   H16823158   4.840   1.657   1.017 -1.2190  0.1397  2.1115
   96MOL   H16923159   4.709   1.598   0.917 -0.9271 -0.9123  0.3750
   96MOL   O17023160   4.905   1.386   1.066 -0.0177  0.4363  0.3023
   96MOL   C17123161   5.009   1.290   1.031 -0.1429  0.1505 -0.3802
   96MOL   C17223162   5.149   1.342   1.068  0.5171  0.2391  0.1742
   96MOL   C17323163   4.973   1.154   1.114  0.7799 -0.6215  0.0823
   96MOL   C17423164   4.878   1.057   1.039  1.1159  0.0899 -0.6857
   96MOL   O17523165   4.884   0.934   1.062  0.3031 -0.2353  0.7066
   96MOL   H17623166   5.009   1.254   0.928 -0.6042  0.6424 -0.5597
   96MOL   H17723167   5.162   1.355   1.176 -1.3531 -2.1819  0.7394
   96MOL   H17823168   5.154   1.434   1.011 -1.2480  0.1826 -0.1161
   96MOL   H17923169   5.229   1.283   1.024  0.5420  1.1402 -1.0193
   96MOL   H18023170   4.932   1.171   1.213 -1.5417 -0.8812 -0.8149
   96MOL   H18123171   5.069   1.103   1.118  0.2720 -1.4914  1.3702
   96MOL   O18223172   4.776   1.122   0.973 -0.4982 -0.3721 -0.1871
   96MOL   C18323173   4.675   1.049   0.904  0.1696 -0.4152  0.5920
   96MOL   C18423174   4.546   1.138   0.883  0.2078 -0.1326  0.6420
   96MOL   C18523175   4.730   1.006   0.762 -0.8226 -0.1634  0.0861
   96MOL   C18623176   4.674   0.877   0.694 -0.0307 -0.2507  0.4046
   96MOL   O18723177   4.613   0.884   0.587 -0.0958 -0.4154  0.2535
   96MOL   H18823178   4.647   0.955   0.953 -2.1056 -0.3826 -0.5627
   96MOL   H18923179   4.477   1.097   0.810  0.5641  0.0081  0.2235
   96MOL   H19023180   4.581   1.237   0.853 -0.9377  0.3966  1.0105
   96MOL   H19123181   4.485   1.148   0.973 -0.1845 -0.0627  0.3656
   96MOL   H19223182   4.839   0.999   0.768 -0.8919 -0.0256  1.8578
   96MOL   H19323183   4.706   1.094   0.703  0.3604  0.9347  1.1951
   96MOL   O19423184   4.688   0.768   0.767  1.0006  0.6752 -0.2184
   96MOL   C19523185   4.667   0.636   0.710  0.5644 -0.0024  0.1081
   96MOL   C19623186   4.740   0.542   0.799  0.3306 -0.1265  0.0300
   96MOL   C19723187   4.519   0.594   0.698 -0.7461 -0.3820  0.0841
   96MOL   C19823188   4.492   0.473   0.605  0.0571 -0.3087  0.6378
   96MOL   O19923189   4.574   0.444   0.518  0.4662  0.1334 -0.5922
   96MOL   H20023190   4.711   0.638   0.610  1.2417  1.8613  0.4385
   96MOL   H20123191   4.733   0.440   0.761 -0.0620  0.4118 -1.3718
   96MOL   H20223192   4.685   0.536   0.893  0.7057 -0.6777  0.2132
   96MOL   H20323193   4.845   0.560   0.822 -0.1520  1.3813  1.1084
   96MOL   H20423194   4.462   0.674   0.651 -1.2784  0.6470  2.4368
   96MOL   H20523195   4.466   0.584   0.793 -0.6651  0.3347  0.2061
   96MOL   O20623196   4.369   0.416   0.620 -0.3754  0.2907 -0.2318
   96MOL   C20723197   4.333   0.312   0.522  0.1916  0.4998  0.7371
   96MOL   C20823198   4.271   0.204   0.602 -0.0021  0.5005 -0.5362
   96MOL   C20923199   4.247   0.379   0.411  1.1519  0.2304  0.5481
   96MOL   C21023200   4.328   0.453   0.304 -0.1911  0.1624  0.3633
   96MOL   O21123201   4.374   0.394   0.207 -0.5876 -0.1600  0.3575
   96MOL   H21223202   4.420   0.269   0.473 -0.9833 -0.9764 -0.0931
   96MOL   H21323203   4.180   0.228   0.657  0.5126 -0.8556  0.9632
   96MOL   H21423204   4.334   0.164   0.682  1.7500  0.0468 -2.1152
   96MOL   H21523205   4.253   0.110   0.549  1.7118 -0.5921  0.7300
   96MOL   H21623206   4.162   0.426   0.459  1.5710  1.9320 -0.3303
   96MOL   H21723207   4.190   0.299   0.363 -1.2288  0.8279  2.3178
   96MOL   O21823208   4.332   0.585   0.321  0.3140 -0.8560  0.4078
   96MOL   C21923209   4.396   0.675   0.230  0.2091  0.5211  0.6901
   96MOL   C22023210   4.311   0.802   0.228 -0.0353  0.0195  0.4010
   96MOL   C22123211   4.543   0.684   0.278 -0.6221 -0.5295  0.6314
   96MOL   C22223212   4.630   0.779   0.198 -0.2867 -0.6435 -1.2588
   96MOL   O22323213   4.591   0.858   0.115  0.1738  0.5908 -0.0606
   96MOL   H22423214   4.379   0.636   0.130  0.4791 -0.3071  0.9605
   96MOL   H22523215   4.203   0.793   0.223 -0.1653  1.4729  0.2385
   96MOL   H22623216   4.341   0.868   0.147 -1.5309  1.8065  1.2701
   96MOL   H22723217   4.329   0.857   0.320 -0.7237  0.0838  0.4986
   96MOL   H22823218   4.581   0.584   0.297 -0.8465 -1.2107 -2.2620
   96MOL   H22923219   4.542   0.734   0.375  1.0255  0.3879  0.1794
   96MOL   O23023220   4.760   0.763   0.230  0.1201  0.1805 -0.3368
   96MOL   C23123221   4.865   0.822   0.150 -0.5020 -0.0455  0.1246
   96MOL   C23223222   4.974   0.875   0.239  0.5285  0.2508  0.0238
   96MOL   C23323223   4.905   0.720   0.047 -0.2641  0.0277 -0.0295
   96MOL   C23423224   5.006   0.777   7.922 -0.5446 -0.2219 -0.0567
   96MOL   O23523225   5.054   0.694   7.844  0.1125 -0.8030 -0.0543
   96MOL   H23623226   4.824   0.910   0.100 -0.3952  1.4357  2.5418
   96MOL   H23723227   4.939   0.941   0.318  0.7987 -1.4714  1.6090
   96MOL   H23823228   5.045   0.926   0.174  0.8088 -0.8294 -0.5312
   96MOL   H23923229   5.036   0.800   0.289  0.2967 -1.3636 -2.0394
   96MOL   H24023230   4.832   0.668   7.965 -0.6141  0.0767  0.3392
   96MOL   H24123231   4.945   0.634   0.100  0.0756 -0.1467 -0.5593
   96MOL   H24223232   5.033   0.881   7.907  2.5561 -0.9796 -0.1190
   97MOL     O123233   0.515   2.781   3.632  0.1847 -0.5430  0.2217
   97MOL     C223234   0.637   2.737   3.688 -0.3459 -0.1758  0.6409
   97MOL     C323235   0.749   2.836   3.638 -0.3067  0.2231 -1.0921
   97MOL     C423236   0.612   2.739   3.838 -0.5495  0.7953  1.0130
   97MOL     C523237   0.702   2.661   3.931 -0.3037 -0.4567 -0.0030
   97MOL     O623238   0.735   2.695   4.047  0.1514 -0.4875  0.4888
   97MOL     H723239   0.649   2.634   3.657 -1.1502 -0.3867  1.0178
   97MOL     H823240   0.752   2.861   3.532  0.6150  0.8678 -0.9112
   97MOL     H923241   0.845   2.790   3.658 -0.7632 -0.3205 -0.1030
   97MOL    H1023242   0.755   2.925   3.701 -2.3169 -0.6067  0.3621
   97MOL    H1123243   0.516   2.695   3.867 -1.0530 -0.7089 -2.6913
   97MOL    H1223244   0.603   2.843   3.869  0.7918  1.4337 -0.6914
   97MOL    H1323245   0.522   2.755   3.542 -0.5856 -3.9154  1.0884
   97MOL    O1423246   0.743   2.542   3.881  0.7228 -0.2272 -0.1534
   97MOL    C1523247   0.846   2.466   3.947 -0.3100 -0.0889  0.1101
   97MOL    C1623248   0.793   2.327   3.950 -0.5425 -0.0249 -0.3068
   97MOL    C1723249   0.971   2.472   3.856  0.0471 -0.1035 -0.6286
   97MOL    C1823250   1.060   2.584   3.894  0.0281 -0.8052 -0.3499
   97MOL    O1923251   1.109   2.596   4.004  0.4238  0.0010  0.1881
   97MOL    H2023252   0.871   2.495   4.049 -0.0088 -0.3473  0.1111
   97MOL    H2123253   0.703   2.324   4.012 -0.9856 -1.6641 -1.0049
   97MOL    H2223254   0.852   2.245   3.990 -1.9409 -0.2868  1.2411
   97MOL    H2323255   0.761   2.290   3.853 -1.1678  3.0510 -1.3411
   97MOL    H2423256   0.935   2.479   3.753  1.0375 -0.6033 -1.0203
   97MOL    H2523257   1.036   2.386   3.874  0.6631  0.5770  0.4313
   97MOL    O2623258   1.064   2.669   3.802 -0.6778 -0.5571 -0.1591
   97MOL    C2723259   1.145   2.790   3.811 -0.5933  0.1847  0.1433
   97MOL    C2823260   1.274   2.759   3.733 -0.4580  0.3701 -0.8570
   97MOL    C2923261   1.072   2.914   3.760  0.0646  0.1399  0.7995
   97MOL    C3023262   1.147   3.046   3.768 -0.3863 -0.0509  0.0197
   97MOL    O3123263   1.174   3.113   3.671  0.2150 -0.0096  0.3396
   97MOL    H3223264   1.169   2.807   3.916 -1.0692 -2.7045  0.7749
   97MOL    H3323265   1.249   2.743   3.629  1.0461 -3.5001 -0.6968
   97MOL    H3423266   1.322   2.668   3.771 -1.2303 -1.1072 -3.3345
   97MOL    H3523267   1.342   2.842   3.719  0.8252 -0.3796  0.6596
   97MOL    H3623268   0.981   2.921   3.818  0.5819  0.3757  1.5888
   97MOL    H3723269   1.037   2.911   3.657 -1.5742  1.2491  1.3202
   97MOL    O3823270   1.193   3.080   3.891  0.5502  0.1376 -0.2343
   97MOL    C3923271   1.280   3.187   3.908 -0.5147 -0.4505 -0.0109
   97MOL    C4023272   1.297   3.212   4.062 -0.0691  0.9386  0.2969
   97MOL    C4123273   1.423   3.166   3.846  0.1316  0.3861 -0.3790
   97MOL    C4223274   1.500   3.054   3.912  0.0569  0.1655 -1.3280
   97MOL    O4323275   1.490   2.932   3.884 -0.6878  0.1097 -0.4169
   97MOL    H4423276   1.226   3.276   3.874  1.0118  0.0330 -1.2643
   97MOL    H4523277   1.205   3.255   4.100 -0.5058  1.1218 -0.9481
   97MOL    H4623278   1.368   3.292   4.082  0.6768  0.2142  0.6031
   97MOL    H4723279   1.319   3.119   4.114  0.3541 -0.3091 -2.0218
   97MOL    H4823280   1.485   3.255   3.858 -1.2471  1.1368  1.4046
   97MOL    H4923281   1.412   3.152   3.739 -1.9972  2.8162 -0.5247
   97MOL    O5023282   1.568   3.104   4.023 -0.3746 -0.3982  0.4559
   97MOL    C5123283   1.656   3.024   4.096  0.0315  0.1404 -0.0999
   97MOL    C5223284   1.799   3.048   4.039 -0.3611  0.4341  0.1601
   97MOL    C5323285   1.629   3.059   4.251  0.0114 -0.2095 -0.5392
   97MOL    C5423286   1.725   2.973   4.346 -0.0176  0.2603  0.9224
   97MOL    O5523287   1.824   3.019   4.403  0.1493 -0.8134  0.4640
   97MOL    H5623288   1.621   2.922   4.085 -3.3722  1.1676  0.5045
   97MOL    H5723289   1.866   2.983   4.095 -0.0298  1.2331  0.6979
   97MOL    H5823290   1.842   3.145   4.062 -0.4736  0.5450 -0.0938
   97MOL    H5923291   1.798   3.020   3.934  0.3778 -1.8815  0.7352
   97MOL    H6023292   1.526   3.036   4.278  0.0949  1.9774  1.8407
   97MOL    H6123293   1.648   3.164   4.274  2.7122 -0.7743  0.0631
   97MOL    O6223294   1.683   2.850   4.353  0.0622 -0.0574 -0.7117
   97MOL    C6323295   1.767   2.736   4.405 -0.1722  0.4334  0.8350
   97MOL    C6423296   1.673   2.639   4.477  0.1965 -0.2197  0.5188
   97MOL    C6523297   1.846   2.673   4.283 -0.6333  1.1973 -0.4767
   97MOL    C6623298   1.932   2.552   4.324 -0.2322 -0.0852 -0.2587
   97MOL    O6723299   2.021   2.565   4.405  0.6582 -0.0080 -0.1845
   97MOL    H6823300   1.841   2.761   4.481  0.2262 -1.0985  0.9786
   97MOL    H6923301   1.603   2.690   4.543 -0.0997 -2.0261  1.6207
   97MOL    H7023302   1.722   2.557   4.528 -1.4769 -1.9602 -0.5793
   97MOL    H7123303   1.610   2.581   4.409  0.1895 -0.4619  0.7315
   97MOL    H7223304   1.904   2.756   4.243 -2.1176  1.5550 -1.9450
   97MOL    H7323305   1.778   2.655   4.200 -0.4659 -0.4240 -0.2868
   97MOL    O7423306   1.891   2.442   4.267  0.1562  0.4012 -0.0632
   97MOL    C7523307   1.959   2.315   4.281 -0.0675  0.6596 -0.0418
   97MOL    C7623308   1.939   2.263   4.427 -0.7048  0.0186  0.2534
   97MOL    C7723309   1.911   2.221   4.180  0.3328 -0.0935  0.1404
   97MOL    C7823310   1.760   2.175   4.181  0.3343  0.0214  0.3595
   97MOL    O7923311   1.686   2.189   4.081 -0.3087  0.3928  0.4201
   97MOL    H8023312   2.062   2.344   4.261  0.1011 -1.4025 -2.3759
   97MOL    H8123313   1.992   2.329   4.496  1.8918 -1.4886 -0.2301
   97MOL    H8223314   1.985   2.165   4.443 -1.0020 -0.2423 -0.4892
   97MOL    H8323315   1.839   2.258   4.470 -0.4157  4.2421  1.6176
   97MOL    H8423316   1.977   2.137   4.198 -0.2022 -0.6020 -0.2585
   97MOL    H8523317   1.938   2.260   4.082  3.0762  0.6537  1.1585
   97MOL    O8623318   1.731   2.108   4.291 -0.0518  0.2412  0.0819
   97MOL    C8723319   1.605   2.048   4.308  0.0311 -0.4216 -0.4311
   97MOL    C8823320   1.623   1.901   4.275  0.4056 -0.4266 -0.0527
   97MOL    C8923321   1.561   2.078   4.456  0.0591 -0.1735  0.0912
   97MOL    C9023322   1.431   2.016   4.503 -0.1100  0.0904  0.1106
   97MOL    O9123323   1.336   1.988   4.428 -0.1017  0.4536  0.4372
   97MOL    H9223324   1.531   2.088   4.239 -0.8561 -0.2644  0.5881
   97MOL    H9323325   1.527   1.850   4.287 -0.0019 -0.0341 -1.6027
   97MOL    H9423326   1.688   1.852   4.347  2.2778  0.6896 -0.9595
   97MOL    H9523327   1.664   1.889   4.175 -1.8897  0.5564 -1.1678
   97MOL    H9623328   1.539   2.185   4.468 -0.1371 -0.4216  1.9945
   97MOL    H9723329   1.634   2.036   4.525  1.9723 -0.5645 -2.1191
   97MOL    O9823330   1.434   1.993   4.634  0.3650 -0.0126  0.4913
   97MOL    C9923331   1.323   1.940   4.703  0.4229 -0.1910  0.1483
   97MOL   C10023332   1.353   1.799   4.753  0.6061 -0.3602 -1.0979
   97MOL   C10123333   1.274   2.046   4.807  0.1857 -0.7132  0.3015
   97MOL   C10223334   1.126   2.016   4.847  0.3119  0.3878 -0.9256
   97MOL   O10323335   1.085   1.913   4.902 -0.3964 -0.0007 -0.2105
   97MOL   H10423336   1.249   1.924   4.624  0.2720  1.8423 -0.1497
   97MOL   H10523337   1.374   1.729   4.672  0.2144 -2.2283  0.3702
   97MOL   H10623338   1.273   1.764   4.819  0.6867  1.3446 -0.0714
   97MOL   H10723339   1.441   1.798   4.818  0.7768  1.9723 -1.2385
   97MOL   H10823340   1.279   2.150   4.777 -0.9175 -0.3483  1.3639
   97MOL   H10923341   1.351   2.042   4.884 -0.1652 -0.0807  0.6888
   97MOL   O11023342   1.051   2.129   4.838  0.0170  0.0090 -0.3881
   97MOL   C11123343   0.913   2.130   4.873  0.6017  0.0435 -0.1741
   97MOL   C11223344   0.896   2.233   4.984 -0.6112  0.0998  0.2108
   97MOL   C11323345   0.828   2.145   4.746 -0.3002 -0.2427 -0.2159
   97MOL   C11423346   0.680   2.153   4.767  0.8276  0.0345 -0.0168
   97MOL   O11523347   0.616   2.257   4.762  0.1661  0.4792 -0.7866
   97MOL   H11623348   0.886   2.036   4.920  0.9480  0.0942  0.1288
   97MOL   H11723349   0.959   2.216   5.071  0.1339 -0.0977 -0.3574
   97MOL   H11823350   0.792   2.234   5.016 -0.1414 -1.6794  1.8666
   97MOL   H11923351   0.930   2.333   4.954 -0.6276  0.7265  2.2290
   97MOL   H12023352   0.850   2.072   4.668  1.3405  1.4049 -1.3443
   97MOL   H12123353   0.849   2.241   4.699  1.7837 -0.9980 -0.8777
   97MOL   O12223354   0.618   2.035   4.788  0.7361  0.2731 -0.2412
   97MOL   C12323355   0.480   2.030   4.833 -0.3771  0.4584  0.4197
   97MOL   C12423356   0.418   1.898   4.783  0.2087 -0.5391  0.4586
   97MOL   C12523357   0.487   2.054   4.987  0.1359  0.0814 -0.3511
   97MOL   C12623358   0.557   1.952   5.076  1.1772 -0.4369  0.0777
   97MOL   O12723359   0.496   1.846   5.105 -0.0804 -0.1826  0.8610
   97MOL   H12823360   0.426   2.111   4.784  1.3574  0.9111 -0.7771
   97MOL   H12923361   0.456   1.805   4.825  0.2150 -1.0885 -0.7248
   97MOL   H13023362   0.422   1.893   4.674 -0.2117  2.5626  0.2707
   97MOL   H13123363   0.312   1.888   4.802  0.2440 -0.8569  0.4985
   97MOL   H13223364   0.384   2.048   5.020  0.0091 -0.8747 -0.8814
   97MOL   H13323365   0.522   2.150   5.024 -0.3499 -0.5549  1.7847
   97MOL   O13423366   0.675   1.988   5.122 -0.1221  0.4006 -0.9524
   97MOL   C13523367   0.755   1.910   5.208  0.3223  0.6773 -0.0247
   97MOL   C13623368   0.883   1.861   5.135 -1.2898  0.3382 -0.2412
   97MOL   C13723369   0.791   1.981   5.337 -0.2078 -0.6504 -0.3259
   97MOL   C13823370   0.673   2.026   5.418 -0.4675  0.0562  0.0366
   97MOL   O13923371   0.611   1.954   5.496  0.2866 -0.4672  0.4143
   97MOL   H14023372   0.704   1.816   5.231  1.1250  0.1229 -0.4704
   97MOL   H14123373   0.963   1.935   5.138 -0.9810  0.0495 -1.4590
   97MOL   H14223374   0.870   1.836   5.030  0.6051  2.2400 -0.9715
   97MOL   H14323375   0.928   1.777   5.188 -2.1076 -0.4983 -0.8707
   97MOL   H14423376   0.856   2.064   5.308 -1.4759  0.2771 -0.5429
   97MOL   H14523377   0.856   1.919   5.397 -0.3013 -0.8038 -0.3829
   97MOL   O14623378   0.645   2.159   5.395  0.0052  0.4445  0.0752
   97MOL   C14723379   0.520   2.213   5.445 -0.3086  0.0432  0.3553
   97MOL   C14823380   0.551   2.336   5.533 -0.3920 -0.4624 -0.5950
   97MOL   C14923381   0.443   2.247   5.313  0.0185  0.1796 -0.1450
   97MOL   C15023382   0.300   2.293   5.345 -1.1440 -0.3198 -0.3802
   97MOL   O15123383   0.207   2.214   5.332 -0.5508 -0.3510 -0.3170
   97MOL   H15223384   0.464   2.134   5.495 -0.9326  0.1552 -0.1567
   97MOL   H15323385   0.461   2.383   5.573 -0.9580 -1.1810 -1.0321
   97MOL   H15423386   0.592   2.417   5.473 -1.5587 -1.1383 -2.3336
   97MOL   H15523387   0.620   2.306   5.612 -2.4269 -3.1375  0.2068
   97MOL   H15623388   0.435   2.163   5.243 -0.2623  0.2592 -0.2078
   97MOL   H15723389   0.487   2.336   5.267 -1.2530  0.5509 -0.6655
   97MOL   O15823390   0.292   2.423   5.400 -0.4776  0.0831 -0.2543
   97MOL   C15923391   0.164   2.468   5.441  0.0690  0.1500 -0.1274
   97MOL   C16023392   0.188   2.557   5.553 -0.1372 -0.4617 -0.0167
   97MOL   C16123393   0.088   2.521   5.319  0.1434  0.6423 -0.5004
   97MOL   C16223394   7.927   2.560   5.357  0.5109 -0.4685 -0.1580
   97MOL   O16323395   7.881   2.668   5.329 -0.0120  0.3525 -0.4345
   97MOL   H16423396   0.117   2.377   5.477  2.4589 -0.1323  2.4660
   97MOL   H16523397   0.254   2.640   5.529  0.3140 -1.2582 -1.5938
   97MOL   H16623398   0.244   2.515   5.636 -0.9534 -1.3476  0.0956
   97MOL   H16723399   0.104   2.600   5.608  1.6481  0.6609  1.9188
   97MOL   H16823400   0.077   2.440   5.247  0.7827  2.0290 -2.2097
   97MOL   H16923401   0.133   2.611   5.278 -1.8507  2.8902  2.0954
   97MOL   O17023402   7.859   2.455   5.412 -0.1554 -0.2161  0.1325
   97MOL   C17123403   7.717   2.465   5.446  0.2654  0.3856  0.7642
   97MOL   C17223404   7.644   2.376   5.345 -0.3612  0.0921 -0.4317
   97MOL   C17323405   7.685   2.437   5.594  1.1371 -0.3128 -0.0165
   97MOL   C17423406   7.738   2.537   5.687  0.4278  0.8240  0.3757
   97MOL   O17523407   7.744   2.650   5.656 -0.1595  0.2884  0.1041
   97MOL   H17623408   7.687   2.570   5.439 -2.2610 -0.3489  0.2091
   97MOL   H17723409   7.540   2.410   5.339 -0.5624 -0.8377 -2.6977
   97MOL   H17823410   7.664   2.273   5.374  2.5174  0.8929  0.6066
   97MOL   H17923411   7.684   2.388   5.245 -0.3502  1.4485 -0.2726
   97MOL   H18023412   7.717   2.338   5.628  1.4485  0.2951  1.4879
   97MOL   H18123413   7.577   2.431   5.610  0.9863 -0.9319 -1.1814
   97MOL   O18223414   7.796   2.483   5.789  0.0171 -0.6793 -0.0434
   97MOL   C18323415   7.841   2.564   5.899 -0.0101  0.1971 -0.1378
   97MOL   C18423416   7.774   2.507   6.030  0.0194 -0.0379 -0.0120
   97MOL   C18523417   0.015   2.565   5.894 -0.5452 -0.0956 -0.1766
   97MOL   C18623418   0.065   2.703   5.940 -0.0030 -0.0098 -0.2406
   97MOL   O18723419   0.143   2.712   6.032 -0.1112  0.2983  0.4169
   97MOL   H18823420   7.798   2.663   5.887  2.0475  1.1698  0.1934
   97MOL   H18923421   7.828   2.545   6.116 -0.1726 -0.0006  0.0919
   97MOL   H19023422   7.758   2.399   6.029 -1.4861  0.1827 -0.1697
   97MOL   H19123423   7.672   2.543   6.042 -0.1237 -0.5515  0.3551
   97MOL   H19223424   0.044   2.545   5.791  0.3148 -0.9633  0.2214
   97MOL   H19323425   0.037   2.487   5.967  0.6750 -2.5246 -3.0293
   97MOL   O19423426   0.008   2.802   5.872  0.2483  0.1444  0.7154
   97MOL   C19523427   0.033   2.942   5.895 -0.9117  0.0353  0.5654
   97MOL   C19623428   0.084   2.992   5.760 -0.1549 -0.2589  0.8061
   97MOL   C19723429   7.888   3.009   5.953 -0.3814 -0.4887  0.6408
   97MOL   C19823430   7.906   3.147   6.011 -0.8510  0.7761  0.3382
   97MOL   O19923431   0.016   3.212   5.961 -0.0340  0.3046  0.5987
   97MOL   H20023432   0.112   2.948   5.970 -2.8784 -1.0294  2.7720
   97MOL   H20123433   0.124   3.094   5.764 -2.4402  0.8168 -1.8169
   97MOL   H20223434   0.018   2.967   5.677 -0.3253 -0.5032  1.0175
   97MOL   H20323435   0.173   2.944   5.717 -0.2146  0.5694 -0.2837
   97MOL   H20423436   7.851   2.940   6.029  0.4573 -1.3363  0.2977
   97MOL   H20523437   7.819   3.006   5.870 -3.4720 -0.1549  3.1098
   97MOL   O20623438   7.819   3.183   6.108 -0.0240 -0.4126  0.0588
   97MOL   C20723439   7.823   3.317   6.161 -1.1330  1.2184 -0.4129
   97MOL   C20823440   7.683   3.372   6.122 -0.0706  0.3601 -0.4081
   97MOL   C20923441   7.853   3.317   6.315 -0.2310  0.0544  0.2437
   97MOL   C21023442   7.901   3.448   6.370 -0.2823  0.3409  0.7452
   97MOL   O21123443   7.953   3.533   6.295 -0.6014 -0.2475 -0.0841
   97MOL   H21223444   7.899   3.379   6.112 -1.3710  0.6734 -1.4736
   97MOL   H21323445   7.646   3.347   6.023  0.6181  1.4504 -0.9519
   97MOL   H21423446   7.692   3.480   6.129 -1.4079  0.4860 -0.5660
   97MOL   H21523447   7.602   3.345   6.190  1.5715  2.0178  2.3302
   97MOL   H21623448   7.941   3.259   6.341 -0.6669 -1.3449 -1.3735
   97MOL   H21723449   7.773   3.272   6.374 -0.6962  0.5956  0.0333
   97MOL   O21823450   7.883   3.458   6.496  0.0281  0.2578 -0.2636
   97MOL   C21923451   7.925   3.569   6.563  0.8882 -0.0251  0.0774
   97MOL   C22023452   7.809   3.670   6.554 -0.1921  0.0683  0.2007
   97MOL   C22123453   0.009   3.541   6.701  0.4437 -0.0664 -0.4251
   97MOL   C22223454   7.888   3.486   6.798 -0.8453  0.7058  0.1166
   97MOL   O22323455   7.913   3.386   6.867  0.2156 -0.3492 -0.4588
   97MOL   H22423456   0.033   3.609   6.512 -0.5049  1.3596 -1.2847
   97MOL   H22523457   7.827   3.754   6.622  1.2010 -1.2805  1.5587
   97MOL   H22623458   7.710   3.636   6.583 -1.4588  2.7649 -0.7583
   97MOL   H22723459   7.804   3.712   6.454  1.2587  0.2590  0.1994
   97MOL   H22823460   0.057   3.632   6.736 -0.3412  0.8294 -1.6712
   97MOL   H22923461   0.088   3.467   6.688 -0.6577 -1.0119 -1.8787
   97MOL   O23023462   7.788   3.569   6.816 -0.1634  0.0325  0.2274
   97MOL   C23123463   7.697   3.553   6.922 -0.0123  0.4736  0.2404
   97MOL   C23223464   7.666   3.692   6.977 -0.2445 -0.5888 -0.2824
   97MOL   C23323465   7.576   3.461   6.888 -1.1771 -0.0727  0.3194
   97MOL   C23423466   7.464   3.536   6.815  0.3355  0.3276  0.2142
   97MOL   O23523467   7.482   3.623   6.732  0.3031 -0.0258  0.0433
   97MOL   H23623468   7.751   3.507   7.006  0.5077 -2.8085 -1.7936
   97MOL   H23723469   7.755   3.742   7.016 -0.4717 -0.7186  0.4126
   97MOL   H23823470   7.599   3.698   7.063 -1.5147 -1.5556 -1.1818
   97MOL   H23923471   7.633   3.771   6.909  0.3554  1.0113  1.2337
   97MOL   H24023472   7.527   3.435   6.982  0.6275 -0.6648  1.1103
   97MOL   H24123473   7.606   3.374   6.831  3.5322  1.0800  0.8494
   97MOL   H24223474   7.367   3.494   6.842  1.0792 -1.7968 -0.2904
   98MOL     O123475   4.701   1.232   1.351 -0.3413 -0.2687 -0.4741
   98MOL     C223476   4.793   1.221   1.451 -0.8039 -0.4942 -0.2023
   98MOL     C323477   4.851   1.357   1.486 -0.0800 -0.4297 -0.4462
   98MOL     C423478   4.730   1.141   1.578 -0.8737  0.1571  0.5391
   98MOL     C523479   4.655   1.222   1.681  0.0207  0.2419  0.1225
   98MOL     O623480   4.528   1.209   1.685 -0.2358 -1.1817 -0.4886
   98MOL     H723481   4.880   1.161   1.427 -1.2653 -0.9088 -0.8635
   98MOL     H823482   4.899   1.394   1.396  2.5790 -1.1172  0.6415
   98MOL     H923483   4.933   1.350   1.557 -1.3994  2.6389  1.4845
   98MOL    H1023484   4.777   1.432   1.512 -1.7314 -1.9697 -0.6205
   98MOL    H1123485   4.815   1.097   1.631 -0.5279  1.9050  1.4747
   98MOL    H1223486   4.665   1.063   1.539  0.0597 -0.0701 -0.5976
   98MOL    H1323487   4.681   1.152   1.304 -2.5885  0.2265 -0.4329
   98MOL    O1423488   4.734   1.292   1.773 -0.2048 -0.6060  0.0417
   98MOL    C1523489   4.670   1.344   1.896 -0.2906 -0.4199 -0.4564
   98MOL    C1623490   4.753   1.300   2.019  0.3731  0.2258 -0.2178
   98MOL    C1723491   4.651   1.496   1.892  0.1173  0.8438 -0.2118
   98MOL    C1823492   4.527   1.536   1.814  1.4793  0.2192  0.5395
   98MOL    O1923493   4.417   1.554   1.863 -0.3738  0.0864  0.0146
   98MOL    H2023494   4.574   1.294   1.909  0.2417 -1.0909  0.9264
   98MOL    H2123495   4.765   1.191   2.018 -0.3851  0.1402 -0.7016
   98MOL    H2223496   4.687   1.319   2.103 -2.5735  0.7252 -2.5677
   98MOL    H2323497   4.847   1.354   2.028  1.9806 -2.5406  0.3145
   98MOL    H2423498   4.749   1.531   1.860  0.0246  0.4954 -0.8851
   98MOL    H2523499   4.633   1.528   1.994 -0.6652  0.7054 -0.3005
   98MOL    O2623500   4.549   1.546   1.689 -0.5946 -0.2047  0.1863
   98MOL    C2723501   4.453   1.579   1.587  0.4409  0.5813  0.5213
   98MOL    C2823502   4.517   1.679   1.498 -0.3827 -0.3404  0.0074
   98MOL    C2923503   4.389   1.454   1.527 -0.5646  0.0077 -0.0343
   98MOL    C3023504   4.257   1.486   1.454  0.1102  0.6223 -0.3786
   98MOL    O3123505   4.169   1.544   1.508  0.3781 -0.4890  0.3549
   98MOL    H3223506   4.378   1.637   1.642 -0.7032 -0.0482 -0.3489
   98MOL    H3323507   4.437   1.706   1.428 -0.4439  0.5101  0.3997
   98MOL    H3423508   4.598   1.629   1.445  0.3412 -0.3016  1.0627
   98MOL    H3523509   4.545   1.762   1.561  0.7104 -0.1653 -0.7018
   98MOL    H3623510   4.354   1.384   1.603 -0.9039 -0.7137 -0.8442
   98MOL    H3723511   4.464   1.407   1.464 -1.3144 -0.2783 -0.7124
   98MOL    O3823512   4.248   1.441   1.323  0.4571  0.0669 -0.4148
   98MOL    C3923513   4.129   1.455   1.244  0.1579 -0.1309 -0.3660
   98MOL    C4023514   4.146   1.584   1.155 -0.1417  0.3963  0.0627
   98MOL    C4123515   4.109   1.337   1.152  0.1558  0.7099  0.0281
   98MOL    C4223516   3.973   1.325   1.083 -0.1067  0.2815  0.2724
   98MOL    O4323517   3.908   1.422   1.043 -0.2584  0.2134  0.0617
   98MOL    H4423518   4.036   1.460   1.300 -0.1742  0.2722 -0.9437
   98MOL    H4523519   4.224   1.555   1.085  0.4968 -1.4619  1.4904
   98MOL    H4623520   4.182   1.674   1.206  0.1671  0.9363 -1.0952
   98MOL    H4723521   4.060   1.615   1.096  0.8447  2.6900 -0.2579
   98MOL    H4823522   4.124   1.253   1.220  1.0493  1.6388  0.9862
   98MOL    H4923523   4.186   1.330   1.076 -0.2393 -2.0119 -0.1621
   98MOL    O5023524   3.950   1.198   1.051  0.0549  0.3281  0.0032
   98MOL    C5123525   3.821   1.169   1.006  0.5317  0.7336 -0.2604
   98MOL    C5223526   3.801   1.199   0.853  1.0359 -0.0433 -0.2487
   98MOL    C5323527   3.802   1.017   1.032 -0.6046  0.3105 -0.2141
   98MOL    C5423528   3.808   0.970   1.174 -0.4209 -0.0489 -0.9195
   98MOL    O5523529   3.912   0.922   1.224  0.2104 -0.1577 -0.0194
   98MOL    H5623530   3.745   1.221   1.065 -1.6321 -3.6141  1.0394
   98MOL    H5723531   3.814   1.305   0.834 -3.3548  0.6818  0.4191
   98MOL    H5823532   3.696   1.184   0.830  0.8540  1.5405 -0.4496
   98MOL    H5923533   3.863   1.140   0.784 -1.5819 -0.5816 -2.2173
   98MOL    H6023534   3.882   0.972   0.973 -0.7400 -0.1403 -0.0597
   98MOL    H6123535   3.710   0.982   0.984 -0.5162  1.1851 -1.0380
   98MOL    O6223536   3.690   0.977   1.240  0.0538  0.4723  0.8451
   98MOL    C6323537   3.673   0.925   1.377  0.2190  0.3112 -0.5439
   98MOL    C6423538   3.541   0.975   1.424 -0.2094 -0.1916  0.1115
   98MOL    C6523539   3.684   0.772   1.378 -0.1280 -0.2668 -0.4400
   98MOL    C6623540   3.731   0.705   1.515  0.5114 -0.0928 -0.5456
   98MOL    O6723541   3.685   0.740   1.624  0.5186  0.9666  0.1716
   98MOL    H6823542   3.748   0.975   1.439  0.2697  0.9564 -1.1271
   98MOL    H6923543   3.536   1.083   1.440  1.0170 -0.3856  1.9520
   98MOL    H7023544   3.496   0.933   1.514 -1.5548  0.6131 -0.1694
   98MOL    H7123545   3.469   0.948   1.347  0.2150 -1.4443  0.1435
   98MOL    H7223546   3.764   0.740   1.311 -2.1735 -0.9319 -2.6136
   98MOL    H7323547   3.590   0.740   1.335 -0.7810 -0.0725  0.8215
   98MOL    O7423548   3.841   0.630   1.505 -0.3829 -0.7036 -0.7340
   98MOL    C7523549   3.912   0.580   1.620  0.1252  0.6221  0.6435
   98MOL    C7623550   3.984   0.449   1.575  0.1488 -0.3018  0.0352
   98MOL    C7723551   4.009   0.694   1.669 -0.2904 -0.1077  0.6318
   98MOL    C7823552   4.061   0.681   1.809  0.0533 -0.0376  0.0558
   98MOL    O7923553   4.174   0.678   1.844 -0.1213 -0.3012 -0.2647
   98MOL    H8023554   3.838   0.566   1.699  1.1114 -1.0008  1.3145
   98MOL    H8123555   3.911   0.381   1.530 -0.8904 -0.3692  1.7825
   98MOL    H8223556   4.031   0.406   1.663  0.5418 -1.6684 -0.8406
   98MOL    H8323557   4.058   0.473   1.499 -0.2128  0.6276 -0.0419
   98MOL    H8423558   3.971   0.796   1.660  2.3133  0.7841 -0.5802
   98MOL    H8523559   4.099   0.685   1.609  0.5933  2.2077  1.5485
   98MOL    O8623560   3.956   0.673   1.891 -0.1282 -0.1576  0.0060
   98MOL    C8723561   3.965   0.663   2.026  0.6996 -0.2404 -0.1679
   98MOL    C8823562   3.854   0.751   2.087  0.2109  0.3802  0.0742
   98MOL    C8923563   3.957   0.519   2.057  0.3531 -0.1237  0.1946
   98MOL    C9023564   3.828   0.446   2.019  1.0218 -1.1452 -0.0746
   98MOL    O9123565   3.815   0.374   1.927 -0.7201 -0.6376  0.3723
   98MOL    H9223566   4.059   0.701   2.065 -0.3899  1.6609  0.6753
   98MOL    H9323567   3.859   0.754   2.196  0.2298  0.2214  0.0779
   98MOL    H9423568   3.754   0.720   2.056  0.0426  0.9530  0.0471
   98MOL    H9523569   3.870   0.857   2.070 -1.4951  0.4924 -0.9049
   98MOL    H9623570   3.973   0.499   2.163  1.0107  0.7697  0.2714
   98MOL    H9723571   4.039   0.469   2.006 -0.4149  1.3274 -2.5619
   98MOL    O9823572   3.735   0.465   2.115  0.0511  0.2284 -0.4382
   98MOL    C9923573   3.602   0.412   2.106 -0.0783 -0.0543  0.3808
   98MOL   C10023574   3.619   0.259   2.123 -0.5733  0.3190 -0.0494
   98MOL   C10123575   3.504   0.500   2.191  0.2564 -0.4370  0.0774
   98MOL   C10223576   3.507   0.474   2.348  0.2029 -0.4814 -0.5597
   98MOL   O10323577   3.479   0.365   2.390 -0.2155 -1.0613 -0.2306
   98MOL   H10423578   3.578   0.423   2.000 -1.2314  0.2521  0.6748
   98MOL   H10523579   3.644   0.231   2.225 -0.0846  2.5507  0.4585
   98MOL   H10623580   3.700   0.216   2.064  1.1696  0.3102  2.2633
   98MOL   H10723581   3.526   0.212   2.089 -1.1151 -1.6718  3.9091
   98MOL   H10823582   3.398   0.489   2.169 -0.5166 -1.1802  3.7570
   98MOL   H10923583   3.518   0.606   2.174 -1.5842 -0.0143  1.0924
   98MOL   O11023584   3.518   0.589   2.416  0.2851  0.1594  0.3999
   98MOL   C11123585   3.530   0.594   2.557 -0.2053  0.2901  0.0369
   98MOL   C11223586   3.685   0.611   2.594  0.5187  0.2162  0.5122
   98MOL   C11323587   3.430   0.707   2.611 -0.5130 -0.1433  0.1180
   98MOL   C11423588   3.420   0.695   2.764 -0.4787 -0.8895  0.5296
   98MOL   O11523589   3.470   0.606   2.830  0.2181 -0.3074 -0.0450
   98MOL   H11623590   3.493   0.499   2.596 -1.3257 -0.4710 -2.7497
   98MOL   H11723591   3.715   0.595   2.698  3.5062 -0.0494 -0.3442
   98MOL   H11823592   3.698   0.718   2.581  1.6540  0.0962  0.6335
   98MOL   H11923593   3.746   0.549   2.528  1.3233 -2.1272  3.3457
   98MOL   H12023594   3.330   0.697   2.569 -0.8130  0.6182  0.6535
   98MOL   H12123595   3.464   0.809   2.594  1.5102 -0.7867  0.1666
   98MOL   O12223596   3.340   0.798   2.811  0.0370 -0.5875 -0.3711
   98MOL   C12323597   3.313   0.811   2.951  0.3979  0.2209 -0.0877
   98MOL   C12423598   3.320   0.960   2.983 -0.5296  0.1408 -0.1490
   98MOL   C12523599   3.164   0.762   2.976  0.6975  0.4935  0.7012
   98MOL   C12623600   3.169   0.611   3.002  1.1308 -0.5749 -0.0316
   98MOL   O12723601   3.111   0.527   2.928  0.4477 -0.3866  0.2684
   98MOL   H12823602   3.385   0.756   3.012  0.4870 -0.6285 -0.9429
   98MOL   H12923603   3.268   1.009   2.900 -1.7451 -0.7122  0.0999
   98MOL   H13023604   3.424   0.992   2.988 -0.3406 -0.4806 -0.1050
   98MOL   H13123605   3.280   0.981   3.083 -0.2000  0.7715 -0.1471
   98MOL   H13223606   3.098   0.793   2.895  0.1477  1.5881  1.5610
   98MOL   H13323607   3.132   0.799   3.074  0.6217  1.0701  0.4598
   98MOL   O13423608   3.241   0.580   3.113 -0.2726 -0.0195 -0.2130
   98MOL   C13523609   3.274   0.446   3.150 -0.0861  0.0974 -0.2199
   98MOL   C13623610   3.423   0.432   3.117 -0.2085 -0.9881  0.0675
   98MOL   C13723611   3.240   0.421   3.299  0.0947 -0.0181  0.2095
   98MOL   C13823612   3.091   0.406   3.335  0.7795  0.0495  0.1039
   98MOL   O13923613   3.050   0.300   3.385  0.4644  0.2694 -0.7774
   98MOL   H14023614   3.224   0.378   3.081  0.0758 -2.3535  2.0082
   98MOL   H14123615   3.450   0.451   3.013 -2.2207 -0.4610 -0.3604
   98MOL   H14223616   3.445   0.325   3.123  1.1109 -0.7783 -0.8353
   98MOL   H14323617   3.493   0.481   3.185 -1.1565  1.4657 -0.7086
   98MOL   H14423618   3.308   0.476   3.364  2.2041 -0.7837 -1.3116
   98MOL   H14523619   3.280   0.323   3.320  1.2504  0.4105  0.0467
   98MOL   O14623620   3.010   0.517   3.319 -0.2793 -0.1610 -0.1907
   98MOL   C14723621   2.866   0.511   3.327 -0.1002 -0.0277  0.2556
   98MOL   C14823622   2.825   0.652   3.353  0.3985 -0.0582 -0.2533
   98MOL   C14923623   2.796   0.449   3.203 -0.3232 -0.5078  0.6828
   98MOL   C15023624   2.815   0.297   3.168  0.0716  0.2617 -0.5345
   98MOL   O15123625   2.890   0.255   3.079 -0.3418  0.3586  0.0660
   98MOL   H15223626   2.844   0.447   3.412  0.5984 -0.1108  0.3731
   98MOL   H15323627   2.849   0.716   3.268 -0.3537  1.3955  0.5878
   98MOL   H15423628   2.870   0.692   3.444  2.0857 -2.1323 -0.1439
   98MOL   H15523629   2.717   0.649   3.366  0.2765 -1.5219 -1.4909
   98MOL   H15623630   2.817   0.520   3.123 -1.1951 -1.4191 -0.3806
   98MOL   H15723631   2.688   0.459   3.214 -0.3160  0.9571 -0.3696
   98MOL   O15823632   2.745   0.215   3.250 -0.2592 -0.1873 -0.1958
   98MOL   C15923633   2.773   0.076   3.252  0.2311  0.0332 -0.4208
   98MOL   C16023634   2.811   0.054   3.399 -0.4725  0.8368  0.3733
   98MOL   C16123635   2.649   0.007   3.209 -0.5421  0.3996 -0.3234
   98MOL   C16223636   2.613   0.035   3.058  0.6602 -0.8935  0.7851
   98MOL   O16323637   2.510   0.091   3.026  0.1715 -0.0837  0.5743
   98MOL   H16423638   2.865   0.051   3.199  1.0024 -3.0901  2.2049
   98MOL   H16523639   2.750   0.117   3.463 -0.0355  1.5833  0.0531
   98MOL   H16623640   2.918   0.078   3.402  0.0138 -1.2949  0.9408
   98MOL   H16723641   2.809   7.926   3.418  2.6800  0.6435 -0.0907
   98MOL   H16823642   2.566   0.043   3.270 -0.4346  0.1003  0.0064
   98MOL   H16923643   2.665   7.879   3.210  2.4016  0.7852 -0.9492
   98MOL   O17023644   2.708   7.970   2.973 -0.4918 -0.0528  0.1666
   98MOL   C17123645   2.721   0.037   2.838  1.4916  0.1823 -0.3782
   98MOL   C17223646   2.867   0.040   2.808 -0.0774 -0.3505  0.1220
   98MOL   C17323647   2.647   7.913   2.749  0.1170 -0.5206 -0.2015
   98MOL   C17423648   2.627   7.950   2.600  0.5784 -0.0940  0.3815
   98MOL   O17523649   2.626   0.085   2.557  0.0925 -0.3639  0.3170
   98MOL   H17623650   2.679   0.136   2.823 -0.8806 -0.7190 -0.0323
   98MOL   H17723651   2.905   7.918   2.800 -1.9420 -0.9659 -1.1900
   98MOL   H17823652   2.924   0.106   2.873  0.7408 -0.5238 -0.4085
   98MOL   H17923653   2.870   0.084   2.708 -0.6035  0.6911  0.5497
   98MOL   H18023654   2.551   7.891   2.795  0.4547  0.2714  0.9118
   98MOL   H18123655   2.696   7.816   2.756 -0.7372 -0.8679  1.3624
   98MOL   O18223656   2.600   7.835   2.532 -0.3409  0.2077 -0.8951
   98MOL   C18323657   2.611   7.827   2.393  0.1076 -0.8858  0.5297
   98MOL   C18423658   2.612   7.669   2.375 -0.2301 -0.2823  0.1415
   98MOL   C18523659   2.508   7.904   2.303  0.9434 -0.8534 -0.3431
   98MOL   C18623660   2.364   7.870   2.341  0.1262  0.5908  0.1337
   98MOL   O18723661   2.293   7.797   2.275  0.1868  0.3844 -0.5675
   98MOL   H18823662   2.707   7.865   2.358  0.4548 -0.0995  2.2794
   98MOL   H18923663   2.523   7.629   2.422  0.4249  1.3857  2.8951
   98MOL   H19023664   2.700   7.634   2.429 -0.1183 -1.1566 -0.5844
   98MOL   H19123665   2.632   7.645   2.270 -1.0644  0.5359 -0.2121
   98MOL   H19223666   2.525   7.873   2.200  0.7194 -1.6519 -0.1426
   98MOL   H19323667   2.531   0.031   2.304 -0.0938 -0.6278  1.6078
   98MOL   O19423668   2.322   7.943   2.446  0.4581  0.0919  0.0810
   98MOL   C19523669   2.202   7.918   2.508  0.7205 -0.0234  0.0279
   98MOL   C19623670   2.238   7.874   2.652  0.3738 -0.2181  0.1395
   98MOL   C19723671   2.124   0.078   2.512  0.0172 -0.0361  0.0942
   98MOL   C19823672   2.068   0.115   2.370  0.4609  0.0531  0.9150
   98MOL   O19923673   2.089   0.225   2.317 -0.5224  0.1364 -0.6436
   98MOL   H20023674   2.148   7.840   2.455  0.6496 -0.4940  0.7891
   98MOL   H20123675   2.295   7.952   2.703 -0.9297  0.3660  0.7118
   98MOL   H20223676   2.294   7.781   2.654 -0.2681 -0.5880  1.1743
   98MOL   H20323677   2.155   7.842   2.714  0.5697 -0.4102  0.3043
   98MOL   H20423678   2.181   0.163   2.549 -0.9228  1.5865 -2.0484
   98MOL   H20523679   2.032   0.063   2.568 -1.3325  1.9813 -1.5262
   98MOL   O20623680   1.984   0.020   2.314  0.4411  0.0981  0.0885
   98MOL   C20723681   1.934   0.034   2.186 -0.2242 -0.3386 -0.0022
   98MOL   C20823682   1.894   7.872   2.149  0.6578 -0.3659 -0.2332
   98MOL   C20923683   1.810   0.134   2.195 -0.6234  0.4173 -0.2920
   98MOL   C21023684   1.745   0.159   2.057 -0.4697 -0.4064  0.0371
   98MOL   O21123685   1.632   0.124   2.031 -0.1666 -0.2629  0.1001
   98MOL   H21223686   2.009   0.081   2.122 -2.8086 -0.0852 -2.9449
   98MOL   H21323687   1.813   7.844   2.215  0.0992  2.8775  0.5579
   98MOL   H21423688   1.985   7.814   2.168  0.3389 -0.7003  0.2687
   98MOL   H21523689   1.860   7.883   2.046  1.8918  0.8907 -0.5292
   98MOL   H21623690   1.828   0.231   2.240 -0.0612  0.0996  0.1653
   98MOL   H21723691   1.723   0.095   2.247 -0.0178  0.5257  0.8124
   98MOL   O21823692   1.835   0.213   1.967 -0.3659  0.0200 -0.1268
   98MOL   C21923693   1.804   0.236   1.828  0.7413  0.5154 -0.0448
   98MOL   C22023694   1.829   0.394   1.814  0.0106  0.6566 -0.3163
   98MOL   C22123695   1.889   0.150   1.735 -0.0076  0.1227  0.3204
   98MOL   C22223696   1.829   0.011   1.721  0.5796  0.5238 -0.2100
   98MOL   O22323697   1.884   7.896   1.782 -0.0268 -0.1203 -0.0437
   98MOL   H22423698   1.698   0.221   1.808 -0.0851  5.0408  0.3493
   98MOL   H22523699   1.909   0.432   1.877 -1.6043  0.5513  1.8482
   98MOL   H22623700   1.741   0.458   1.825 -0.7986 -0.1431 -1.8247
   98MOL   H22723701   1.873   0.419   1.718 -0.1308 -0.0974 -0.5833
   98MOL   H22823702   1.996   0.155   1.754 -0.0117  0.2309  0.3181
   98MOL   H22923703   1.872   0.194   1.636 -1.5995 -1.6792 -0.2282
   98MOL   O23023704   1.725   7.978   1.635  0.2213  0.0961 -0.5007
   98MOL   C23123705   1.645   7.861   1.651 -0.0528  0.4952 -0.3818
   98MOL   C23223706   1.527   7.923   1.721  0.6450 -0.8895  0.2910
   98MOL   C23323707   1.617   7.800   1.517  0.4611  0.4088  0.3867
   98MOL   C23423708   1.731   7.729   1.457 -0.5204 -1.1820  0.0364
   98MOL   O23523709   1.768   7.616   1.493 -0.0661 -0.0153 -0.0881
   98MOL   H23623710   1.684   7.782   1.714  2.1593  3.4969  2.1989
   98MOL   H23723711   1.482   0.015   1.653  0.1411 -1.0635  0.4398
   98MOL   H23823712   1.542   7.971   1.818 -0.4778 -0.6009  0.3257
   98MOL   H23923713   1.449   7.849   1.741 -0.2479  0.3558  1.5023
   98MOL   H24023714   1.588   7.881   1.450  2.9463 -0.8873 -2.3599
   98MOL   H24123715   1.532   7.732   1.517  2.0838 -1.6713 -0.5949
   98MOL   H24223716   1.782   7.784   1.378 -0.9531  0.6309  0.9815
   99MOL     O123717   2.095   0.769   7.021  0.2048 -0.3806 -0.0146
   99MOL     C223718   2.138   0.665   7.108 -0.4582 -0.2483  0.6612
   99MOL     C323719   2.050   0.681   7.233  0.7415 -0.4106 -0.7638
   99MOL     C423720   2.118   0.526   7.052 -0.0346 -0.6094  0.1737
   99MOL     C523721   2.184   0.491   6.915 -0.0337 -0.3456 -0.1775
   99MOL     O623722   2.227   0.576   6.843 -0.0494 -0.1543  0.0025
   99MOL     H723723   2.244   0.673   7.134 -0.7670 -0.0927  1.8965
   99MOL     H823724   1.950   0.641   7.214 -1.3790  2.7206  3.0941
   99MOL     H923725   2.045   0.782   7.274 -1.5140  1.0101 -4.2888
   99MOL    H1023726   2.087   0.618   7.314  0.9770  1.9202  0.9796
   99MOL    H1123727   2.014   0.518   7.022  0.2708 -1.8086 -0.5945
   99MOL    H1223728   2.147   0.455   7.129  0.4397  0.2953  0.8359
   99MOL    H1323729   2.116   0.736   6.935 -0.0670 -1.6335  0.3917
   99MOL    O1423730   2.173   0.361   6.884 -0.2283  0.5460  0.3655
   99MOL    C1523731   2.229   0.319   6.755  0.4071 -0.3123  1.1274
   99MOL    C1623732   2.288   0.176   6.755  0.0542 -0.8922  0.1194
   99MOL    C1723733   2.116   0.345   6.659  0.2495 -0.1203 -0.5462
   99MOL    C1823734   2.148   0.330   6.512  0.0441 -0.1128  0.4604
   99MOL    O1923735   2.261   0.341   6.470 -0.2562 -0.5573  0.3152
   99MOL    H2023736   2.309   0.388   6.726  2.3958 -3.1124 -0.2845
   99MOL    H2123737   2.358   0.169   6.672 -2.5432 -0.0998 -2.2339
   99MOL    H2223738   2.210   0.101   6.740 -0.2492 -0.8909  1.6300
   99MOL    H2323739   2.341   0.149   6.845  0.7914 -2.1346 -0.6743
   99MOL    H2423740   2.092   0.451   6.668  0.6548 -0.0785  0.0765
   99MOL    H2523741   2.038   0.275   6.685 -1.1400  1.4691 -0.3925
   99MOL    O2623742   2.041   0.311   6.443 -0.3558 -0.3814 -0.0399
   99MOL    C2723743   2.042   0.283   6.308  0.1818 -0.1673  0.5964
   99MOL    C2823744   1.924   0.186   6.296 -1.2546 -0.0198  0.3524
   99MOL    C2923745   2.036   0.407   6.220  0.5459  0.4261  0.0636
   99MOL    C3023746   2.041   0.380   6.074 -0.4773 -0.8348  1.0565
   99MOL    O3123747   2.041   0.263   6.030 -0.0666  0.2616 -0.4452
   99MOL    H3223748   2.133   0.229   6.281  1.2117  0.2738  3.0093
   99MOL    H3323749   1.921   0.123   6.206  0.1216 -1.8579  1.5578
   99MOL    H3423750   1.821   0.224   6.298 -1.7711 -1.4389  2.2063
   99MOL    H3523751   1.936   0.115   6.378  0.5386  2.0550  1.9113
   99MOL    H3623752   2.117   0.475   6.248 -1.1849  1.1684  3.5544
   99MOL    H3723753   1.943   0.455   6.251  0.4416 -0.4407  1.1118
   99MOL    O3823754   2.046   0.496   6.004 -0.0534  0.0519  1.0414
   99MOL    C3923755   2.061   0.480   5.857  0.1327  0.6668  0.0205
   99MOL    C4023756   2.002   0.598   5.773  0.2690  0.3232 -0.2172
   99MOL    C4123757   2.208   0.459   5.827 -0.4116 -0.1040 -0.2852
   99MOL    C4223758   2.228   0.384   5.691 -0.5491  0.2646  0.3985
   99MOL    O4323759   2.299   0.439   5.604  0.5776  0.7941 -0.0672
   99MOL    H4423760   2.001   0.399   5.816  1.9777 -0.2385 -0.9171
   99MOL    H4523761   2.033   0.596   5.669 -0.7279 -2.8071 -0.4936
   99MOL    H4623762   2.039   0.690   5.818 -3.2841  1.4146  0.6207
   99MOL    H4723763   1.894   0.606   5.777  0.3516  0.9564  0.9411
   99MOL    H4823764   2.279   0.415   5.898 -0.4975 -0.3614 -0.3563
   99MOL    H4923765   2.253   0.556   5.805  0.8280 -0.9686 -1.6776
   99MOL    O5023766   2.174   0.261   5.690  0.1859  0.0768 -0.2225
   99MOL    C5123767   2.165   0.184   5.571 -0.5809 -0.6669 -0.3071
   99MOL    C5223768   2.223   0.051   5.622  0.2564  0.2287  0.7114
   99MOL    C5323769   2.026   0.171   5.509 -0.2731  0.0008  0.4241
   99MOL    C5423770   1.997   0.307   5.443  0.0503  0.5174  0.0466
   99MOL    O5523771   1.908   0.375   5.483  0.2281  1.0844  0.2876
   99MOL    H5623772   2.239   0.218   5.499 -1.8198  0.6030 -1.0007
   99MOL    H5723773   2.311   0.068   5.683  1.5693 -1.9915 -0.4790
   99MOL    H5823774   2.243   7.963   5.539 -1.4431  0.1697  0.3366
   99MOL    H5923775   2.143   0.003   5.678 -0.0934 -2.8611 -2.2561
   99MOL    H6023776   1.952   0.142   5.584  0.7459 -1.8919  0.7332
   99MOL    H6123777   2.025   0.096   5.429  0.1794  0.6932 -0.2311
   99MOL    O6223778   2.090   0.340   5.358 -0.4851  0.1540  0.3564
   99MOL    C6323779   2.085   0.457   5.271 -0.2415 -0.0526 -0.6694
   99MOL    C6423780   2.206   0.535   5.297 -0.6696  0.2375  1.2089
   99MOL    C6523781   2.062   0.409   5.132  0.0442  0.0912  0.5312
   99MOL    C6623782   2.013   0.517   5.035 -0.1920 -0.4046  0.1064
   99MOL    O6723783   2.064   0.530   4.924  0.4150 -0.5191  0.8931
   99MOL    H6823784   1.996   0.511   5.305  0.0592 -0.7816  1.3528
   99MOL    H6923785   2.213   0.587   5.392 -0.4638  1.1638  0.6929
   99MOL    H7023786   2.219   0.610   5.219 -2.1345 -0.5331  0.1982
   99MOL    H7123787   2.292   0.468   5.289 -0.4524  0.6046  0.4223
   99MOL    H7223788   1.984   0.333   5.136 -1.4328  1.4978 -0.7349
   99MOL    H7323789   2.157   0.373   5.092 -1.1893 -0.3870 -2.1006
   99MOL    O7423790   1.914   0.595   5.085  0.7288  0.4369 -0.9468
   99MOL    C7523791   1.845   0.683   5.004 -0.8210  0.1514  0.1179
   99MOL    C7623792   1.696   0.640   5.030 -0.1993  0.2183  0.0299
   99MOL    C7723793   1.897   0.821   5.059  0.3682 -0.6119 -0.2010
   99MOL    C7823794   1.813   0.926   4.986  0.1274 -0.1206  0.3768
   99MOL    O7923795   1.735   1.001   5.037 -0.0496 -0.3227 -0.4335
   99MOL    H8023796   1.876   0.675   4.900 -1.2386 -1.2617  0.0900
   99MOL    H8123797   1.634   0.676   4.948  3.5678  2.8715 -1.7856
   99MOL    H8223798   1.661   0.689   5.121 -1.2041 -0.4344  0.0158
   99MOL    H8323799   1.663   0.536   5.042 -1.4688  0.5816 -0.2166
   99MOL    H8423800   2.002   0.831   5.033 -0.0492  2.0025 -1.0107
   99MOL    H8523801   1.881   0.840   5.165 -0.4519  1.7151 -0.7097
   99MOL    O8623802   1.844   0.943   4.856 -0.4237  0.0536  0.1195
   99MOL    C8723803   1.787   1.047   4.781  0.0885  0.2287  0.0995
   99MOL    C8823804   1.886   1.067   4.662  0.0245  1.0569 -0.1235
   99MOL    C8923805   1.646   1.007   4.733  0.2853  0.4976 -0.4542
   99MOL    C9023806   1.623   0.891   4.633  1.2349  0.1816 -0.1289
   99MOL    O9123807   1.568   0.911   4.523  0.0677  0.1779  0.1234
   99MOL    H9223808   1.783   1.136   4.844  0.8813 -0.3306  0.9569
   99MOL    H9323809   1.911   0.982   4.599 -0.5621  0.5121  0.3803
   99MOL    H9423810   1.984   1.101   4.696  1.2873 -0.0030 -2.5195
   99MOL    H9523811   1.845   1.144   4.596 -0.0268 -0.0079 -1.3578
   99MOL    H9623812   1.600   1.091   4.682  0.8067  1.7334  1.0880
   99MOL    H9723813   1.583   0.984   4.819  3.1242  0.3029  1.6368
   99MOL    O9823814   1.667   0.772   4.675  0.1050  0.1607  0.3570
   99MOL    C9923815   1.649   0.663   4.587  0.1472 -1.0500  0.1611
   99MOL   C10023816   1.769   0.577   4.612 -0.4194 -0.4960 -0.5087
   99MOL   C10123817   1.519   0.587   4.615  0.2721  0.2791 -0.2200
   99MOL   C10223818   1.482   0.472   4.524  0.8578  0.4783  0.2051
   99MOL   O10323819   1.402   0.486   4.431 -0.0289  0.1978  0.0079
   99MOL   H10423820   1.664   0.698   4.485 -2.7013  1.0446  0.3908
   99MOL   H10523821   1.785   0.546   4.715 -1.1165  1.3118  0.1633
   99MOL   H10623822   1.855   0.639   4.584  0.3870 -1.0711  0.6318
   99MOL   H10723823   1.783   0.491   4.546 -0.3408  0.0454 -1.2106
   99MOL   H10823824   1.433   0.655   4.610 -0.1072 -0.1531  0.4272
   99MOL   H10923825   1.526   0.543   4.714 -1.1175 -0.7265 -0.5427
   99MOL   O11023826   1.535   0.353   4.563 -0.4944  0.7030  0.1743
   99MOL   C11123827   1.500   0.233   4.501 -0.1879 -0.3660 -0.1639
   99MOL   C11223828   1.610   0.135   4.544 -0.1073 -0.2453  0.1483
   99MOL   C11323829   1.364   0.176   4.548 -0.1864  0.5285 -0.8974
   99MOL   C11423830   1.323   0.046   4.476 -0.3548 -0.2539  0.3619
   99MOL   O11523831   1.283   7.931   4.539 -0.1455  0.8477 -0.2047
   99MOL   H11623832   1.491   0.250   4.394 -0.1848 -3.5116 -0.7110
   99MOL   H11723833   1.625   0.034   4.505  1.4823 -0.7430  1.9343
   99MOL   H11823834   1.623   0.122   4.652  1.8834  0.4859  0.0278
   99MOL   H11923835   1.698   0.195   4.519  0.0534  0.1190  1.5171
   99MOL   H12023836   1.286   0.251   4.536  1.1528  1.7200 -2.4010
   99MOL   H12123837   1.367   0.149   4.654 -0.3506 -2.6651 -1.6577
   99MOL   O12223838   1.341   0.042   4.341  1.0568 -0.5342  0.4402
   99MOL   C12323839   1.294   7.912   4.267 -0.0812  0.5834  0.7880
   99MOL   C12423840   1.186   7.971   4.167  0.8019 -0.7327  0.6765
   99MOL   C12523841   1.410   7.830   4.195 -0.3620  0.1580 -0.6940
   99MOL   C12623842   1.490   7.746   4.285  0.0584 -0.3443 -0.3902
   99MOL   O12723843   1.494   7.622   4.281  0.2028 -0.0585 -0.1381
   99MOL   H12823844   1.230   7.842   4.321  0.0712 -0.6086 -0.5306
   99MOL   H12923845   1.217   0.062   4.091 -1.0256  0.8210  1.3449
   99MOL   H13023846   1.112   0.050   4.220 -1.4885 -2.9556  0.0266
   99MOL   H13123847   1.143   7.888   4.111  0.3675  1.0334 -1.6837
   99MOL   H13223848   1.477   7.899   4.143 -1.5049 -0.2376 -2.7631
   99MOL   H13323849   1.360   7.766   4.123  1.1120  1.2218 -2.7216
   99MOL   O13423850   1.574   7.826   4.355  0.0381  0.2002  0.1859
   99MOL   C13523851   1.670   7.751   4.432 -0.2971  1.0124 -0.0626
   99MOL   C13623852   1.801   7.822   4.438  0.3498 -0.5485 -0.7530
   99MOL   C13723853   1.606   7.735   4.572  0.7438 -0.0290 -1.1383
   99MOL   C13823854   1.649   7.596   4.636  0.5821 -0.3047  0.5225
   99MOL   O13923855   1.769   7.572   4.649 -0.4325  0.3087 -0.5428
   99MOL   H14023856   1.687   7.650   4.396 -1.3097  1.5885 -2.2848
   99MOL   H14123857   1.868   7.774   4.367 -0.1199  1.4516 -2.6185
   99MOL   H14223858   1.845   7.813   4.537 -0.3391  2.6296 -0.0945
   99MOL   H14323859   1.791   7.928   4.414 -0.4147 -0.4508 -0.0221
   99MOL   H14423860   1.498   7.734   4.559  0.6501 -0.9669 -0.3640
   99MOL   H14523861   1.636   7.813   4.641 -2.1643  0.7382 -0.6787
   99MOL   O14623862   1.537   7.528   4.688  0.0234 -0.5797 -0.0263
   99MOL   C14723863   1.544   7.397   4.739  0.6580 -0.3651 -0.1132
   99MOL   C14823864   1.451   7.408   4.860 -0.6363  0.6433 -0.5487
   99MOL   C14923865   1.501   7.319   4.612  0.1514  0.1126 -0.4580
   99MOL   C15023866   1.491   7.166   4.641 -0.1184 -0.4156  0.2379
   99MOL   O15123867   1.504   7.119   4.752 -0.0899 -0.3929  0.1490
   99MOL   H15223868   1.646   7.377   4.775  0.4888  1.2886  1.3568
   99MOL   H15323869   1.353   7.442   4.828 -0.9457  0.8945  0.6267
   99MOL   H15423870   1.487   7.476   4.938  1.5177  0.8101 -1.6510
   99MOL   H15523871   1.416   7.312   4.901  0.7690  0.2892 -0.1449
   99MOL   H15623872   1.552   7.325   4.516  2.1849 -2.2943  0.4187
   99MOL   H15723873   1.395   7.346   4.603  0.4939  1.2435 -1.1471
   99MOL   O15823874   1.488   7.094   4.527 -0.6020 -0.3233 -0.4088
   99MOL   C15923875   1.524   6.956   4.522  0.8439 -0.3534  0.1209
   99MOL   C16023876   1.392   6.882   4.506  0.1700  0.2656  0.0489
   99MOL   C16123877   1.621   6.923   4.408  0.2594 -0.7906  0.4551
   99MOL   C16223878   1.758   6.990   4.415 -0.3056  0.0743 -0.3252
   99MOL   O16323879   1.857   6.929   4.375 -0.1560 -0.1407  0.3969
   99MOL   H16423880   1.557   6.923   4.620 -0.5183 -0.6727  0.4888
   99MOL   H16523881   1.329   6.878   4.595 -0.0880 -0.9108 -0.1746
   99MOL   H16623882   1.392   6.775   4.484  1.9627  0.2808 -0.0629
   99MOL   H16723883   1.337   6.928   4.424 -2.1616  2.4801  2.7557
   99MOL   H16823884   1.566   6.963   4.323 -0.3216  2.5395  2.2666
   99MOL   H16923885   1.650   6.818   4.403 -1.1447 -1.0678 -3.5558
   99MOL   O17023886   1.768   7.112   4.473  0.3720 -0.3646 -0.3787
   99MOL   C17123887   1.897   7.167   4.502  0.4535 -0.5721  0.0363
   99MOL   C17223888   1.878   7.314   4.461 -0.0582  0.1974  0.6116
   99MOL   C17323889   1.922   7.160   4.662  0.0908 -0.4667  0.3226
   99MOL   C17423890   1.954   7.009   4.706  0.3281 -0.5692 -0.1717
   99MOL   O17523891   2.072   6.990   4.734  0.3842  0.3231  0.5461
   99MOL   H17623892   1.984   7.114   4.462  0.3726  1.4867 -3.0396
   99MOL   H17723893   1.890   7.330   4.353  0.0564 -0.1520  0.5707
   99MOL   H17823894   1.948   7.384   4.508  0.9570  2.4874 -3.9239
   99MOL   H17923895   1.782   7.362   4.479 -0.2998  0.1702 -0.5524
   99MOL   H18023896   1.830   7.198   4.706  0.9138  0.7985  0.9852
   99MOL   H18123897   1.997   7.228   4.702  0.0776  0.5234 -1.2984
   99MOL   O18223898   1.848   6.919   4.716  0.0059 -0.6575 -0.0206
   99MOL   C18323899   1.889   6.785   4.737  0.1082  0.0317 -0.0850
   99MOL   C18423900   1.778   6.742   4.850  0.1676 -0.2688  0.1961
   99MOL   C18523901   1.896   6.704   4.608 -0.1637 -0.3255 -0.4354
   99MOL   C18623902   1.958   6.565   4.632  0.5069 -0.0733  0.2024
   99MOL   O18723903   2.015   6.528   4.741 -0.2477 -0.1208 -0.1511
   99MOL   H18823904   1.990   6.778   4.777 -0.0370  1.0164  0.4888
   99MOL   H18923905   1.781   6.636   4.879  0.7845 -0.1450  0.5893
   99MOL   H19023906   1.673   6.758   4.824 -0.0066  1.7806  2.0460
   99MOL   H19123907   1.800   6.793   4.943 -1.0349  0.8832 -0.1426
   99MOL   H19223908   1.962   6.743   4.531  1.5152 -2.6934 -0.2451
   99MOL   H19323909   1.800   6.683   4.560 -2.7225 -0.2143  4.3068
   99MOL   O19423910   1.938   6.490   4.523  0.4450 -0.3268  0.1835
   99MOL   C19523911   1.966   6.352   4.528  0.1474  0.1153 -0.7813
   99MOL   C19623912   1.838   6.293   4.558 -0.0121 -0.3735  0.0194
   99MOL   C19723913   2.032   6.299   4.394  0.1136  0.1060 -0.1303
   99MOL   C19823914   2.175   6.354   4.386  0.5474  0.2027  0.7641
   99MOL   O19923915   2.269   6.280   4.398  0.1824  0.3763  0.6891
   99MOL   H20023916   2.037   6.326   4.606 -1.3723  2.5341  1.4716
   99MOL   H20123917   1.763   6.291   4.478 -1.3046 -1.9092  1.2332
   99MOL   H20223918   1.798   6.339   4.649  1.6481  1.3210 -0.0850
   99MOL   H20323919   1.853   6.186   4.572  0.6338 -0.2978 -0.0935
   99MOL   H20423920   1.976   6.335   4.307 -0.3021 -1.4229 -0.5172
   99MOL   H20523921   2.030   6.190   4.389 -1.5799  0.0679  1.0759
   99MOL   O20623922   2.184   6.492   4.361 -0.4478 -0.6829 -0.2144
   99MOL   C20723923   2.317   6.553   4.338  0.2258 -0.0647  0.6737
   99MOL   C20823924   2.291   6.680   4.260  0.0263 -0.6133  0.1484
   99MOL   C20923925   2.410   6.588   4.456 -0.5943  0.2910  0.2123
   99MOL   C21023926   2.340   6.675   4.568 -0.0909 -0.0824 -0.0797
   99MOL   O21123927   2.244   6.744   4.550 -0.3032  0.0122 -0.0794
   99MOL   H21223928   2.380   6.484   4.281 -0.4851 -0.5942  0.5279
   99MOL   H21323929   2.201   6.729   4.298  1.1365  3.0243 -1.6024
   99MOL   H21423930   2.281   6.656   4.154  0.3277 -3.5426  0.7432
   99MOL   H21523931   2.367   6.757   4.272 -0.4856  0.2510 -1.9044
   99MOL   H21623932   2.503   6.636   4.423 -1.0104  0.3385 -0.9033
   99MOL   H21723933   2.425   6.492   4.506 -0.5142  0.1152 -0.1526
   99MOL   O21823934   2.399   6.654   4.690 -0.3229  0.4472 -0.3174
   99MOL   C21923935   2.373   6.740   4.804 -0.4414 -0.8411 -0.4304
   99MOL   C22023936   2.357   6.635   4.919  0.0031  0.7535 -0.2972
   99MOL   C22123937   2.490   6.830   4.821 -0.3221  0.2167 -0.3040
   99MOL   C22223938   2.465   6.931   4.927  0.0836  0.0621 -0.8527
   99MOL   O22323939   2.542   6.951   5.023 -0.0100  0.1587  0.1067
   99MOL   H22423940   2.279   6.792   4.785  0.6458  1.0471 -0.8187
   99MOL   H22523941   2.264   6.579   4.915 -0.0732  0.8756 -0.2173
   99MOL   H22623942   2.361   6.682   5.017 -2.2605 -0.8933  0.6380
   99MOL   H22723943   2.435   6.559   4.925  1.2475  1.9592 -0.9798
   99MOL   H22823944   2.514   6.875   4.725  1.9453 -1.9779 -0.8314
   99MOL   H22923945   2.578   6.769   4.845 -0.6765  0.4205  1.6000
   99MOL   O23023946   2.354   7.003   4.910 -0.1815  0.2028  0.1733
   99MOL   C23123947   2.304   7.089   5.020  0.0288  0.8354 -0.5301
   99MOL   C23223948   2.239   7.221   4.971  0.6769  0.4890  0.1500
   99MOL   C23323949   2.212   7.007   5.114  0.2348 -0.8060  0.8859
   99MOL   C23423950   2.085   6.949   5.050  0.1970  0.2842  0.3397
   99MOL   O23523951   1.982   7.012   5.059 -0.2351  0.1017  0.0141
   99MOL   H23623952   2.385   7.134   5.077  2.0891  0.3116 -2.9698
   99MOL   H23723953   2.305   7.286   4.913 -0.2994  0.2911 -1.1981
   99MOL   H23823954   2.203   7.272   5.060  2.6672 -1.1868  2.0075
   99MOL   H23923955   2.150   7.199   4.913 -0.5522  0.9809  1.8374
   99MOL   H24023956   2.183   7.071   5.199  0.4270  1.4241 -0.6782
   99MOL   H24123957   2.270   6.925   5.156  0.9976 -0.3796  0.6733
   99MOL   H24223958   2.093   6.855   4.996  1.0387  0.5154  0.0627
  100MOL     O123959   7.524   6.474   6.793  0.0761 -0.1956  0.3827
  100MOL     C223960   7.560   6.566   6.693 -0.2334  0.0007  0.2325
  100MOL     C323961   7.430   6.607   6.628  0.0267 -1.0161 -0.1808
  100MOL     C423962   7.629   6.692   6.765 -0.2985 -0.6398 -0.4790
  100MOL     C523963   7.721   6.776   6.673  0.8464 -0.3896  0.0027
  100MOL     O623964   7.843   6.774   6.683 -0.2233  1.2126 -0.6294
  100MOL     H723965   7.623   6.507   6.626 -1.3678 -1.7982  0.7211
  100MOL     H823966   7.362   6.640   6.706 -0.7488 -0.3601 -1.1138
  100MOL     H923967   7.377   6.521   6.586 -2.0691  0.9185 -1.5953
  100MOL    H1023968   7.448   6.681   6.550 -1.1644  0.5011  0.9584
  100MOL    H1123969   7.674   6.662   6.860  0.2399 -0.4444 -0.6708
  100MOL    H1223970   7.551   6.757   6.805 -0.0354 -0.1595 -0.7447
  100MOL    H1323971   7.508   6.393   6.748 -3.2499  0.6659 -0.0843
  100MOL    O1423972   7.652   6.848   6.585 -0.6166  0.1066 -0.5675
  100MOL    C1523973   7.725   6.941   6.499  0.3606 -0.4034 -0.7546
  100MOL    C1623974   7.782   6.865   6.382  0.4124  0.5139 -0.3201
  100MOL    C1723975   7.625   7.051   6.449  0.1312  1.1651  0.2152
  100MOL    C1823976   7.711   7.178   6.418  0.6332  0.5892  0.2990
  100MOL    O1923977   7.785   7.230   6.495 -0.3701  1.0957 -0.5845
  100MOL    H2023978   7.801   6.982   6.565  0.0598  1.0051 -1.2555
  100MOL    H2123979   7.806   6.930   6.298 -0.6758 -0.4060 -1.3586
  100MOL    H2223980   7.709   6.790   6.351  1.3286 -1.3710  1.9374
  100MOL    H2323981   7.873   6.813   6.412  0.9963  2.1482  0.8754
  100MOL    H2423982   7.559   7.072   6.533 -1.7111 -1.3510 -0.5315
  100MOL    H2523983   7.571   7.016   6.361  2.4349 -2.9772  0.3158
  100MOL    O2623984   7.694   7.215   6.298 -0.0790 -0.2024 -0.0897
  100MOL    C2723985   7.756   7.333   6.254  0.1022 -0.5412 -0.3887
  100MOL    C2823986   7.800   7.329   6.112 -0.1895  0.0598 -0.5015
  100MOL    C2923987   7.654   7.447   6.270 -0.0851 -0.7467  0.0646
  100MOL    C3023988   7.725   7.575   6.318 -0.3406  0.4385 -0.7213
  100MOL    O3123989   7.743   7.667   6.235  0.2804  0.0363 -0.5526
  100MOL    H3223990   7.838   7.356   6.322 -0.8516 -0.1087  0.6362
  100MOL    H3323991   7.853   7.234   6.095 -2.1940 -0.9250 -1.3984
  100MOL    H3423992   7.871   7.407   6.083 -0.2477 -0.6448 -2.6876
  100MOL    H3523993   7.722   7.321   6.037 -0.3212 -0.4601 -0.3130
  100MOL    H3623994   7.587   7.411   6.348  0.1539 -0.1687  0.5406
  100MOL    H3723995   7.581   7.466   6.191  0.0539 -0.6435 -0.0414
  100MOL    O3823996   7.777   7.559   6.442  0.0763  0.4748 -0.2652
  100MOL    C3923997   7.868   7.650   6.500 -0.5888  0.6421  0.3967
  100MOL    C4023998   7.833   7.696   6.645  0.4317  0.0242  0.6855
  100MOL    C4123999   0.034   7.596   6.509  0.0631  0.1414  0.3016
  100MOL    C4224000   0.083   7.557   6.364 -0.2860  0.4109 -0.2991
  100MOL    O4324001   0.123   7.445   6.338 -0.2348  0.0558  0.2942
  100MOL    H4424002   7.866   7.739   6.438  1.8557 -0.2342 -1.0412
  100MOL    H4524003   7.855   7.620   6.719  2.4580 -1.3536 -1.2655
  100MOL    H4624004   7.728   7.726   6.643  0.3595 -0.3239 -1.0634
  100MOL    H4724005   7.890   7.784   6.677  2.1359 -0.3702 -1.1878
  100MOL    H4824006   0.046   7.501   6.562 -0.7866 -1.2947 -2.0024
  100MOL    H4924007   0.103   7.673   6.545  1.1339 -0.5920 -0.1528
  100MOL    O5024008   0.087   7.669   6.282 -0.1520 -0.6335  0.3367
  100MOL    C5124009   0.131   7.654   6.147 -0.6788 -0.0685  0.1814
  100MOL    C5224010   0.033   7.735   6.057 -0.2507 -0.2712 -0.7487
  100MOL    C5324011   0.280   7.689   6.125  0.7529  0.5226 -0.0506
  100MOL    C5424012   0.315   7.834   6.085 -0.1944 -0.1280 -0.7830
  100MOL    O5524013   0.297   7.933   6.157 -0.1012 -0.0465  0.1274
  100MOL    H5624014   0.116   7.553   6.110 -0.0593  0.4318 -1.4751
  100MOL    H5724015   7.914   7.689   6.059 -1.1576  1.6993  0.6609
  100MOL    H5824016   0.063   7.735   5.952  0.4676  2.3244 -0.5618
  100MOL    H5924017   0.022   7.842   6.075 -2.4820 -0.5657 -0.1749
  100MOL    H6024018   0.324   7.623   6.050  0.3576  1.6823 -1.3067
  100MOL    H6124019   0.333   7.661   6.217 -0.2106 -1.6243 -0.1089
  100MOL    O6224020   0.361   7.840   5.963 -0.1598  0.3466  0.6263
  100MOL    C6324021   0.380   7.972   5.902  0.1852  0.3631 -0.5251
  100MOL    C6424022   0.518   7.978   5.837  0.3701  0.2436  0.3536
  100MOL    C6524023   0.273   0.008   5.788 -0.5290  0.4030 -0.4849
  100MOL    C6624024   0.143   0.059   5.842  0.1039  0.2855 -0.4156
  100MOL    O6724025   0.037   0.005   5.800 -0.0557 -0.0961  0.2412
  100MOL    H6824026   0.387   0.071   5.977  2.4582 -0.6059  0.3137
  100MOL    H6924027   0.542   0.100   5.806  0.7460 -0.1249 -0.5937
  100MOL    H7024028   0.517   7.915   5.748 -0.4623 -1.2884  1.4419
  100MOL    H7124029   0.588   7.928   5.904  0.0961  1.7083  1.7823
  100MOL    H7224030   0.261   7.891   5.740 -0.8765 -0.5264  1.4318
  100MOL    H7324031   0.291   0.078   5.707 -1.7963 -0.9301 -1.9709
  100MOL    O7424032   0.158   0.162   5.933 -0.0351  0.0057  0.0883
  100MOL    C7524033   0.038   0.219   5.991  0.0796  0.2009  0.1557
  100MOL    C7624034   0.029   0.188   6.146  0.3770  0.3570 -0.3980
  100MOL    C7724035   0.028   0.372   5.975  0.2378 -0.3432 -0.4036
  100MOL    C7824036   0.008   0.419   5.832  0.0454 -0.0996 -0.4997
  100MOL    O7924037   7.876   0.415   5.785 -1.0075  0.6408  0.1294
  100MOL    H8024038   7.925   0.196   5.939  0.3836  0.8919 -0.7193
  100MOL    H8124039   7.934   0.253   6.190  0.4698 -0.6005  1.2038
  100MOL    H8224040   0.126   0.194   6.196  0.2782 -0.7985 -0.0597
  100MOL    H8324041   7.970   0.087   6.154  0.9205 -0.1073 -3.0469
  100MOL    H8424042   0.117   0.414   6.023 -0.1976  1.9041 -1.4640
  100MOL    H8524043   7.922   0.412   6.029  0.2650 -2.2505  1.1308
  100MOL    O8624044   0.119   0.454   5.770 -0.0890 -0.0200 -0.5444
  100MOL    C8724045   0.141   0.474   5.627  0.1420 -1.1340 -0.2856
  100MOL    C8824046   0.239   0.596   5.616 -0.3836  0.1992  0.0116
  100MOL    C8924047   0.188   0.339   5.565 -0.1272  0.3144 -0.3398
  100MOL    C9024048   0.219   0.359   5.416 -0.8965  0.1562 -0.3200
  100MOL    O9124049   0.323   0.300   5.377 -0.7811 -0.4529  0.0069
  100MOL    H9224050   0.046   0.502   5.581  0.4498  3.3974  1.6004
  100MOL    H9324051   0.340   0.573   5.650 -0.7445  0.6204  1.3925
  100MOL    H9424052   0.202   0.681   5.674  0.3326 -0.2434  1.1148
  100MOL    H9524053   0.249   0.627   5.511 -1.0054  0.2685 -0.0295
  100MOL    H9624054   0.104   0.273   5.584 -0.6876  1.0910 -0.0518
  100MOL    H9724055   0.270   0.294   5.620 -1.2942  1.3607  2.3833
  100MOL    O9824056   0.145   0.434   5.339  0.1620  0.2199  0.0114
  100MOL    C9924057   0.168   0.433   5.194  0.6100  0.5029  0.6819
  100MOL   C10024058   0.021   0.436   5.151 -0.7646 -0.1090  0.9511
  100MOL   C10124059   0.255   0.559   5.174 -0.0376 -0.0722 -0.1107
  100MOL   C10224060   0.286   0.583   5.033 -0.6022  0.0236  0.7438
  100MOL   O10324061   0.395   0.557   4.987  0.6892  0.7023  0.3020
  100MOL   H10424062   0.209   0.340   5.155 -1.7521  0.1019 -1.0106
  100MOL   H10524063   7.937   0.360   5.198 -0.1666 -0.0318  1.9007
  100MOL   H10624064   0.009   0.425   5.043 -2.3144 -1.3598  1.2105
  100MOL   H10724065   7.962   0.535   5.173  0.2989  0.0167  2.3049
  100MOL   H10824066   0.348   0.564   5.231 -0.6219  0.0629  0.8597
  100MOL   H10924067   0.206   0.648   5.215 -0.5001  0.2294 -1.2985
  100MOL   O11024068   0.183   0.638   4.972  0.0872 -0.4681 -0.4379
  100MOL   C11124069   0.185   0.668   4.839  0.4410  0.2009  0.0846
  100MOL   C11224070   0.150   0.547   4.747  0.9453  0.7282  0.7710
  100MOL   C11324071   0.097   0.795   4.811 -0.1083  0.1789 -0.2058
  100MOL   C11424072   7.930   0.774   4.811  0.3338 -0.0830  0.5901
  100MOL   O11524073   7.863   0.805   4.712 -0.5577  0.2794 -0.3014
  100MOL   H11624074   0.285   0.696   4.806  1.2084 -1.4912  0.9526
  100MOL   H11724075   0.226   0.471   4.731 -0.6228 -0.4579 -1.3334
  100MOL   H11824076   0.119   0.576   4.646  0.0579 -1.9122  0.2594
  100MOL   H11924077   0.066   0.493   4.791  0.6426  0.8338  0.3332
  100MOL   H12024078   0.127   0.838   4.716 -2.1621  3.1062  0.4056
  100MOL   H12124079   0.115   0.873   4.884 -1.3121  0.4723 -0.2097
  100MOL   O12224080   7.871   0.725   4.930 -0.2193  0.6386 -0.0577
  100MOL   C12324081   7.727   0.708   4.928  0.7889  0.4142  0.1865
  100MOL   C12424082   7.707   0.565   4.974 -0.2603  0.5486 -0.0608
  100MOL   C12524083   7.655   0.819   5.005  0.4220  0.0853 -0.0627
  100MOL   C12624084   7.502   0.811   5.001  0.0141 -0.9808  0.0132
  100MOL   O12724085   7.437   0.911   4.962  0.0856 -0.2207  0.8251
  100MOL   H12824086   7.688   0.726   4.827  0.1299 -0.4243  0.2988
  100MOL   H12924087   7.728   0.548   5.080 -0.1491  1.6588  0.1000
  100MOL   H13024088   7.759   0.494   4.911 -4.3220 -2.9303  0.2820
  100MOL   H13124089   7.605   0.530   4.958 -0.5272  1.4379 -0.3267
  100MOL   H13224090   7.680   0.916   4.961 -2.0001 -0.4612 -2.7923
  100MOL   H13324091   7.687   0.799   5.107  0.0193 -0.1717  0.0125
  100MOL   O13424092   7.451   0.694   5.052  0.0413 -0.9544 -0.0462
  100MOL   C13524093   7.304   0.679   5.057 -0.5905 -0.3208 -0.5437
  100MOL   C13624094   7.273   0.532   5.035 -0.3300  0.2548  0.5205
  100MOL   C13724095   7.248   0.723   5.197  0.7890  0.2565 -0.1878
  100MOL   C13824096   7.105   0.780   5.200 -0.1223 -0.8240 -0.7502
  100MOL   O13924097   7.071   0.830   5.307  0.3542 -0.0264 -0.2572
  100MOL   H14024098   7.260   0.740   4.979 -1.7518  0.7390  0.9216
  100MOL   H14124099   7.304   0.492   4.939 -0.6683 -1.1828  1.0015
  100MOL   H14224100   7.166   0.513   5.044 -1.0420  2.3953 -2.6189
  100MOL   H14324101   7.323   0.470   5.109  1.5928  0.2741 -0.7365
  100MOL   H14424102   7.311   0.800   5.241  0.8873  0.2041 -0.2393
  100MOL   H14524103   7.259   0.640   5.267  2.5799 -1.0110 -1.9395
  100MOL   O14624104   7.028   0.776   5.086 -0.3994 -0.4593 -0.1212
  100MOL   C14724105   6.886   0.801   5.103  0.0280  0.1652  0.5133
  100MOL   C14824106   6.867   0.955   5.061 -0.3922 -0.6432 -0.0864
  100MOL   C14924107   6.805   0.700   5.023  0.0817 -0.2191 -0.2241
  100MOL   C15024108   6.654   0.711   5.053 -0.1709 -0.7320 -0.8131
  100MOL   O15124109   6.594   0.631   5.127 -0.5285  0.2943  1.0902
  100MOL   H15224110   6.856   0.787   5.207  1.2082 -0.1741  0.8150
  100MOL   H15324111   6.764   0.992   5.055 -0.4257 -0.7094  0.0526
  100MOL   H15424112   6.912   0.968   4.963 -0.7582  2.9367  0.1607
  100MOL   H15524113   6.926   1.005   5.138 -0.1225 -0.7761 -0.2086
  100MOL   H15624114   6.851   0.604   5.043  1.7611  0.8528  1.1862
  100MOL   H15724115   6.804   0.721   4.916 -3.9204 -0.5754 -0.3411
  100MOL   O15824116   6.590   0.814   4.987 -0.0796 -0.0988  0.4923
  100MOL   C15924117   6.463   0.860   5.033  0.2608  0.4446  0.1152
  100MOL   C16024118   6.479   0.990   5.110 -0.2385 -0.3219 -0.3032
  100MOL   C16124119   6.368   0.868   4.916  0.0932 -0.8143  0.0551
  100MOL   C16224120   6.293   0.734   4.890  0.1474  0.6741  0.0348
  100MOL   O16324121   6.176   0.720   4.920 -0.1042 -0.2316  0.6977
  100MOL   H16424122   6.424   0.792   5.108 -0.4265  1.5746  0.8051
  100MOL   H16524123   6.385   1.034   5.143 -1.2693 -0.9860 -2.2532
  100MOL   H16624124   6.510   1.084   5.063 -0.0777 -0.2899 -0.1328
  100MOL   H16724125   6.547   0.984   5.194  1.0263  0.6686 -1.2330
  100MOL   H16824126   6.413   0.916   4.829 -3.4042  3.2464  0.3331
  100MOL   H16924127   6.298   0.937   4.963  2.8301  0.7958  1.9398
  100MOL   O17024128   6.371   0.643   4.837 -0.4498 -0.5022  0.1045
  100MOL   C17124129   6.333   0.508   4.826 -0.9115  0.1224  0.0958
  100MOL   C17224130   6.249   0.491   4.694  0.9459 -0.6490 -0.1667
  100MOL   C17324131   6.458   0.412   4.808  0.3301  0.3903  0.9343
  100MOL   C17424132   6.467   0.305   4.918 -0.0652 -0.5150 -0.0161
  100MOL   O17524133   6.487   0.190   4.894 -0.2731  0.1021 -0.0432
  100MOL   H17624134   6.280   0.463   4.911  0.3358 -1.5146  0.0303
  100MOL   H17724135   6.198   0.395   4.694  1.2062 -0.7914  0.9686
  100MOL   H17824136   6.310   0.495   4.603 -0.4634 -0.6455 -1.1433
  100MOL   H17924137   6.168   0.563   4.681 -0.4937 -2.3007 -0.4274
  100MOL   H18024138   6.546   0.474   4.789 -2.0715  3.3060 -1.1478
  100MOL   H18124139   6.447   0.348   4.720  0.1741  2.6900 -0.7538
  100MOL   O18224140   6.446   0.353   5.044 -0.1234 -0.0699  0.4314
  100MOL   C18324141   6.435   0.273   5.159 -0.4092 -0.3248  0.2262
  100MOL   C18424142   6.468   0.357   5.278 -0.6110  0.2208 -0.7527
  100MOL   C18524143   6.292   0.215   5.169 -0.3100  0.4127  0.0274
  100MOL   C18624144   6.262   0.133   5.302 -0.9735  0.7597  0.2885
  100MOL   O18724145   6.257   0.012   5.307 -0.3237 -0.4604  0.0419
  100MOL   H18824146   6.511   0.197   5.142  1.3848  1.6319 -0.8513
  100MOL   H18924147   6.400   0.433   5.317 -0.8112 -0.7143  0.7371
  100MOL   H19024148   6.562   0.411   5.263 -0.4432  0.4938  1.1429
  100MOL   H19124149   6.487   0.291   5.362  2.2956 -0.5368 -1.9628
  100MOL   H19224150   6.265   0.147   5.088  1.3343 -1.5383  1.0792
  100MOL   H19324151   6.213   0.289   5.154  0.0087  0.5801 -0.8648
  100MOL   O19424152   6.228   0.207   5.413  0.2949 -0.1763 -0.3727
  100MOL   C19524153   6.206   0.143   5.537 -0.0714  0.0851  0.6766
  100MOL   C19624154   6.224   0.239   5.650 -0.2195  0.5847  0.1887
  100MOL   C19724155   6.068   0.075   5.548 -0.1383  0.1398 -0.4572
  100MOL   C19824156   5.953   0.171   5.508  0.1592 -0.5989  0.1069
  100MOL   O19924157   5.932   0.198   5.392  0.2426  0.3377  0.0991
  100MOL   H20024158   6.293   0.078   5.546  0.7038  1.1082  0.6711
  100MOL   H20124159   6.196   0.181   5.739  1.0679 -0.2234  0.0787
  100MOL   H20224160   6.156   0.324   5.656 -1.0940 -0.2004  2.1691
  100MOL   H20324161   6.322   0.286   5.657 -0.9254  2.1900 -0.5123
  100MOL   H20424162   6.055   0.035   5.648  0.5522  2.0961  0.4429
  100MOL   H20524163   6.057   7.976   5.474 -1.3093 -1.6262  1.5449
  100MOL   O20624164   5.888   0.221   5.610 -0.7761 -0.0211 -0.0026
  100MOL   C20724165   5.786   0.320   5.600 -0.5344 -0.3139 -0.3975
  100MOL   C20824166   5.657   0.279   5.660  0.9227  0.1878  0.7058
  100MOL   C20924167   5.850   0.448   5.655 -0.3274  0.3250  0.3027
  100MOL   C21024168   5.868   0.459   5.807 -0.0339 -0.3791  0.4664
  100MOL   O21124169   5.771   0.459   5.884 -0.2934  0.7187 -0.5782
  100MOL   H21224170   5.754   0.340   5.497 -1.2793  3.1923  0.4351
  100MOL   H21324171   5.620   0.191   5.608 -2.6125  1.9125  0.1963
  100MOL   H21424172   5.587   0.362   5.653 -2.0931 -2.4273 -0.7485
  100MOL   H21524173   5.678   0.254   5.764 -1.4354 -0.3827  1.0637
  100MOL   H21624174   5.803   0.540   5.622  0.2585 -0.1446 -1.9504
  100MOL   H21724175   5.952   0.447   5.616 -0.6112 -1.9232 -0.4891
  100MOL   O21824176   6.001   0.476   5.833 -0.1032 -0.9048 -0.5143
  100MOL   C21924177   6.056   0.482   5.971  0.7044 -0.7668  0.0159
  100MOL   C22024178   6.163   0.371   5.992  0.0497 -0.2733 -0.0939
  100MOL   C22124179   6.101   0.621   6.004 -0.1572  0.6818 -0.3471
  100MOL   C22224180   5.982   0.703   6.036 -0.1438  0.3353  0.8536
  100MOL   O22324181   5.934   0.714   6.151  0.1664  1.0576  0.1804
  100MOL   H22424182   5.972   0.464   6.039 -0.3302 -2.7690 -1.7468
  100MOL   H22524183   6.239   0.379   5.915  1.1792  1.1225  1.1355
  100MOL   H22624184   6.117   0.272   5.990 -0.2810 -0.1790  1.7841
  100MOL   H22724185   6.222   0.380   6.083 -0.0615 -1.7702  0.1466
  100MOL   H22824186   6.152   0.668   5.920 -0.4820  0.1346 -0.8572
  100MOL   H22924187   6.162   0.622   6.094 -1.1532 -1.1357  0.3701
  100MOL   O23024188   5.939   0.778   5.927  0.3318  0.4653 -0.8295
  100MOL   C23124189   5.822   0.862   5.940  0.1388 -0.7921 -0.4846
  100MOL   C23224190   5.860   0.982   5.849 -0.6010  0.6606  0.1652
  100MOL   C23324191   5.705   0.786   5.881  0.3818 -0.0933  0.0857
  100MOL   C23424192   5.579   0.865   5.852  0.4328 -0.5250 -0.3163
  100MOL   O23524193   5.539   0.949   5.937 -0.7949  0.5651 -0.3708
  100MOL   H23624194   5.787   0.886   6.040  2.0132  1.2654 -0.2954
  100MOL   H23724195   5.807   1.077   5.844 -1.0545  0.3410 -1.2169
  100MOL   H23824196   5.869   0.952   5.744  1.3743  0.2946  0.4084
  100MOL   H23924197   5.962   1.016   5.870 -1.1731  1.5017  1.6148
  100MOL   H24024198   5.677   0.704   5.947 -0.8371 -0.3159 -0.6917
  100MOL   H24124199   5.734   0.742   5.785 -2.1761 -0.1890 -0.6839
  100MOL   H24224200   5.533   0.839   5.757  0.9274 -2.0688 -0.1540
  101MOL     O124201   1.761   6.430   5.135  0.1160 -0.3831 -0.2589
  101MOL     C224202   1.899   6.401   5.097 -0.6864 -0.0550  0.0583
  101MOL     C324203   1.898   6.314   4.977 -0.1543 -0.2093  0.2079
  101MOL     C424204   1.985   6.529   5.083 -0.0538 -0.3040 -0.2780
  101MOL     C524205   2.028   6.596   5.212 -0.3414 -0.1393 -0.1323
  101MOL     O624206   2.138   6.652   5.230  0.0248 -0.4157 -0.1099
  101MOL     H724207   1.928   6.333   5.177 -1.2138 -0.7652 -0.3528
  101MOL     H824208   1.820   6.239   4.989  0.2293 -0.3461  1.9013
  101MOL     H924209   1.998   6.272   4.964  0.8975  2.4458 -0.6756
  101MOL    H1024210   1.875   6.369   4.885  0.7072 -1.3174 -0.6900
  101MOL    H1124211   1.924   6.598   5.024 -0.6435 -1.3336 -0.8894
  101MOL    H1224212   2.082   6.513   5.035 -0.1926  1.6811 -1.2593
  101MOL    H1324213   1.743   6.358   5.193 -0.7274 -0.2998 -0.4045
  101MOL    O1424214   1.929   6.594   5.297 -0.2754  0.0879  0.2979
  101MOL    C1524215   1.947   6.646   5.430 -0.1210 -0.6482  0.4000
  101MOL    C1624216   1.856   6.763   5.428 -0.7384  0.2892 -0.2681
  101MOL    C1724217   1.915   6.539   5.536  0.5011 -0.3790 -0.2137
  101MOL    C1824218   1.976   6.546   5.685 -0.3248 -0.8701  0.0487
  101MOL    O1924219   2.003   6.456   5.762  0.1675 -0.0170 -0.6504
  101MOL    H2024220   2.050   6.681   5.440 -0.0507 -0.7922  0.1892
  101MOL    H2124221   1.881   6.829   5.345 -0.0569  0.2646 -0.0834
  101MOL    H2224222   1.855   6.812   5.526 -1.6346 -0.5970  0.1793
  101MOL    H2324223   1.754   6.735   5.403 -0.6788 -2.0549  1.9110
  101MOL    H2424224   1.928   6.441   5.490  1.7224 -0.4429  0.2419
  101MOL    H2524225   1.806   6.530   5.541  0.5596 -2.3992 -1.6741
  101MOL    O2624226   2.005   6.673   5.720 -0.1794  0.4930  0.3192
  101MOL    C2724227   2.065   6.714   5.846  0.3069  0.5420 -0.1783
  101MOL    C2824228   2.219   6.741   5.827  0.5144 -0.3170  0.2757
  101MOL    C2924229   1.984   6.833   5.897  0.1344  0.1649 -0.9388
  101MOL    C3024230   2.030   6.900   6.032  0.0861  0.4497 -0.2067
  101MOL    O3124231   2.079   6.838   6.124 -0.2064 -0.2370 -0.5963
  101MOL    H3224232   2.046   6.637   5.921  1.6768 -1.0911 -1.4656
  101MOL    H3324233   2.255   6.822   5.763 -0.1355  0.5509  0.9882
  101MOL    H3424234   2.271   6.661   5.775  0.6448  0.9447 -1.5851
  101MOL    H3524235   2.270   6.769   5.920  1.7104  1.7457 -0.9590
  101MOL    H3624236   1.885   6.803   5.930  0.5450  1.0744  1.2584
  101MOL    H3724237   1.975   6.896   5.809 -0.7995 -0.1892 -1.0950
  101MOL    O3824238   2.012   7.031   6.040  0.0933 -0.1434 -0.0271
  101MOL    C3924239   2.079   7.114   6.138 -0.0527  0.4805 -0.1380
  101MOL    C4024240   2.174   7.209   6.067 -0.2654 -0.2101 -0.2824
  101MOL    C4124241   1.979   7.196   6.222  0.3906  0.2440 -0.1459
  101MOL    C4224242   1.912   7.098   6.313  0.3165 -0.1805 -0.3540
  101MOL    O4324243   1.945   7.081   6.434  0.6194 -0.4723 -0.5750
  101MOL    H4424244   2.139   7.050   6.201  0.2517  0.4966 -0.4112
  101MOL    H4524245   2.122   7.278   6.002  1.3419 -0.0952 -1.4695
  101MOL    H4624246   2.237   7.161   5.993  0.2191 -0.7291  0.4537
  101MOL    H4724247   2.235   7.257   6.144 -0.0941 -0.9835  0.0795
  101MOL    H4824248   1.925   7.263   6.155  2.8546  4.4196  1.8533
  101MOL    H4924249   2.036   7.259   6.290 -2.1154  1.3898  0.9279
  101MOL    O5024250   1.807   7.047   6.252  0.6467  0.3312  0.3817
  101MOL    C5124251   1.735   6.940   6.315 -0.4775  0.6135  0.4191
  101MOL    C5224252   1.602   7.002   6.371 -0.1230 -0.3447  0.1144
  101MOL    C5324253   1.711   6.815   6.223  0.2716 -0.2930  0.2920
  101MOL    C5424254   1.596   6.826   6.114  0.0277  0.3556 -0.8296
  101MOL    O5524255   1.491   6.886   6.133 -0.2017  0.0741 -0.3922
  101MOL    H5624256   1.800   6.906   6.396  0.6018  3.0894  0.6496
  101MOL    H5724257   1.600   7.080   6.447 -0.3733 -0.1848 -0.0522
  101MOL    H5824258   1.537   6.919   6.400 -0.1161  0.6569  3.1296
  101MOL    H5924259   1.552   7.041   6.282  1.2191 -0.6587 -0.7839
  101MOL    H6024260   1.686   6.731   6.287  1.4300  0.2212  1.4330
  101MOL    H6124261   1.803   6.794   6.169  0.6124 -0.2098  0.8371
  101MOL    O6224262   1.626   6.757   6.001 -0.2848 -0.1294 -0.2990
  101MOL    C6324263   1.535   6.751   5.891 -0.5358  0.0947  0.1142
  101MOL    C6424264   1.633   6.748   5.770 -0.0464 -0.1885 -0.7184
  101MOL    C6524265   1.439   6.630   5.896  0.5395  0.2327 -0.2666
  101MOL    C6624266   1.504   6.497   5.917  0.0316  0.3044  0.1313
  101MOL    O6724267   1.493   6.408   5.829  0.2764  0.4788  0.5257
  101MOL    H6824268   1.482   6.846   5.889  1.1122  1.0310 -0.1187
  101MOL    H6924269   1.592   6.772   5.672  2.2872 -0.7302 -1.8760
  101MOL    H7024270   1.698   6.661   5.761  0.4942  0.1665 -0.2680
  101MOL    H7124271   1.706   6.827   5.790 -0.0891 -0.4695  0.5489
  101MOL    H7224272   1.387   6.629   5.800  2.3807  0.7605 -1.2922
  101MOL    H7324273   1.364   6.647   5.973  0.0352 -0.0415 -0.6921
  101MOL    O7424274   1.581   6.488   6.031 -0.4044 -0.0218 -0.5121
  101MOL    C7524275   1.665   6.377   6.054  0.9239 -0.0629 -0.3916
  101MOL    C7624276   1.815   6.418   6.058  0.6842 -0.6886 -0.0655
  101MOL    C7724277   1.617   6.299   6.178  0.2191  0.3997 -0.0343
  101MOL    C7824278   1.624   6.379   6.304 -0.3848  0.1286 -0.2677
  101MOL    O7924279   1.720   6.381   6.378  0.1171 -0.2496 -0.0233
  101MOL    H8024280   1.667   6.301   5.976 -0.2798 -0.2501 -0.2572
  101MOL    H8124281   1.855   6.458   5.964  2.3532 -3.1587 -0.4401
  101MOL    H8224282   1.865   6.322   6.068  1.0531 -0.3166  1.6469
  101MOL    H8324283   1.841   6.472   6.149  0.1416  0.8251 -0.7858
  101MOL    H8424284   1.680   6.212   6.198  1.7371  1.3479 -0.6006
  101MOL    H8524285   1.515   6.262   6.169  0.2231 -0.5154  3.0150
  101MOL    O8624286   1.517   6.467   6.326 -0.2134 -0.4497 -0.2655
  101MOL    C8724287   1.511   6.563   6.433 -0.0727  0.2005 -1.2904
  101MOL    C8824288   1.417   6.669   6.385  0.7783  0.1383 -0.9494
  101MOL    C8924289   1.458   6.490   6.558  0.6174  0.0721  0.3078
  101MOL    C9024290   1.457   6.563   6.690 -0.1736 -0.3883  0.1635
  101MOL    O9124291   1.452   6.688   6.705  0.2350 -0.1918 -0.0184
  101MOL    H9224292   1.609   6.611   6.441 -0.0759 -0.1745  1.5615
  101MOL    H9324293   1.320   6.623   6.363  0.8946 -0.3386 -0.4831
  101MOL    H9424294   1.452   6.706   6.289  1.9431  0.1394 -0.5267
  101MOL    H9524295   1.411   6.757   6.448 -1.7540 -0.0391 -0.8678
  101MOL    H9624296   1.525   6.404   6.568  1.6082  0.6155 -1.3872
  101MOL    H9724297   1.360   6.446   6.540  1.5095 -1.7884 -0.1729
  101MOL    O9824298   1.460   6.469   6.788 -0.2765 -0.1315  0.2884
  101MOL    C9924299   1.444   6.496   6.922 -0.3877  1.0814 -0.1419
  101MOL   C10024300   1.418   6.360   6.999  0.1127  0.3704 -0.3917
  101MOL   C10124301   1.562   6.567   6.987 -0.0755 -0.6641  0.4630
  101MOL   C10224302   1.538   6.613   7.128 -0.5839  0.5378 -0.5074
  101MOL   O10324303   1.615   6.566   7.218  0.4380 -0.2725 -0.0922
  101MOL   H10424304   1.362   6.566   6.936 -0.5537  0.6852  0.9889
  101MOL   H10524305   1.343   6.294   6.956 -0.8106  0.0195  1.6965
  101MOL   H10624306   1.392   6.373   7.104 -1.4401  0.2888 -0.7521
  101MOL   H10724307   1.510   6.303   7.012 -0.3136  0.1897  2.1037
  101MOL   H10824308   1.568   6.660   6.931  0.6880 -0.0307  1.5821
  101MOL   H10924309   1.656   6.512   6.978  1.1983  1.6195 -0.5532
  101MOL   O11024310   1.440   6.696   7.148  0.1218 -0.6714 -0.2876
  101MOL   C11124311   1.378   6.728   7.273  0.3785 -0.2237  0.3528
  101MOL   C11224312   1.470   6.799   7.373  0.2078  0.5378 -0.1157
  101MOL   C11324313   1.250   6.806   7.249  0.3494  0.5858  1.1533
  101MOL   C11424314   1.150   6.800   7.356  0.0753 -0.8219 -0.0701
  101MOL   O11524315   1.156   6.731   7.458  0.6666  0.2694  0.2074
  101MOL   H11624316   1.357   6.627   7.309 -1.9401 -0.3134 -1.1108
  101MOL   H11724317   1.485   6.902   7.339 -0.1592  1.0332  1.2044
  101MOL   H11824318   1.561   6.741   7.391  0.6612  1.3928  0.4068
  101MOL   H11924319   1.433   6.810   7.475  1.5042  1.4449  0.2706
  101MOL   H12024320   1.201   6.771   7.157  1.1884  2.0091  0.1503
  101MOL   H12124321   1.272   6.911   7.230  2.2204 -0.3142 -1.9824
  101MOL   O12224322   1.037   6.861   7.315  0.5945  0.0283  0.9049
  101MOL   C12324323   0.916   6.871   7.399 -0.0922  0.4125  0.1493
  101MOL   C12424324   0.916   6.967   7.520 -0.2958  0.4637  0.1468
  101MOL   C12524325   0.807   6.902   7.299  0.1279 -0.3606  0.1495
  101MOL   C12624326   0.659   6.877   7.340 -0.7887  0.5329  0.4598
  101MOL   O12724327   0.612   6.932   7.441  0.0111 -0.2713  0.2224
  101MOL   H12824328   0.907   6.771   7.442  1.1200 -0.3090 -1.2227
  101MOL   H12924329   0.954   7.065   7.494  2.1104 -0.3072  0.6417
  101MOL   H13024330   0.980   6.940   7.604 -1.1035 -1.5867  0.1396
  101MOL   H13124331   0.811   6.975   7.548 -0.7770 -2.3607 -0.6072
  101MOL   H13224332   0.814   6.834   7.214 -2.4957 -3.1035  2.0124
  101MOL   H13324333   0.825   7.005   7.267  1.8860 -0.0175  2.0953
  101MOL   O13424334   0.590   6.795   7.252  0.0043  0.1101 -0.5521
  101MOL   C13524335   0.457   6.757   7.289  0.7220  0.3020  0.2315
  101MOL   C13624336   0.357   6.856   7.221 -0.0871 -0.1955  0.1272
  101MOL   C13724337   0.444   6.602   7.263 -0.1088 -0.0433 -0.0619
  101MOL   C13824338   0.308   6.562   7.294 -0.3482  0.0393  0.3226
  101MOL   O13924339   0.274   6.519   7.405 -0.5199  0.6341 -0.3269
  101MOL   H14024340   0.449   6.763   7.398  2.6985  1.0397  0.3493
  101MOL   H14124341   0.311   6.816   7.131 -2.7977  0.9092  0.9608
  101MOL   H14224342   0.386   6.961   7.213 -3.6472  1.0136  1.9836
  101MOL   H14324343   0.265   6.860   7.279  0.3809 -0.5710  0.9070
  101MOL   H14424344   0.511   6.541   7.324 -0.8437 -1.7745 -0.9510
  101MOL   H14524345   0.463   6.584   7.157  3.7653 -0.8650  0.6849
  101MOL   O14624346   0.237   6.559   7.187 -0.3114  0.7862 -0.2418
  101MOL   C14724347   0.096   6.538   7.186  0.0259  0.1153 -0.1060
  101MOL   C14824348   0.026   6.667   7.178  0.0288 -0.2160  0.3664
  101MOL   C14924349   0.059   6.438   7.069  0.0740 -0.6702 -0.7016
  101MOL   C15024350   0.091   6.297   7.108  0.0007 -0.4035  0.7492
  101MOL   O15124351   7.980   6.221   7.145 -0.0070 -0.3457  0.0767
  101MOL   H15224352   0.056   6.488   7.275  1.1645  0.0884  0.3922
  101MOL   H15324353   0.058   6.726   7.264 -0.3138  1.2414 -0.4697
  101MOL   H15424354   7.898   6.657   7.176 -0.0495  0.3884  1.2643
  101MOL   H15524355   0.053   6.715   7.084 -0.3079  0.2990  0.5286
  101MOL   H15624356   0.125   6.453   6.984  1.4805 -0.1973  0.4431
  101MOL   H15724357   7.933   6.441   7.045 -0.3610 -1.4856  0.9976
  101MOL   O15824358   0.215   6.256   7.080  0.1719  0.1863 -0.3745
  101MOL   C15924359   0.264   6.120   7.099  0.7097 -0.0790  0.6716
  101MOL   C16024360   0.272   6.066   6.950 -0.3711  0.0572  0.4182
  101MOL   C16124361   0.393   6.125   7.174 -0.1473 -0.3291 -0.1564
  101MOL   C16224362   0.511   6.210   7.113  0.2472  0.4719 -0.2825
  101MOL   O16324363   0.520   6.329   7.144 -0.2989 -0.2011  0.6072
  101MOL   H16424364   0.190   6.085   7.170 -1.1600 -0.3596 -1.3465
  101MOL   H16524365   0.176   6.061   6.898  0.0668 -2.9706 -0.1772
  101MOL   H16624366   0.310   5.965   6.965 -2.5084 -0.6184  1.4672
  101MOL   H16724367   0.353   6.109   6.892  0.9525 -2.5188  0.2925
  101MOL   H16824368   0.439   6.027   7.188  0.2951 -0.0686  0.2240
  101MOL   H16924369   0.356   6.161   7.270 -2.3482  1.7133 -1.7313
  101MOL   O17024370   0.588   6.136   7.032 -0.5270 -0.3109  0.2025
  101MOL   C17124371   0.700   6.189   6.972  0.0600  0.0086  0.3409
  101MOL   C17224372   0.808   6.095   7.027  0.5498 -0.3109  0.2927
  101MOL   C17324373   0.691   6.205   6.815  0.2344 -0.0189 -0.7127
  101MOL   C17424374   0.605   6.324   6.770  0.5069 -0.1408  0.3047
  101MOL   O17524375   0.483   6.322   6.778 -0.3025  0.2617 -0.2549
  101MOL   H17624376   0.706   6.292   7.007  4.3316 -0.2255  0.4675
  101MOL   H17724377   0.909   6.122   6.996  0.8797 -0.9421  0.7973
  101MOL   H17824378   0.777   5.994   6.999 -0.6362  0.1696 -0.1467
  101MOL   H17924379   0.812   6.086   7.135  0.3144  2.2204  0.5415
  101MOL   H18024380   0.669   6.109   6.767  0.4269 -0.9901  1.1114
  101MOL   H18124381   0.794   6.215   6.781  0.4319 -2.3966 -0.9067
  101MOL   O18224382   0.672   6.425   6.732  0.1909 -0.0276 -0.1612
  101MOL   C18324383   0.610   6.549   6.685  0.0543 -1.4346 -0.0990
  101MOL   C18424384   0.585   6.643   6.808 -0.4040 -0.5684  0.0986
  101MOL   C18524385   0.699   6.611   6.579  0.2748  0.8582 -0.1968
  101MOL   C18624386   0.685   6.534   6.449 -0.3900  0.6049 -0.3807
  101MOL   O18724387   0.625   6.587   6.358 -0.0489 -0.0880 -0.4108
  101MOL   H18824388   0.513   6.535   6.639  0.4601 -0.7362 -1.1798
  101MOL   H18924389   0.679   6.657   6.862  0.5250 -1.4989 -1.2482
  101MOL   H19024390   0.506   6.607   6.874  0.4565 -2.3226  0.2135
  101MOL   H19124391   0.529   6.732   6.778 -1.7909 -1.4484  0.0321
  101MOL   H19224392   0.803   6.617   6.609 -0.2374  0.0736  1.7740
  101MOL   H19324393   0.651   6.705   6.551  0.1341  0.2004 -2.2795
  101MOL   O19424394   0.743   6.414   6.446  0.4033  0.4257  0.1450
  101MOL   C19524395   0.733   6.327   6.330 -0.6081  0.7774  0.4103
  101MOL   C19624396   0.843   6.225   6.331 -0.4124  0.0277  0.1198
  101MOL   C19724397   0.590   6.259   6.319  0.4569 -0.0277  0.1514
  101MOL   C19824398   0.548   6.156   6.425 -0.0529  0.1524 -0.7594
  101MOL   O19924399   0.633   6.101   6.496 -0.4830  0.3748  0.2834
  101MOL   H20024400   0.743   6.390   6.242  0.4357 -1.3511 -1.0490
  101MOL   H20124401   0.817   6.150   6.256  1.7056 -2.6659  1.9694
  101MOL   H20224402   0.845   6.175   6.428  3.2528  0.3124  0.2790
  101MOL   H20324403   0.935   6.281   6.313  0.2910 -0.0079  3.2892
  101MOL   H20424404   0.584   6.209   6.222 -1.0610 -1.6765  1.0646
  101MOL   H20524405   0.499   6.317   6.333 -0.9927 -2.4505  1.1810
  101MOL   O20624406   0.418   6.149   6.439 -1.3277 -0.2411 -0.5575
  101MOL   C20724407   0.363   6.088   6.554  0.7436 -0.4090  0.2235
  101MOL   C20824408   0.226   6.154   6.589 -0.3696  0.0051  0.2491
  101MOL   C20924409   0.347   5.935   6.513  0.2268 -0.5663  0.5566
  101MOL   C21024410   0.323   5.844   6.639  0.1155  0.8544 -0.5506
  101MOL   O21124411   0.214   5.779   6.658  0.1974 -0.1180 -0.1089
  101MOL   H21224412   0.433   6.094   6.637  1.0280 -0.7854  0.0101
  101MOL   H21324413   0.180   6.190   6.497 -0.5203 -1.8396 -0.4251
  101MOL   H21424414   0.248   6.229   6.664 -0.6656 -0.1678  0.5082
  101MOL   H21524415   0.158   6.092   6.647  1.0452 -0.3984  1.4875
  101MOL   H21624416   0.438   5.901   6.464 -0.1859 -0.5832 -0.2085
  101MOL   H21724417   0.257   5.915   6.453 -0.0162 -0.9230  1.0353
  101MOL   O21824418   0.434   5.843   6.717  0.4551  0.0294 -0.9773
  101MOL   C21924419   0.436   5.745   6.822 -0.4937 -0.1535  0.4514
  101MOL   C22024420   0.477   5.607   6.762 -0.9194 -0.5180  0.4524
  101MOL   C22124421   0.537   5.802   6.934 -0.3428 -1.0325  0.1112
  101MOL   C22224422   0.506   5.738   7.062  0.7552  0.5397 -0.8487
  101MOL   O22324423   0.426   5.792   7.137 -0.1057 -0.1308  0.0697
  101MOL   H22424424   0.338   5.748   6.871 -0.7725  1.7452 -0.2121
  101MOL   H22524425   0.498   5.543   6.847  1.3489  1.4549  1.4274
  101MOL   H22624426   0.566   5.609   6.699 -0.4822 -0.0002  1.0803
  101MOL   H22724427   0.396   5.567   6.701 -0.9062  2.0549 -1.3448
  101MOL   H22824428   0.521   5.910   6.945  1.2551 -0.5020 -2.2890
  101MOL   H22924429   0.638   5.783   6.899 -0.9567 -0.4450 -2.0859
  101MOL   O23024430   0.560   5.619   7.087 -0.2910  0.1847  0.1628
  101MOL   C23124431   0.532   5.552   7.210  0.1928 -0.1717 -0.2986
  101MOL   C23224432   0.419   5.452   7.180  0.2687 -0.4310 -0.0722
  101MOL   C23324433   0.661   5.478   7.257  1.3981  0.5828 -0.5791
  101MOL   C23424434   0.656   5.414   7.391 -0.0669  0.5986 -0.1384
  101MOL   O23524435   0.561   5.443   7.464 -0.0620  0.8964 -0.2295
  101MOL   H23624436   0.494   5.609   7.296 -1.1394 -2.7272  0.8454
  101MOL   H23724437   0.433   5.380   7.099  0.9174 -0.6714  0.2417
  101MOL   H23824438   0.328   5.503   7.150  0.4021  0.0175  0.2826
  101MOL   H23924439   0.388   5.388   7.262 -0.2801 -1.3191 -0.9574
  101MOL   H24024440   0.736   5.557   7.257  0.9225  1.0375 -0.3668
  101MOL   H24124441   0.696   5.407   7.183 -2.0482  1.3951 -3.1374
  101MOL   H24224442   0.736   5.346   7.420 -1.1109 -0.8154 -0.5407
  102MOL     O124443   6.617   3.314   2.001 -0.4306 -0.0596  0.0039
  102MOL     C224444   6.659   3.445   1.974  0.5831  0.7094 -0.1945
  102MOL     C324445   6.606   3.474   1.831 -0.1173  0.1264 -0.8284
  102MOL     C424446   6.589   3.527   2.079  0.3322  0.3403  0.4880
  102MOL     C524447   6.620   3.681   2.074 -0.2186 -0.2473 -0.0843
  102MOL     O624448   6.690   3.738   2.153 -0.1025  0.0076  0.7429
  102MOL     H724449   6.767   3.438   1.977  0.5639  0.4202 -0.1225
  102MOL     H824450   6.642   3.565   1.783 -0.6921  1.1954  0.7377
  102MOL     H924451   6.498   3.486   1.839 -0.1859  0.6762 -2.4308
  102MOL    H1024452   6.627   3.388   1.768 -2.2867 -0.6959 -0.4815
  102MOL    H1124453   6.622   3.504   2.180 -0.6647  0.3745  0.8313
  102MOL    H1224454   6.480   3.519   2.076  0.2850  1.3649 -1.3095
  102MOL    H1324455   6.671   3.278   2.070  1.2654  0.0515 -1.2232
  102MOL    O1424456   6.565   3.747   1.968 -0.1487 -0.4265 -0.3727
  102MOL    C1524457   6.587   3.891   1.949  0.4098  0.1168 -0.3252
  102MOL    C1624458   6.665   3.896   1.818  0.4256 -0.6326  0.3809
  102MOL    C1724459   6.444   3.960   1.935  0.1675 -0.3079 -0.4328
  102MOL    C1824460   6.362   3.978   2.063  0.4255  0.1533 -0.5412
  102MOL    O1924461   6.253   4.038   2.061 -0.0585 -0.2062  0.2101
  102MOL    H2024462   6.639   3.927   2.038 -1.1914 -2.5309  1.7815
  102MOL    H2124463   6.602   3.855   1.740 -0.8742 -0.5682  1.3707
  102MOL    H2224464   6.765   3.852   1.822  0.9227  0.3666 -0.7326
  102MOL    H2324465   6.691   4.001   1.801  0.9187 -0.9705 -0.9632
  102MOL    H2424466   6.376   3.902   1.872 -0.0474 -0.7985  0.2413
  102MOL    H2524467   6.447   4.062   1.896  0.8695 -0.8712 -1.8759
  102MOL    O2624468   6.402   3.904   2.159 -0.6296  0.1262  0.3389
  102MOL    C2724469   6.327   3.891   2.283 -0.8802  0.6138 -0.5883
  102MOL    C2824470   6.228   3.775   2.263  0.5032 -0.3979  0.5936
  102MOL    C2924471   6.422   3.856   2.406 -0.2715  0.6146  0.1986
  102MOL    C3024472   6.515   3.974   2.435  0.2779 -0.4481 -0.8506
  102MOL    O3124473   6.481   4.057   2.523  0.6897  0.0591 -0.7032
  102MOL    H3224474   6.266   3.978   2.304 -2.3923  0.4557 -4.0608
  102MOL    H3324475   6.147   3.805   2.197  0.7770 -1.5775 -0.2813
  102MOL    H3424476   6.200   3.726   2.356 -0.0125 -0.2056  0.5392
  102MOL    H3524477   6.264   3.688   2.208 -2.0256 -0.8552 -0.3776
  102MOL    H3624478   6.471   3.762   2.382 -0.4848  0.7780 -0.8998
  102MOL    H3724479   6.367   3.844   2.500  1.4938 -1.9707  0.9473
  102MOL    O3824480   6.629   3.986   2.357  0.1362 -0.0576 -0.1077
  102MOL    C3924481   6.727   4.079   2.372 -0.7775 -0.7256  0.1241
  102MOL    C4024482   6.848   3.979   2.398  0.2169 -0.2046  0.8295
  102MOL    C4124483   6.742   4.160   2.251 -0.5207  0.3233  0.3358
  102MOL    C4224484   6.645   4.278   2.235  0.0176 -0.3091  0.1396
  102MOL    O4324485   6.681   4.375   2.171 -0.4247 -0.7230  0.2614
  102MOL    H4424486   6.701   4.142   2.457 -0.4708 -2.7020  1.7528
  102MOL    H4524487   6.861   3.921   2.306  1.1490 -0.4153  1.0846
  102MOL    H4624488   6.843   3.905   2.477 -1.6302 -0.8438  0.1408
  102MOL    H4724489   6.943   4.026   2.425  0.4704 -0.4055  0.2986
  102MOL    H4824490   6.725   4.094   2.166 -1.2140  0.2611  0.5154
  102MOL    H4924491   6.839   4.210   2.246 -1.0159  1.4026  1.2401
  102MOL    O5024492   6.522   4.272   2.303  0.1083  0.0251 -0.1364
  102MOL    C5124493   6.428   4.383   2.297  0.2697  0.3478 -0.7042
  102MOL    C5224494   6.294   4.327   2.234 -0.8612  0.3518  0.2583
  102MOL    C5324495   6.399   4.434   2.437 -0.4028  0.3030  0.5009
  102MOL    C5424496   6.503   4.533   2.487 -0.8291  0.9434 -0.2062
  102MOL    O5524497   6.479   4.651   2.485  0.0565 -0.0544 -0.0243
  102MOL    H5624498   6.461   4.461   2.228 -1.5239  1.9396  0.2032
  102MOL    H5724499   6.268   4.231   2.278  0.2634 -1.0662 -2.0878
  102MOL    H5824500   6.305   4.315   2.126  0.3204  1.1780  0.2819
  102MOL    H5924501   6.206   4.390   2.249 -2.0984 -1.0000 -1.1401
  102MOL    H6024502   6.398   4.353   2.509 -0.8719 -0.5690 -0.4760
  102MOL    H6124503   6.302   4.484   2.448 -2.3007 -2.5826 -2.2133
  102MOL    O6224504   6.627   4.483   2.519 -0.0009 -0.1325 -0.1585
  102MOL    C6324505   6.739   4.571   2.538 -0.4610 -0.4118  0.5384
  102MOL    C6424506   6.835   4.517   2.646 -0.2141 -0.1440  0.3850
  102MOL    C6524507   6.806   4.607   2.406 -0.1593 -0.1996  0.4406
  102MOL    C6624508   6.741   4.724   2.335  0.6330  0.1424  0.4953
  102MOL    O6724509   6.775   4.839   2.364  0.1307 -0.6382  0.5831
  102MOL    H6824510   6.697   4.669   2.560 -0.8765 -0.2136 -1.0413
  102MOL    H6924511   6.920   4.473   2.596 -1.9396 -0.4317 -2.3906
  102MOL    H7024512   6.785   4.445   2.711 -0.7034  2.5785  3.1744
  102MOL    H7124513   6.869   4.606   2.701 -0.8201  0.1296  0.3273
  102MOL    H7224514   6.812   4.515   2.348  3.4368  0.4334 -0.2632
  102MOL    H7324515   6.903   4.646   2.437 -0.1817  2.7429 -2.8695
  102MOL    O7424516   6.670   4.682   2.229  0.3237 -0.1794  0.1133
  102MOL    C7524517   6.620   4.768   2.135 -0.1508 -0.1888  0.1003
  102MOL    C7624518   6.743   4.824   2.059  0.4280 -0.3213 -0.1818
  102MOL    C7724519   6.520   4.698   2.044  0.2110  0.0001  1.0824
  102MOL    C7824520   6.435   4.789   1.955 -0.2210  0.2191  0.2318
  102MOL    O7924521   6.351   4.739   1.882 -0.3197 -0.1245 -0.4492
  102MOL    H8024522   6.577   4.853   2.190  0.7181 -1.1587  2.3305
  102MOL    H8124523   6.814   4.877   2.123 -1.0686 -1.1861  2.2732
  102MOL    H8224524   6.716   4.888   1.975  0.0280  0.5725  0.6267
  102MOL    H8324525   6.798   4.739   2.018  0.5436  0.3994 -1.5376
  102MOL    H8424526   6.443   4.633   2.085  0.8021 -1.5980 -0.2979
  102MOL    H8524527   6.574   4.634   1.974  0.2307  0.4829  0.6528
  102MOL    O8624528   6.458   4.923   1.976 -0.4682 -0.4262  0.0260
  102MOL    C8724529   6.400   5.027   1.896  0.4788  0.6850 -0.0785
  102MOL    C8824530   6.247   5.030   1.924  0.8797 -0.3494 -0.0584
  102MOL    C8924531   6.484   5.148   1.942 -1.0625 -0.1046  0.1469
  102MOL    C9024532   6.469   5.192   2.083 -0.1882  0.5744  0.5148
  102MOL    O9124533   6.411   5.301   2.103 -0.5268  0.1319  0.0116
  102MOL    H9224534   6.420   5.019   1.789 -0.0798 -0.3552 -0.1182
  102MOL    H9324535   6.219   5.121   1.871  0.1553 -0.6571 -0.2052
  102MOL    H9424536   6.221   5.033   2.030 -1.8327  0.6007 -0.7109
  102MOL    H9524537   6.181   4.962   1.871 -3.5710  3.3308  0.5188
  102MOL    H9624538   6.459   5.240   1.888  0.5208  0.6352  0.6392
  102MOL    H9724539   6.591   5.142   1.921 -0.5175  0.9719  2.4003
  102MOL    O9824540   6.516   5.114   2.179 -0.0375  0.2316  0.4119
  102MOL    C9924541   6.499   5.152   2.318  0.0286  0.4661 -0.4893
  102MOL   C10024542   6.415   5.038   2.389  0.1369 -0.0023  0.2856
  102MOL   C10124543   6.645   5.176   2.373  0.1786  0.2900  0.2765
  102MOL   C10224544   6.709   5.300   2.313 -0.9304 -0.3506 -0.2836
  102MOL   O10324545   6.711   5.409   2.369 -0.6374  0.1258  0.3360
  102MOL   H10424546   6.438   5.241   2.334 -1.7831 -0.5972 -1.3740
  102MOL   H10524547   6.458   4.940   2.371  0.4866 -0.2654  2.4012
  102MOL   H10624548   6.313   5.044   2.350  0.0749  0.1101  0.4651
  102MOL   H10724549   6.424   5.064   2.495 -0.7851 -0.5802  0.5118
  102MOL   H10824550   6.710   5.090   2.357 -1.4652 -0.8198 -0.6281
  102MOL   H10924551   6.635   5.205   2.477 -2.1250 -2.8847  1.0191
  102MOL   O11024552   6.769   5.274   2.196 -0.0994 -0.2709  0.2996
  102MOL   C11124553   6.838   5.375   2.121 -0.2471 -0.1222 -0.2285
  102MOL   C11224554   6.991   5.357   2.133 -0.5764  0.0683  0.7278
  102MOL   C11324555   6.779   5.374   1.981  0.0360  0.1977 -0.3126
  102MOL   C11424556   6.847   5.453   1.865  0.1193  0.7944 -0.0831
  102MOL   O11524557   6.901   5.391   1.773  0.4485 -0.2729  0.2158
  102MOL   H11624558   6.807   5.468   2.166  1.1102 -1.6357  4.0907
  102MOL   H11724559   7.024   5.256   2.108  1.8060  0.6466  1.4388
  102MOL   H11824560   7.020   5.374   2.236 -0.3719 -1.6445  0.9724
  102MOL   H11924561   7.036   5.431   2.067 -1.5403  1.6562  1.8221
  102MOL   H12024562   6.682   5.423   1.990 -1.6615 -3.1955  0.6172
  102MOL   H12124563   6.757   5.271   1.954 -0.4107 -0.3701  2.0831
  102MOL   O12224564   6.858   5.595   1.883  0.3625  0.1589  0.1678
  102MOL   C12324565   6.942   5.668   1.800  0.1812 -0.0563 -0.4087
  102MOL   C12424566   6.859   5.707   1.677 -0.5828 -0.0253 -0.0861
  102MOL   C12524567   7.014   5.778   1.873 -0.1710  0.1245 -0.4424
  102MOL   C12624568   7.151   5.744   1.922 -0.1816 -0.2942 -0.0931
  102MOL   O12724569   7.173   5.673   2.019  0.2455  0.2094 -0.1798
  102MOL   H12824570   7.022   5.605   1.763 -0.3867 -1.9862  1.5501
  102MOL   H12924571   6.837   5.624   1.611 -2.2246 -0.2661  0.7561
  102MOL   H13024572   6.927   5.770   1.619  0.8156 -3.6606 -2.5517
  102MOL   H13124573   6.767   5.761   1.699 -0.0710  1.2144 -0.9053
  102MOL   H13224574   6.967   5.799   1.969 -0.9421  1.9556 -1.2119
  102MOL   H13324575   7.013   5.867   1.811  1.1597 -1.2484 -2.4984
  102MOL   O13424576   7.249   5.805   1.844  0.4224  0.9540 -0.1355
  102MOL   C13524577   7.385   5.789   1.858  0.2859  0.1261  1.0063
  102MOL   C13624578   7.455   5.755   1.727 -0.1841 -0.2258 -0.4990
  102MOL   C13724579   7.458   5.909   1.914  0.1536 -0.2811  0.3045
  102MOL   C13824580   7.418   5.955   2.056 -0.5292  0.3007  0.4915
  102MOL   O13924581   7.501   5.973   2.138 -0.4914  0.5002  0.0692
  102MOL   H14024582   7.404   5.699   1.918  0.5798  0.0818  0.8485
  102MOL   H14124583   7.548   5.702   1.743  0.7785  0.9371 -2.0978
  102MOL   H14224584   7.467   5.843   1.664  0.2020 -1.0159 -1.5352
  102MOL   H14324585   7.388   5.684   1.679  1.2168 -3.2378  1.8546
  102MOL   H14424586   7.443   5.987   1.839 -0.6276 -1.0807 -0.3719
  102MOL   H14524587   7.563   5.882   1.905 -0.4878 -2.5631 -0.9509
  102MOL   O14624588   7.286   5.970   2.071  0.2193  0.4763  0.0555
  102MOL   C14724589   7.228   6.025   2.184 -0.1250 -0.0029  0.4200
  102MOL   C14824590   7.230   6.173   2.163  0.5031 -0.5999 -0.3091
  102MOL   C14924591   7.083   5.981   2.200  0.0375  0.3448  0.4615
  102MOL   C15024592   7.013   6.024   2.325 -0.7961 -0.7717 -0.4774
  102MOL   O15124593   6.891   6.046   2.320 -0.3741  0.5368  0.4439
  102MOL   H15224594   7.280   6.006   2.278 -1.1171 -2.4182  0.5156
  102MOL   H15324595   7.193   6.199   2.064  1.3483  0.3015 -0.4036
  102MOL   H15424596   7.334   6.204   2.177 -0.2006  1.2357  1.1575
  102MOL   H15524597   7.166   6.231   2.230 -0.9985  0.0675 -2.2637
  102MOL   H15624598   7.077   5.872   2.203  0.5566  0.3082  0.2540
  102MOL   H15724599   7.027   6.017   2.114 -0.6409 -0.6898  0.4545
  102MOL   O15824600   7.087   6.026   2.434  1.0052 -0.1825 -0.5232
  102MOL   C15924601   7.032   6.063   2.558  0.4107  0.2671  0.1534
  102MOL   C16024602   7.007   5.931   2.628  0.0668 -0.0312  0.8640
  102MOL   C16124603   7.137   6.155   2.626 -0.2823 -0.8501 -0.3403
  102MOL   C16224604   7.148   6.299   2.582 -0.5326 -0.0897  0.6296
  102MOL   O16324605   7.250   6.343   2.530  0.2283  0.2464  0.1699
  102MOL   H16424606   6.937   6.115   2.555  0.1019 -0.1848  1.7355
  102MOL   H16524607   7.082   5.854   2.614 -0.0219 -0.0682  0.6028
  102MOL   H16624608   6.915   5.896   2.582  2.0289 -0.9863 -2.5123
  102MOL   H16724609   6.978   5.941   2.733 -0.0750  1.6859  0.6761
  102MOL   H16824610   7.233   6.106   2.612 -0.0728 -0.0371 -1.8625
  102MOL   H16924611   7.122   6.169   2.733 -0.1777  1.4651 -0.6027
  102MOL   O17024612   7.037   6.381   2.609 -0.3476  0.7121  0.0111
  102MOL   C17124613   7.038   6.522   2.598 -0.4730  0.5057  0.4072
  102MOL   C17224614   7.011   6.569   2.455 -0.7888  0.3697 -0.2152
  102MOL   C17324615   6.946   6.597   2.696  0.5248  0.3246 -1.2412
  102MOL   C17424616   7.006   6.725   2.758  0.9823 -0.1576 -0.3493
  102MOL   O17524617   7.115   6.770   2.728 -0.4696 -0.4766  0.0041
  102MOL   H17624618   7.140   6.559   2.609  0.0242 -0.3884 -1.0569
  102MOL   H17724619   7.094   6.533   2.393 -0.2550  2.5136 -0.7835
  102MOL   H17824620   7.009   6.677   2.439  0.3583  0.7028  1.7928
  102MOL   H17924621   6.912   6.541   2.418 -1.3508 -1.4503  2.5619
  102MOL   H18024622   6.928   6.534   2.783  0.6296  1.0812 -0.6568
  102MOL   H18124623   6.855   6.634   2.649 -0.6278  0.9276  1.3547
  102MOL   O18224624   6.926   6.775   2.861  0.0378  0.3375  0.2464
  102MOL   C18324625   6.954   6.899   2.920 -0.2376  0.4882  0.1020
  102MOL   C18424626   6.837   6.984   2.954  0.8500  0.3989 -0.3523
  102MOL   C18524627   7.049   6.882   3.041  0.0943 -0.2840 -0.2893
  102MOL   C18624628   6.997   6.785   3.152 -0.2546  0.3952  0.1756
  102MOL   O18724629   7.053   6.673   3.164  0.4194 -0.6484 -0.4256
  102MOL   H18824630   6.999   6.965   2.846 -0.6508  2.5402  1.6714
  102MOL   H18924631   6.772   7.017   2.874  2.8161  2.6867 -1.0699
  102MOL   H19024632   6.869   7.077   3.002 -1.3503  0.8294  0.3160
  102MOL   H19124633   6.780   6.942   3.037  3.5395  0.2880  1.5145
  102MOL   H19224634   7.091   6.974   3.083  0.2089 -0.2892 -0.3930
  102MOL   H19324635   7.143   6.839   3.009  1.0162  1.1948  0.3756
  102MOL   O19424636   6.900   6.841   3.239  0.1794 -0.0796  0.1403
  102MOL   C19524637   6.832   6.768   3.345 -0.2190  0.2125  0.5655
  102MOL   C19624638   6.885   6.834   3.475 -0.0613  0.5399 -0.5948
  102MOL   C19724639   6.683   6.761   3.328 -0.7601 -0.4327  0.1126
  102MOL   C19824640   6.608   6.896   3.346  0.6817  0.1634  0.0928
  102MOL   O19924641   6.567   6.935   3.458  0.0616 -0.3496  0.3265
  102MOL   H20024642   6.873   6.667   3.347 -2.3617 -0.6772  0.5439
  102MOL   H20124643   6.884   6.943   3.472  3.4498  0.6529  0.2197
  102MOL   H20224644   6.986   6.795   3.491 -0.1499 -0.0058 -1.3503
  102MOL   H20324645   6.817   6.809   3.556  1.7687  0.9991  1.1543
  102MOL   H20424646   6.637   6.704   3.409 -0.2033 -1.1588 -0.0728
  102MOL   H20524647   6.655   6.705   3.239 -1.5357  0.0584  0.0431
  102MOL   O20624648   6.599   6.967   3.231 -0.2504 -0.1510 -0.6354
  102MOL   C20724649   6.506   7.069   3.215  0.3934  0.1201 -0.3674
  102MOL   C20824650   6.553   7.215   3.255 -0.8291  1.0634  0.2601
  102MOL   C20924651   6.449   7.053   3.077  0.3503  0.0707 -0.0095
  102MOL   C21024652   6.339   6.944   3.054 -0.5991 -0.7067  0.1573
  102MOL   O21124653   6.225   6.978   3.034 -0.0031 -0.7004 -0.7995
  102MOL   H21224654   6.424   7.055   3.285 -0.0131  3.1321 -0.1691
  102MOL   H21324655   6.614   7.254   3.174  1.9284  1.5724  2.4948
  102MOL   H21424656   6.618   7.215   3.343  0.2899  1.1553 -0.5574
  102MOL   H21524657   6.478   7.293   3.269  0.3169  2.0880  0.8557
  102MOL   H21624658   6.530   7.044   3.003 -0.2183  1.5219 -0.8468
  102MOL   H21724659   6.397   7.146   3.055  0.6413  0.4882  1.0591
  102MOL   O21824660   6.377   6.819   3.089  0.4141  0.3674 -0.4857
  102MOL   C21924661   6.281   6.719   3.103 -0.3252  0.5022 -0.7388
  102MOL   C22024662   6.269   6.656   2.966 -1.0164 -0.3068 -0.1777
  102MOL   C22124663   6.317   6.626   3.221  0.6713  0.1523 -0.1149
  102MOL   C22224664   6.255   6.657   3.359  0.0156  0.1091  0.2216
  102MOL   O22324665   6.174   6.577   3.407  0.4556  0.5782 -0.2603
  102MOL   H22424666   6.187   6.767   3.131 -1.2550 -0.0066 -2.9449
  102MOL   H22524667   6.272   6.730   2.886 -2.0359  0.2970  0.3320
  102MOL   H22624668   6.178   6.597   2.955 -1.1676  0.2010 -1.7944
  102MOL   H22724669   6.338   6.575   2.943  0.6422  0.9131  0.3964
  102MOL   H22824670   6.423   6.619   3.245  0.6117  1.5939  0.5921
  102MOL   H22924671   6.289   6.526   3.186 -0.7461  0.7691 -0.7768
  102MOL   O23024672   6.317   6.757   3.426  0.1376  0.6293  0.6439
  102MOL   C23124673   6.268   6.792   3.553  0.5029  0.7580  0.4871
  102MOL   C23224674   6.361   6.731   3.665 -0.4332 -0.4061 -0.2389
  102MOL   C23324675   6.248   6.939   3.555 -0.1263 -0.5293 -0.5830
  102MOL   C23424676   6.120   6.991   3.601 -0.2203 -0.0458 -0.5179
  102MOL   O23524677   6.048   6.927   3.676 -0.4527 -0.2343  0.5475
  102MOL   H23624678   6.173   6.745   3.573  0.6465  0.9191  1.5568
  102MOL   H23724679   6.339   6.762   3.767 -1.3975 -1.0949 -0.2320
  102MOL   H23824680   6.461   6.764   3.636  0.4270 -2.1753  0.6806
  102MOL   H23924681   6.350   6.622   3.660 -2.1260 -0.3130  1.2311
  102MOL   H24024682   6.253   6.970   3.451 -0.9921  2.1172  0.1189
  102MOL   H24124683   6.324   6.998   3.606 -0.3407  0.4453 -1.3705
  102MOL   H24224684   6.106   7.096   3.575 -1.1965  0.6387  2.5390
  103MOL     O124685   6.476   2.606   4.996 -0.4121 -0.1103  0.0119
  103MOL     C224686   6.433   2.544   5.115  0.1066  0.3812 -0.2643
  103MOL     C324687   6.500   2.405   5.136  0.7629  0.6829 -0.4415
  103MOL     C424688   6.451   2.632   5.240  0.2396  0.3228 -0.0513
  103MOL     C524689   6.350   2.614   5.354  0.2102 -0.4754  0.0763
  103MOL     O624690   6.336   2.503   5.401  0.2107  0.5089 -0.5516
  103MOL     H724691   6.327   2.519   5.107 -0.3566  2.5037 -1.1571
  103MOL     H824692   6.608   2.411   5.129  0.9153 -0.4977  0.7482
  103MOL     H924693   6.472   2.345   5.050  0.6271 -0.1964  0.2059
  103MOL    H1024694   6.473   2.347   5.225  1.4550  0.2556 -0.5131
  103MOL    H1124695   6.460   2.737   5.212 -1.1367  0.2201 -0.9294
  103MOL    H1224696   6.549   2.619   5.285  0.2530 -0.3952 -0.2863
  103MOL    H1324697   6.415   2.672   4.967 -1.9944 -0.9529  1.2760
  103MOL    O1424698   6.294   2.732   5.395 -0.3808 -0.0032 -0.0771
  103MOL    C1524699   6.182   2.732   5.482  0.5091 -0.1780 -0.0323
  103MOL    C1624700   6.219   2.769   5.628 -0.1526 -0.1781 -0.0556
  103MOL    C1724701   6.066   2.832   5.426 -0.2349 -0.6886 -0.4984
  103MOL    C1824702   5.931   2.826   5.506  0.1169 -0.7301  0.3441
  103MOL    O1924703   5.885   2.927   5.557  0.6215 -0.4575  0.1948
  103MOL    H2024704   6.139   2.634   5.503 -0.0769 -0.0538 -0.6478
  103MOL    H2124705   6.293   2.697   5.662  1.6207  1.6017 -0.1162
  103MOL    H2224706   6.136   2.751   5.698 -0.6822 -0.6274 -0.7939
  103MOL    H2324707   6.257   2.869   5.648  1.3383 -0.1396 -2.8521
  103MOL    H2424708   6.036   2.802   5.326 -1.9741  0.6500 -0.3985
  103MOL    H2524709   6.091   2.938   5.423 -0.3176 -0.6174  0.7773
  103MOL    O2624710   5.864   2.703   5.517  0.1449  0.1474 -0.1397
  103MOL    C2724711   5.731   2.692   5.567  0.3405 -0.1972  0.4716
  103MOL    C2824712   5.650   2.597   5.484  0.2116  0.0401 -0.7054
  103MOL    C2924713   5.730   2.651   5.719 -1.1025  0.5277 -0.1863
  103MOL    C3024714   5.766   2.758   5.819  0.3304  0.3779 -0.1575
  103MOL    O3124715   5.884   2.766   5.853 -0.0955 -0.1425  0.2377
  103MOL    H3224716   5.681   2.788   5.552  2.2742  0.4496 -2.3906
  103MOL    H3324717   5.674   2.493   5.506 -0.9577 -0.6614 -2.5960
  103MOL    H3424718   5.649   2.622   5.378 -0.6501 -3.2256 -1.5369
  103MOL    H3524719   5.545   2.597   5.514  0.3165  0.0852 -0.3359
  103MOL    H3624720   5.792   2.561   5.725  1.3055  2.1435 -0.3139
  103MOL    H3724721   5.631   2.614   5.747 -0.5480 -0.6768  0.2307
  103MOL    O3824722   5.666   2.841   5.850  0.0140  0.3969 -0.4764
  103MOL    C3924723   5.681   2.957   5.932  0.0988  0.2390 -0.2896
  103MOL    C4024724   5.641   3.073   5.846  0.0893 -0.3704 -0.3363
  103MOL    C4124725   5.590   2.951   6.056 -0.3392  0.1017 -0.1811
  103MOL    C4224726   5.666   2.886   6.164 -0.3644  0.5530  0.6667
  103MOL    O4324727   5.669   2.763   6.169  0.0145  0.0854 -0.2576
  103MOL    H4424728   5.783   2.981   5.962 -0.9514  2.1586  1.9182
  103MOL    H4524729   5.533   3.076   5.830 -0.0771  0.1485  0.8530
  103MOL    H4624730   5.695   3.072   5.751  1.4404  0.3236  0.4228
  103MOL    H4724731   5.658   3.164   5.903 -1.4028 -0.3106  0.0477
  103MOL    H4824732   5.501   2.893   6.033  0.1810  0.1581 -2.4911
  103MOL    H4924733   5.578   3.053   6.094 -0.0899 -0.6568  2.0388
  103MOL    O5024734   5.702   2.978   6.257  0.3281  0.2850  0.0955
  103MOL    C5124735   5.728   2.948   6.389  0.1066  0.0234 -0.0868
  103MOL    C5224736   5.873   2.890   6.406  0.0618  0.0105 -0.8076
  103MOL    C5324737   5.708   3.069   6.482 -1.0272 -0.0300 -0.2141
  103MOL    C5424738   5.562   3.096   6.510  0.1106  0.2160 -0.2599
  103MOL    O5524739   5.476   3.004   6.509 -0.3082 -0.3074 -0.1399
  103MOL    H5624740   5.662   2.866   6.416  1.8116 -0.7597  1.8103
  103MOL    H5724741   5.944   2.943   6.343  0.9063 -1.1900 -0.8675
  103MOL    H5824742   5.869   2.785   6.379 -0.9749  0.2596 -1.6870
  103MOL    H5924743   5.900   2.883   6.512  1.2151 -2.1137 -1.2182
  103MOL    H6024744   5.766   3.143   6.427 -2.0069  0.5390 -0.4803
  103MOL    H6124745   5.760   3.050   6.576 -0.3585  1.6579 -0.2237
  103MOL    O6224746   5.534   3.225   6.521 -0.5428  0.0041 -0.2315
  103MOL    C6324747   5.398   3.272   6.510  0.6149  0.4556 -0.8114
  103MOL    C6424748   5.363   3.354   6.637  0.6195  0.6026  0.5253
  103MOL    C6524749   5.383   3.384   6.398  0.7118  0.6343 -0.0256
  103MOL    C6624750   5.413   3.323   6.257 -0.3380  0.1229  0.3358
  103MOL    O6724751   5.370   3.212   6.219 -0.0795 -0.3885 -0.3952
  103MOL    H6824752   5.325   3.193   6.491 -1.1687  1.3923  1.7969
  103MOL    H6924753   5.262   3.394   6.631 -0.3561 -1.5924  1.7867
  103MOL    H7024754   5.432   3.437   6.656  0.2362  0.4986  2.5324
  103MOL    H7124755   5.363   3.286   6.722  2.1920 -0.5251 -0.3283
  103MOL    H7224756   5.448   3.465   6.429 -0.6824  1.1027  1.8033
  103MOL    H7324757   5.287   3.435   6.397  0.1446 -0.4108  0.2679
  103MOL    O7424758   5.490   3.410   6.184  0.3210 -0.2263  0.3957
  103MOL    C7524759   5.521   3.372   6.045  0.4329  0.9251 -0.1757
  103MOL    C7624760   5.404   3.390   5.945 -0.0831  0.3126 -0.2151
  103MOL    C7724761   5.654   3.447   6.013 -0.0931  0.6167 -0.7712
  103MOL    C7824762   5.769   3.376   6.088 -0.4403 -0.2288 -0.4677
  103MOL    O7924763   5.838   3.295   6.028  0.2461  0.6122 -0.1418
  103MOL    H8024764   5.552   3.268   6.048  0.8963  1.0753  0.2205
  103MOL    H8124765   5.365   3.490   5.923  1.0801  0.2051 -2.9661
  103MOL    H8224766   5.317   3.333   5.977  0.9697 -0.4370  1.3661
  103MOL    H8324767   5.434   3.343   5.852  1.4244 -2.7581  1.7593
  103MOL    H8424768   5.652   3.553   6.041  0.3772  0.6138 -0.7268
  103MOL    H8524769   5.664   3.439   5.905 -0.8301 -1.7743 -0.6887
  103MOL    O8624770   5.787   3.419   6.216  0.3290 -0.4162 -0.3378
  103MOL    C8724771   5.881   3.359   6.304 -0.5243 -0.1665  0.5260
  103MOL    C8824772   6.017   3.419   6.267  0.0787  0.3643 -0.5386
  103MOL    C8924773   5.832   3.412   6.447  0.7683  0.2663  1.2390
  103MOL    C9024774   5.908   3.370   6.574  0.2685  0.4673  0.5065
  103MOL    O9124775   5.875   3.414   6.679  0.2221 -0.3478  0.2894
  103MOL    H9224776   5.879   3.250   6.301 -1.2403 -0.1808  1.3071
  103MOL    H9324777   6.022   3.528   6.277 -0.8304  0.4174 -0.5976
  103MOL    H9424778   6.048   3.404   6.164 -1.5262 -1.4057 -0.7906
  103MOL    H9524779   6.090   3.385   6.340  0.5393  0.1377 -1.1035
  103MOL    H9624780   5.726   3.388   6.447  0.7422  0.3826  1.1565
  103MOL    H9724781   5.841   3.521   6.439 -1.7096  0.2861 -2.3263
  103MOL    O9824782   5.998   3.276   6.555 -0.3266  0.0556 -0.7842
  103MOL    C9924783   6.073   3.235   6.665  0.4799  0.9137  0.0691
  103MOL   C10024784   6.070   3.081   6.673  0.5464  0.3811 -0.3134
  103MOL   C10124785   6.217   3.278   6.648  0.3913 -0.0213 -0.5523
  103MOL   C10224786   6.255   3.383   6.752  0.2194  0.6904 -0.3518
  103MOL   O10324787   6.356   3.360   6.822 -0.4628  0.0678  0.2602
  103MOL   H10424788   6.040   3.270   6.763  0.9353  1.2951  0.0860
  103MOL   H10524789   5.965   3.060   6.697  0.3439 -1.4165 -2.5517
  103MOL   H10624790   6.124   3.038   6.757 -1.0789  0.2722  0.6939
  103MOL   H10724791   6.095   3.024   6.584 -0.9263 -1.0997  0.1896
  103MOL   H10824792   6.255   3.310   6.551 -0.0143 -2.8157 -1.6864
  103MOL   H10924793   6.287   3.195   6.662  0.5627 -0.1009 -1.7846
  103MOL   O11024794   6.168   3.484   6.759 -0.2869  0.2989 -0.5381
  103MOL   C11124795   6.183   3.572   6.870 -0.4767 -0.4014 -0.4806
  103MOL   C11224796   6.299   3.675   6.842 -0.3848  0.4291  0.0841
  103MOL   C11324797   6.044   3.626   6.908  0.0470 -0.1991 -0.2826
  103MOL   C11424798   6.016   3.678   7.050 -0.2710 -0.0374  0.6205
  103MOL   O11524799   6.101   3.679   7.137 -0.0344 -0.4625 -0.4325
  103MOL   H11624800   6.213   3.512   6.956  0.2754  0.0137 -0.4514
  103MOL   H11724801   6.391   3.618   6.846 -0.4899  0.2522 -0.0272
  103MOL   H11824802   6.302   3.747   6.924  4.3844  0.9750 -0.4335
  103MOL   H11924803   6.283   3.725   6.746 -0.7513 -1.3936 -0.8210
  103MOL   H12024804   5.962   3.555   6.900  1.2450 -1.6009 -0.4075
  103MOL   H12124805   6.016   3.713   6.849  0.3259 -0.4127 -0.7363
  103MOL   O12224806   5.893   3.732   7.056 -0.1305  0.0787  0.2137
  103MOL   C12324807   5.842   3.772   7.182 -0.1005  1.0432  0.2708
  103MOL   C12424808   5.866   3.922   7.193 -0.4787  0.3995  0.4663
  103MOL   C12524809   5.692   3.741   7.197 -0.1802  0.3002 -0.2874
  103MOL   C12624810   5.675   3.598   7.248 -0.0940  0.4417 -0.3749
  103MOL   O12724811   5.720   3.555   7.360 -0.3293  0.5191  0.0102
  103MOL   H12824812   5.900   3.729   7.263 -1.1614  2.2983  1.7281
  103MOL   H12924813   5.967   3.948   7.162 -0.1906 -1.8346 -0.5529
  103MOL   H13024814   5.856   3.953   7.297  0.0257 -0.7685  0.8738
  103MOL   H13124815   5.796   3.979   7.131  0.6260  1.3861  0.1231
  103MOL   H13224816   5.626   3.764   7.114 -0.4011  0.3782 -0.0907
  103MOL   H13324817   5.660   3.792   7.288  1.2803  1.4315 -0.3944
  103MOL   O13424818   5.596   3.529   7.160  0.0522  0.1042 -0.5432
  103MOL   C13524819   5.556   3.397   7.195  0.6378  0.1646 -0.8190
  103MOL   C13624820   5.441   3.423   7.293  0.2723  0.2810  0.0286
  103MOL   C13724821   5.514   3.314   7.076  0.2262  0.3444  0.6241
  103MOL   C13824822   5.627   3.246   6.995 -0.8151 -0.3680 -0.1103
  103MOL   O13924823   5.648   3.281   6.878 -0.5717 -0.0721 -0.3474
  103MOL   H14024824   5.632   3.343   7.252 -0.8682 -1.2711 -0.1381
  103MOL   H14124825   5.481   3.475   7.381 -1.6908 -0.3336  1.3251
  103MOL   H14224826   5.376   3.337   7.311 -0.1934  0.5277 -0.4676
  103MOL   H14324827   5.370   3.494   7.250  1.3699  0.6408 -1.1877
  103MOL   H14424828   5.459   3.379   7.009 -1.8398 -0.9741  0.9961
  103MOL   H14524829   5.441   3.240   7.109  1.2770 -0.5222  1.0196
  103MOL   O14624830   5.696   3.153   7.061  0.4200  0.8610  0.0310
  103MOL   C14724831   5.811   3.099   7.004 -0.6522  1.1900  0.2793
  103MOL   C14824832   5.933   3.198   7.008 -0.2886 -0.2048  0.6048
  103MOL   C14924833   5.839   2.957   7.053  0.4419 -0.2156  0.1437
  103MOL   C15024834   5.916   2.942   7.185 -0.0421 -0.0770 -0.3957
  103MOL   O15124835   5.949   3.041   7.254  0.4578  0.0220  0.1912
  103MOL   H15224836   5.798   3.077   6.898  0.1036 -2.0023  0.7895
  103MOL   H15324837   6.024   3.146   6.977 -0.0946  0.2616  0.3768
  103MOL   H15424838   5.936   3.237   7.109  1.7228 -0.5420  0.6966
  103MOL   H15524839   5.905   3.276   6.936 -0.6800 -0.6204  0.3038
  103MOL   H15624840   5.899   2.904   6.978  0.5164  1.1009 -0.7462
  103MOL   H15724841   5.751   2.893   7.060  1.4347 -1.5867  0.3349
  103MOL   O15824842   5.942   2.821   7.209  0.3765 -0.8862  0.1314
  103MOL   C15924843   6.008   2.776   7.330  0.5716 -0.3362  0.3781
  103MOL   C16024844   5.916   2.666   7.385  0.1137  0.0702  0.2552
  103MOL   C16124845   6.150   2.709   7.310  0.4415 -0.1516 -0.0688
  103MOL   C16224846   6.258   2.811   7.294 -0.4769  0.0101 -0.0355
  103MOL   O16324847   6.361   2.791   7.361 -0.3809  0.6168 -0.3839
  103MOL   H16424848   6.017   2.853   7.407 -2.0392 -0.2493  0.6416
  103MOL   H16524849   5.909   2.584   7.314 -0.9190 -1.7379  2.3940
  103MOL   H16624850   5.820   2.710   7.409 -0.1796 -1.5531  2.1803
  103MOL   H16724851   5.960   2.627   7.477 -0.0253 -0.7365 -0.0124
  103MOL   H16824852   6.155   2.645   7.222  0.0578  0.8918 -0.8626
  103MOL   H16924853   6.180   2.638   7.387 -1.1562 -0.2012  0.5219
  103MOL   O17024854   6.243   2.903   7.203 -1.0108 -0.9574 -0.3166
  103MOL   C17124855   6.328   3.010   7.190 -0.0989  0.6179 -0.3326
  103MOL   C17224856   6.348   3.024   7.038  0.5893 -0.3868 -0.4038
  103MOL   C17324857   6.257   3.126   7.260 -0.6366 -0.7127  0.2652
  103MOL   C17424858   6.338   3.249   7.279 -0.1260 -0.6455  0.0656
  103MOL   O17524859   6.343   3.342   7.194  0.1478 -0.3056  0.1839
  103MOL   H17624860   6.427   2.991   7.231 -0.7931 -2.5892  0.0046
  103MOL   H17724861   6.402   3.115   7.011 -0.3322  0.2367 -0.1785
  103MOL   H17824862   6.259   3.040   6.978  0.5162 -1.9277 -0.7368
  103MOL   H17924863   6.401   2.936   7.000 -0.1217 -1.1260  0.2939
  103MOL   H18024864   6.219   3.093   7.357  0.2393  0.3653  0.9859
  103MOL   H18124865   6.163   3.149   7.210  0.4574 -0.5432 -1.7459
  103MOL   O18224866   6.419   3.237   7.382 -0.3040 -0.5364  0.4365
  103MOL   C18324867   6.537   3.314   7.413 -0.4582  0.0017 -0.3761
  103MOL   C18424868   6.599   3.255   7.540 -0.0574  0.6996  0.6676
  103MOL   C18524869   6.636   3.318   7.297 -0.0546 -0.0452  0.0207
  103MOL   C18624870   6.752   3.410   7.319 -0.2527 -0.3593  0.0643
  103MOL   O18724871   6.759   3.514   7.255  1.0641 -0.0977 -0.4329
  103MOL   H18824872   6.500   3.416   7.428 -1.0435 -0.3116  0.3021
  103MOL   H18924873   6.610   3.147   7.523 -0.1541  0.8683 -0.5024
  103MOL   H19024874   6.544   3.273   7.632 -0.1518  1.8864  0.3888
  103MOL   H19124875   6.691   3.305   7.570  0.2166  0.7600 -0.2687
  103MOL   H19224876   6.580   3.351   7.209 -1.5163 -2.4255  0.0056
  103MOL   H19324877   6.675   3.219   7.276  0.1377 -1.1506  5.0277
  103MOL   O19424878   6.846   3.366   7.405 -0.7981 -0.0253 -0.4796
  103MOL   C19524879   6.955   3.457   7.433 -0.0780 -0.7386 -0.0447
  103MOL   C19624880   6.923   3.557   7.554 -0.3479 -0.2226 -0.7569
  103MOL   C19724881   7.079   3.370   7.467  0.6130 -0.4101  0.3384
  103MOL   C19824882   7.206   3.451   7.500 -0.3951 -0.0435  0.2689
  103MOL   O19924883   7.253   3.449   7.613  0.2114 -0.0841  0.2892
  103MOL   H20024884   6.973   3.525   7.351 -1.1685  1.4137  1.4455
  103MOL   H20124885   6.868   3.512   7.637  0.4066  0.8454  0.3456
  103MOL   H20224886   6.843   3.623   7.519 -0.8888 -0.7383 -0.5048
  103MOL   H20324887   7.000   3.630   7.580 -1.0343  0.1536  0.2712
  103MOL   H20424888   7.107   3.299   7.389  0.7618 -1.0390  0.9583
  103MOL   H20524889   7.049   3.314   7.556 -2.4895 -1.5147 -1.3335
  103MOL   O20624890   7.260   3.505   7.389  0.3887 -0.1583  0.3476
  103MOL   C20724891   7.374   3.590   7.404 -0.7046  0.5724 -0.0521
  103MOL   C20824892   7.441   3.560   7.272 -0.1635  0.0018  0.8578
  103MOL   C20924893   7.339   3.739   7.424  0.1924  0.3474  0.2629
  103MOL   C21024894   7.258   3.807   7.308 -0.4614  0.1970  0.6342
  103MOL   O21124895   7.135   3.778   7.297  0.2571 -0.1626 -0.0384
  103MOL   H21224896   7.448   3.572   7.482  0.1991  1.0585 -0.7874
  103MOL   H21324897   7.494   3.465   7.284 -0.6456 -0.4563 -0.5766
  103MOL   H21424898   7.527   3.626   7.261 -0.1250  0.0147  1.2203
  103MOL   H21524899   7.384   3.548   7.180  0.3112 -0.8189  0.6629
  103MOL   H21624900   7.427   3.803   7.430 -1.1946  2.1913  1.7386
  103MOL   H21724901   7.284   3.744   7.517  0.3468 -1.5196  0.4666
  103MOL   O21824902   7.325   3.900   7.231  0.2158  0.1477 -0.2064
  103MOL   C21924903   7.258   3.973   7.128  0.3947  0.0961  0.4768
  103MOL   C22024904   7.291   4.124   7.145 -0.4613  0.9360 -0.5267
  103MOL   C22124905   7.274   3.910   6.979  0.3819 -0.5512  0.3158
  103MOL   C22224906   7.178   3.789   6.961  0.6280 -0.8551  0.6645
  103MOL   O22324907   7.226   3.676   6.954  0.2180 -0.1688 -0.5606
  103MOL   H22424908   7.151   3.980   7.146  0.4508 -4.1480  3.0588
  103MOL   H22524909   7.394   4.145   7.118  0.8786 -1.8221  2.2681
  103MOL   H22624910   7.270   4.150   7.249  1.0758  1.6553 -0.3884
  103MOL   H22724911   7.228   4.177   7.073 -1.0324 -1.6825 -2.0376
  103MOL   H22824912   7.380   3.884   6.971  1.1125  2.6820 -1.6054
  103MOL   H22924913   7.245   3.978   6.899  0.1855 -0.4383  0.4823
  103MOL   O23024914   7.050   3.827   6.950 -0.3741 -0.0676 -0.1226
  103MOL   C23124915   6.951   3.730   6.924  0.0961  1.1576 -0.2839
  103MOL   C23224916   6.845   3.755   7.031 -0.0224  0.2374 -0.1158
  103MOL   C23324917   6.889   3.736   6.788 -0.3561 -0.4909 -0.0290
  103MOL   C23424918   6.957   3.638   6.687 -0.0420 -0.2439  0.1621
  103MOL   O23524919   6.949   3.514   6.711 -0.2635 -0.2811 -0.4947
  103MOL   H23624920   6.998   3.632   6.932  0.2547  1.4605  3.4560
  103MOL   H23724921   6.894   3.730   7.125 -0.1096 -1.3121 -0.4731
  103MOL   H23824922   6.758   3.690   7.021  0.7906 -0.4696 -3.1076
  103MOL   H23924923   6.797   3.853   7.034  0.3953  0.4341  0.2494
  103MOL   H24024924   6.896   3.839   6.753  0.8535  0.0970  1.8264
  103MOL   H24124925   6.781   3.722   6.783 -0.3811 -0.3523  0.1094
  103MOL   H24224926   7.001   3.672   6.594 -0.3656  1.0064  0.4445
  104MOL     O124927   4.211   2.527   1.012  0.2952  0.4045 -0.1081
  104MOL     C224928   4.290   2.531   0.896 -0.7706 -0.0493  0.2981
  104MOL     C324929   4.403   2.629   0.925  0.2244 -0.5046 -0.1188
  104MOL     C424930   4.336   2.381   0.868 -0.0277 -0.3870 -0.6989
  104MOL     C524931   4.407   2.337   0.735  0.0672 -0.5015  0.0463
  104MOL     O624932   4.458   2.227   0.734 -0.5376 -0.0842 -0.1791
  104MOL     H724933   4.232   2.563   0.809  0.8826  0.6198 -0.5929
  104MOL     H824934   4.359   2.721   0.964  0.3789 -0.0386 -1.0417
  104MOL     H924935   4.482   2.641   0.851  0.0602  0.7362 -0.1060
  104MOL    H1024936   4.461   2.585   1.006  0.8682  2.7112  1.2324
  104MOL    H1124937   4.247   2.320   0.881 -0.4259  0.7254  2.1890
  104MOL    H1224938   4.387   2.347   0.959 -1.1984  3.1366  1.3754
  104MOL    H1324939   4.118   2.527   0.993 -0.0084 -0.4506  1.3453
  104MOL    O1424940   4.437   2.426   0.634  0.1315 -0.3808  0.1182
  104MOL    C1524941   4.496   2.387   0.505 -0.0639  0.4822 -0.2256
  104MOL    C1624942   4.390   2.422   0.394  0.2175  0.6962 -0.1275
  104MOL    C1724943   4.635   2.448   0.473  0.1847 -0.1838  0.0191
  104MOL    C1824944   4.630   2.591   0.437 -0.2163 -0.7221 -0.2550
  104MOL    O1924945   4.617   2.633   0.322 -0.0414  0.4248 -0.1110
  104MOL    H2024946   4.511   2.279   0.506  0.7108  0.5641 -1.5035
  104MOL    H2124947   4.358   2.526   0.389  1.4665  1.1577  1.2980
  104MOL    H2224948   4.304   2.354   0.396  0.5327  0.3223  2.6588
  104MOL    H2324949   4.428   2.403   0.294 -1.0348  0.4055 -0.5669
  104MOL    H2424950   4.674   2.396   0.385  2.5536  2.2966 -0.4385
  104MOL    H2524951   4.708   2.428   0.551  0.0485  0.2225  0.2489
  104MOL    O2624952   4.647   2.671   0.545 -0.2080 -0.1045  0.5181
  104MOL    C2724953   4.675   2.810   0.540  0.0073  0.0411  0.0920
  104MOL    C2824954   4.586   2.867   0.653 -0.1894 -0.4196 -1.3511
  104MOL    C2924955   4.823   2.833   0.554 -0.8287  0.0709 -0.0213
  104MOL    C3024956   4.875   2.977   0.533 -1.1491  0.3673  0.6937
  104MOL    O3124957   4.814   3.053   0.455 -0.2038  0.4852  0.0299
  104MOL    H3224958   4.649   2.861   0.447  1.2860  1.4491  0.4873
  104MOL    H3324959   4.480   2.872   0.632 -0.5323  0.3592  0.4459
  104MOL    H3424960   4.614   2.970   0.673  1.6313 -1.1215 -0.1070
  104MOL    H3524961   4.608   2.821   0.750 -1.4720  0.7463 -0.4949
  104MOL    H3624962   4.882   2.760   0.500 -0.4154  1.3038 -1.2557
  104MOL    H3724963   4.851   2.817   0.659  2.3813  0.2008 -0.8089
  104MOL    O3824964   4.996   2.995   0.591 -1.2729 -0.4579  0.0616
  104MOL    C3924965   5.064   3.123   0.611  0.3706 -0.5795  0.0296
  104MOL    C4024966   5.015   3.167   0.748  0.4258  0.0423  0.3545
  104MOL    C4124967   5.221   3.114   0.624  0.8441 -0.2806  0.5527
  104MOL    C4224968   5.296   3.106   0.495  0.0118 -0.1598 -0.3004
  104MOL    O4324969   5.339   3.002   0.460  0.1256 -0.6965 -0.3217
  104MOL    H4424970   5.028   3.184   0.529 -0.4858 -0.8033  0.2303
  104MOL    H4524971   5.058   3.265   0.769  1.2059 -0.2863  0.3089
  104MOL    H4624972   5.046   3.095   0.824  1.6451  0.4025  0.2015
  104MOL    H4724973   4.906   3.173   0.744  0.4384  0.1857  0.2305
  104MOL    H4824974   5.237   3.035   0.699  0.0179 -3.3106 -2.3377
  104MOL    H4924975   5.263   3.202   0.673  2.4933 -0.1835 -0.9908
  104MOL    O5024976   5.306   3.217   0.432  0.1043 -0.2454  0.0717
  104MOL    C5124977   5.393   3.238   0.322  0.8368  0.3549 -0.5287
  104MOL    C5224978   5.296   3.204   0.204  0.3086 -0.0252 -0.1036
  104MOL    C5324979   5.460   3.378   0.336  0.5731 -0.0833 -0.2355
  104MOL    C5424980   5.544   3.426   0.218  0.1242  0.8601 -0.3998
  104MOL    O5524981   5.555   3.355   0.116 -0.0450 -0.6287 -0.6266
  104MOL    H5624982   5.481   3.173   0.322  0.8520  0.3343 -2.9928
  104MOL    H5724983   5.204   3.262   0.209 -0.7624 -1.7983  1.1851
  104MOL    H5824984   5.263   3.100   0.210 -2.6300  0.8975  0.4800
  104MOL    H5924985   5.327   3.225   0.101 -0.8174 -0.4266 -0.5339
  104MOL    H6024986   5.520   3.370   0.427 -2.0663 -2.8118  1.3831
  104MOL    H6124987   5.391   3.461   0.353 -0.2193 -0.2417 -2.5159
  104MOL    O6224988   5.605   3.545   0.251  0.5314  0.0800  0.7644
  104MOL    C6324989   5.699   3.603   0.161 -0.3406 -0.0727 -0.2820
  104MOL    C6424990   5.629   3.719   0.100 -0.3157  0.0474  0.8466
  104MOL    C6524991   5.820   3.640   0.245 -1.2731 -0.4976 -0.0474
  104MOL    C6624992   5.940   3.681   0.160 -0.9398 -0.4700 -0.0913
  104MOL    O6724993   6.035   3.604   0.140 -0.3733 -0.4035  0.3698
  104MOL    H6824994   5.738   3.529   0.091 -1.1736 -0.8032  0.0023
  104MOL    H6924995   5.537   3.688   0.051  0.9787  0.1210 -1.7266
  104MOL    H7024996   5.696   3.740   0.017 -1.5596  1.2970  0.1396
  104MOL    H7124997   5.637   3.819   0.143  2.0998  0.5610 -0.7360
  104MOL    H7224998   5.857   3.552   0.298  0.9125  1.1769  1.2772
  104MOL    H7324999   5.801   3.710   0.326  2.8840  0.6396  0.0898
  104MOL    O7425000   5.922   3.806   0.110 -0.5647  0.7198  0.2621
  104MOL    C7525001   6.004   3.861   0.006  0.1337  0.4008  0.1980
  104MOL    C7625002   5.910   3.949   7.907  0.1562 -0.6559  0.8659
  104MOL    C7725003   6.120   3.932   0.057 -0.7314  0.7573  0.1298
  104MOL    C7825004   6.241   3.844   0.088 -0.4567 -0.9154 -0.0018
  104MOL    O7925005   6.287   3.846   0.204  0.1197 -0.0509 -0.6111
  104MOL    H8025006   6.045   3.787   7.917 -1.4420 -1.2799  1.0405
  104MOL    H8125007   5.828   3.899   7.854  0.2729  2.4465 -2.4316
  104MOL    H8225008   5.973   3.994   7.830  0.9214 -0.9950  1.2898
  104MOL    H8325009   5.865   4.023   7.974  1.4647 -1.1026  2.2642
  104MOL    H8425010   6.088   3.976   0.151 -0.0052 -0.5422  1.0110
  104MOL    H8525011   6.148   4.009   7.965 -1.0753  1.6295  0.9224
  104MOL    O8625012   6.281   3.768   7.964  0.5468  0.3780 -0.4593
  104MOL    C8725013   6.404   3.698   0.000 -0.0076 -0.5505 -0.6920
  104MOL    C8825014   6.367   3.561   0.021  0.8467 -0.2246  0.1326
  104MOL    C8925015   6.494   3.714   7.856 -0.0915  0.5999  1.0519
  104MOL    C9025016   6.639   3.672   7.880  0.1327  0.2418 -0.2817
  104MOL    O9125017   6.694   3.576   7.827  0.1934 -0.1008 -0.6234
  104MOL    H9225018   6.447   3.738   0.092  0.1653  0.3886 -1.1769
  104MOL    H9325019   6.455   3.496   0.023  1.8948  1.1446 -0.4434
  104MOL    H9425020   6.301   3.530   7.921  1.4877 -1.4425  0.0473
  104MOL    H9525021   6.304   3.548   0.109 -1.9431  0.4089 -1.7237
  104MOL    H9625022   6.494   3.819   7.826 -1.2971  0.1119 -0.6899
  104MOL    H9725023   6.445   3.659   7.776 -1.3209  2.6183  0.3845
  104MOL    O9825024   6.696   3.761   7.973  0.7720  0.0047  0.1677
  104MOL    C9925025   6.823   3.739   0.044 -0.2142  0.5554  0.1933
  104MOL   C10025026   6.931   3.795   7.930 -0.4497  0.7664 -0.0562
  104MOL   C10125027   6.849   3.802   0.181 -0.2428 -0.2015 -0.9791
  104MOL   C10225028   6.801   3.720   0.296  0.2961 -0.0745  0.6038
  104MOL   O10325029   6.873   3.650   0.363 -0.4652 -0.1591  0.2119
  104MOL   H10425030   6.840   3.632   0.059 -3.9210 -0.1175  0.0697
  104MOL   H10525031   6.916   3.903   7.938 -0.5605  0.7669 -0.2667
  104MOL   H10625032   6.908   3.759   7.830  1.2091 -3.1971  0.8892
  104MOL   H10725033   7.035   3.768   7.944 -0.4467 -0.4442 -2.2510
  104MOL   H10825034   6.797   3.897   0.190  2.1466  1.1530 -1.1102
  104MOL   H10925035   6.956   3.818   0.192 -0.5863  0.7014  1.1629
  104MOL   O11025036   6.662   3.741   0.314  0.1982 -0.2839  0.2609
  104MOL   C11125037   6.591   3.685   0.418 -0.3892  0.1380 -0.0745
  104MOL   C11225038   6.515   3.812   0.483 -0.6377 -0.0143 -0.3802
  104MOL   C11325039   6.501   3.572   0.365  0.5778 -0.2467 -0.2123
  104MOL   C11425040   6.570   3.440   0.339 -0.4383 -0.2323  0.2080
  104MOL   O11525041   6.571   3.391   0.225  0.6677 -0.1137 -0.2272
  104MOL   H11625042   6.661   3.653   0.495 -0.2688 -2.5966 -1.2387
  104MOL   H11725043   6.448   3.796   0.567  1.1632 -3.0105  0.5735
  104MOL   H11825044   6.472   3.877   0.407  0.0279 -0.3560 -1.0575
  104MOL   H11925045   6.596   3.864   0.534 -0.7460 -0.1146 -0.1056
  104MOL   H12025046   6.443   3.595   0.276 -0.1876  0.9694  0.5862
  104MOL   H12125047   6.421   3.560   0.439 -0.2151  1.2438 -0.8055
  104MOL   O12225048   6.624   3.395   0.442  0.1184 -0.0820 -0.0426
  104MOL   C12325049   6.696   3.275   0.451 -0.7894  0.4788  0.4088
  104MOL   C12425050   6.840   3.309   0.439 -0.4845 -0.2207  0.3134
  104MOL   C12525051   6.672   3.215   0.594  0.1236 -0.0297 -0.1539
  104MOL   C12625052   6.544   3.134   0.604 -0.2730  0.8216 -0.3937
  104MOL   O12725053   6.509   3.085   0.716  0.2422 -0.0712  0.2352
  104MOL   H12825054   6.664   3.209   0.370  1.6658  0.3531 -0.5163
  104MOL   H12925055   6.910   3.227   0.452  0.6985  0.4311 -1.7010
  104MOL   H13025056   6.876   3.384   0.509  2.4573 -0.8191 -0.4997
  104MOL   H13125057   6.857   3.367   0.348 -0.7276  2.2666  1.8065
  104MOL   H13225058   6.676   3.292   0.671  0.5163 -1.4640  1.2985
  104MOL   H13325059   6.750   3.142   0.612 -1.6794 -1.4621  2.0771
  104MOL   O13425060   6.469   3.144   0.496  0.0755 -0.0301 -0.5628
  104MOL   C13525061   6.336   3.097   0.493 -0.4578 -0.4402  0.0803
  104MOL   C13625062   6.266   3.214   0.437  0.7070 -0.0587  0.3649
  104MOL   C13725063   6.345   2.972   0.405  0.5743  0.0327  0.6418
  104MOL   C13825064   6.226   2.875   0.421  0.5836 -0.1207 -0.1478
  104MOL   O13925065   6.143   2.886   0.508 -0.2625 -0.3080 -0.3053
  104MOL   H14025066   6.304   3.069   0.593  3.2276 -1.5458  1.0390
  104MOL   H14125067   6.296   3.252   0.339 -0.3407 -0.7241 -0.2138
  104MOL   H14225068   6.275   3.288   0.517 -0.2840 -1.6520  1.9791
  104MOL   H14325069   6.161   3.188   0.430  0.2881  1.6253  0.1856
  104MOL   H14425070   6.433   2.911   0.425 -0.6304 -0.3769  5.0327
  104MOL   H14525071   6.357   3.010   0.303 -1.9233 -2.1473 -0.5289
  104MOL   O14625072   6.234   2.771   0.329 -0.7312  0.1146 -0.1230
  104MOL   C14725073   6.144   2.664   0.332  0.3938 -0.1713  1.5678
  104MOL   C14825074   6.043   2.675   0.220 -0.1679 -0.1523 -0.6613
  104MOL   C14925075   6.224   2.531   0.319  0.5414  0.1331 -0.3288
  104MOL   C15025076   6.143   2.405   0.370  0.2721 -0.2396  0.4802
  104MOL   O15125077   6.139   2.304   0.302  0.3892  0.5747 -0.4828
  104MOL   H15225078   6.091   2.657   0.427  1.2688  0.4161  2.1075
  104MOL   H15325079   6.084   2.658   0.121  3.2582 -2.1441  0.9945
  104MOL   H15425080   5.987   2.768   0.226 -0.7572 -0.6320  2.0196
  104MOL   H15525081   5.965   2.600   0.232 -0.1046  0.0249  0.9481
  104MOL   H15625082   6.321   2.542   0.368  0.2267 -0.9122  0.5372
  104MOL   H15725083   6.244   2.522   0.212  0.6476  0.2243 -0.3165
  104MOL   O15825084   6.088   2.427   0.487  0.4751  0.1750  0.3311
  104MOL   C15925085   5.979   2.349   0.533  0.5244 -0.1345 -0.6109
  104MOL   C16025086   6.048   2.253   0.638 -0.5527 -0.1384 -0.0539
  104MOL   C16125087   5.861   2.440   0.574  0.0352  0.7404 -0.3336
  104MOL   C16225088   5.738   2.373   0.637  0.3655  0.1250  0.1616
  104MOL   O16325089   5.688   2.409   0.745 -0.1553 -0.0106 -0.0047
  104MOL   H16425090   5.947   2.281   0.454  2.3295  1.5128 -2.8376
  104MOL   H16525091   6.062   2.291   0.739 -1.1401 -0.4354  0.1436
  104MOL   H16625092   6.139   2.208   0.600  0.3029 -0.8951  2.7413
  104MOL   H16725093   5.976   2.171   0.644  0.0083 -0.7783 -1.8299
  104MOL   H16825094   5.821   2.498   0.491 -0.5861  0.9650  0.1126
  104MOL   H16925095   5.882   2.529   0.633 -1.0117  0.8721 -0.1418
  104MOL   O17025096   5.686   2.276   0.558 -0.3518  0.2268 -0.1796
  104MOL   C17125097   5.569   2.210   0.606  0.1030 -0.1479  0.2048
  104MOL   C17225098   5.450   2.240   0.514 -0.6264 -0.7986  0.2902
  104MOL   C17325099   5.587   2.059   0.613  0.3746 -0.1787  0.2023
  104MOL   C17425100   5.617   2.012   0.755 -0.5031  0.4533 -0.2770
  104MOL   O17525101   5.525   1.969   0.824  0.1734  0.0686 -0.2159
  104MOL   H17625102   5.537   2.243   0.704  0.2750  0.4962  0.0508
  104MOL   H17725103   5.358   2.224   0.570 -0.6833 -3.3817 -0.4711
  104MOL   H17825104   5.453   2.182   0.422 -0.6121 -1.2942  0.5995
  104MOL   H17925105   5.455   2.349   0.510 -1.3639 -0.8415 -3.5763
  104MOL   H18025106   5.666   2.023   0.547  0.6451  1.3722 -0.3402
  104MOL   H18125107   5.500   2.002   0.580 -1.0694 -0.6375  4.5574
  104MOL   O18225108   5.748   2.014   0.791 -0.5093  0.3443 -0.2906
  104MOL   C18325109   5.782   1.996   0.929 -0.1085 -0.2584  0.2928
  104MOL   C18425110   5.920   1.929   0.935  0.0251  0.2765  0.3837
  104MOL   C18525111   5.784   2.135   1.000 -0.0102  0.2042 -0.1610
  104MOL   C18625112   5.653   2.185   1.063  0.2110  0.2501  0.1006
  104MOL   O18725113   5.647   2.194   1.187 -0.2149  0.5783 -0.3641
  104MOL   H18825114   5.709   1.930   0.976 -0.7402  0.9621  1.0696
  104MOL   H18925115   5.996   1.987   0.884 -0.7592 -0.6785 -1.9311
  104MOL   H19025116   5.911   1.830   0.890  0.9450 -0.6026  2.0804
  104MOL   H19125117   5.940   1.917   1.042  2.1551 -0.2335 -0.0635
  104MOL   H19225118   5.820   2.196   0.918 -0.9177 -2.3320 -2.5124
  104MOL   H19325119   5.853   2.135   1.084 -0.2006 -4.8639  0.1326
  104MOL   O19425120   5.556   2.219   0.974 -0.3150 -0.2003  0.6446
  104MOL   C19525121   5.426   2.271   1.008 -0.5253 -0.1053  0.3461
  104MOL   C19625122   5.391   2.393   0.918 -0.0180  0.6401 -0.2479
  104MOL   C19725123   5.320   2.151   0.996 -0.7908  0.0699  0.1299
  104MOL   C19825124   5.289   2.059   1.116 -0.5879  0.0646 -0.5242
  104MOL   O19925125   5.260   1.941   1.100 -0.2781 -0.2370  0.0452
  104MOL   H20025126   5.436   2.300   1.113 -0.4750 -0.8444  0.5534
  104MOL   H20125127   5.372   2.357   0.817  1.1669 -0.6404 -0.0398
  104MOL   H20225128   5.469   2.469   0.920  2.8238 -2.1658  0.0142
  104MOL   H20325129   5.297   2.437   0.949 -0.7288 -0.7675 -0.3594
  104MOL   H20425130   5.354   2.101   0.905 -3.6958  0.2967 -1.1454
  104MOL   H20525131   5.227   2.196   0.959 -0.2140  0.7748 -0.4695
  104MOL   O20625132   5.315   2.119   1.236 -0.0421  0.0247  0.1911
  104MOL   C20725133   5.319   2.046   1.361  0.5199  0.6529 -0.7440
  104MOL   C20825134   5.457   2.001   1.405 -0.7583  0.2178 -0.5083
  104MOL   C20925135   5.250   2.128   1.472  0.5069  0.1165 -0.9534
  104MOL   C21025136   5.097   2.115   1.473  0.9911  0.4320  0.4874
  104MOL   O21125137   5.036   2.107   1.580 -0.3791 -0.1211  0.1437
  104MOL   H21225138   5.260   1.956   1.347 -0.4510  1.2569 -0.5790
  104MOL   H21325139   5.518   1.946   1.333 -0.5241 -0.6674  0.3450
  104MOL   H21425140   5.455   1.955   1.504  2.3152 -0.4636 -0.7249
  104MOL   H21525141   5.503   2.099   1.415  1.6208 -0.9249  0.1541
  104MOL   H21625142   5.274   2.233   1.463 -1.6087  0.7097  0.0022
  104MOL   H21725143   5.283   2.089   1.569 -0.1120 -1.5544 -1.3980
  104MOL   O21825144   5.035   2.100   1.352  0.7675 -0.1782 -0.2581
  104MOL   C21925145   4.896   2.070   1.352 -0.4176  0.0148 -0.6806
  104MOL   C22025146   4.819   2.185   1.291  0.0528 -0.3162  0.5946
  104MOL   C22125147   4.882   1.941   1.261 -0.2161  0.6935 -0.2556
  104MOL   C22225148   4.920   1.812   1.332  0.3061  0.0799  0.0600
  104MOL   O22325149   4.841   1.734   1.379  0.2001 -0.3225 -0.1023
  104MOL   H22425150   4.847   2.053   1.447  0.2529 -0.6470 -0.4521
  104MOL   H22525151   4.712   2.166   1.288  0.2538 -1.2235 -1.5239
  104MOL   H22625152   4.847   2.210   1.189 -1.5467  1.0933  0.4717
  104MOL   H22725153   4.827   2.287   1.331  2.3855 -0.8098  1.4447
  104MOL   H22825154   4.939   1.937   1.169 -0.1838 -1.2595 -0.1581
  104MOL   H22925155   4.775   1.944   1.240 -0.4138  1.1935  0.7486
  104MOL   O23025156   5.050   1.803   1.346 -0.4209  0.4313 -0.7369
  104MOL   C23125157   5.120   1.697   1.426  0.0143 -0.2469  0.8687
  104MOL   C23225158   5.231   1.638   1.344  0.0518 -0.3174 -0.3180
  104MOL   C23325159   5.163   1.762   1.554  0.0528  0.7266 -0.6835
  104MOL   C23425160   5.199   1.667   1.670 -0.1164  0.3258 -0.4117
  104MOL   O23525161   5.152   1.556   1.674 -0.2411  0.5718 -0.1476
  104MOL   H23625162   5.049   1.616   1.447 -0.2146 -0.0744  0.7662
  104MOL   H23725163   5.275   1.546   1.383 -0.5960 -1.0148 -1.1931
  104MOL   H23825164   5.313   1.709   1.334  1.3862 -1.6093  1.1411
  104MOL   H23925165   5.195   1.617   1.243  1.5822  1.2134 -1.1995
  104MOL   H24025166   5.077   1.817   1.592  0.2168 -1.8714  3.8235
  104MOL   H24125167   5.246   1.832   1.546  0.8924 -0.0918  0.6848
  104MOL   H24225168   5.273   1.700   1.743 -0.1575 -2.8943  1.1733
  105MOL     O125169   7.955   1.768   3.802 -0.1538  0.4521  0.0176
  105MOL     C225170   7.838   1.700   3.762  0.2996 -0.1532 -0.4841
  105MOL     C325171   7.781   1.637   3.895  0.4561 -0.3511  0.1395
  105MOL     C425172   7.756   1.802   3.672  0.1600  0.1138  0.1553
  105MOL     C525173   7.612   1.762   3.635 -0.2366  0.0417 -0.1428
  105MOL     O625174   7.572   1.648   3.640  0.8017 -0.3029 -0.0185
  105MOL     H725175   7.864   1.617   3.697 -4.7565 -1.9077 -0.4831
  105MOL     H825176   7.840   1.548   3.916  1.1272 -0.2261 -1.1675
  105MOL     H925177   7.678   1.606   3.877  0.4114  0.8267 -1.6721
  105MOL    H1025178   7.773   1.707   3.979 -2.5352  1.4058 -1.5349
  105MOL    H1125179   7.808   1.818   3.577  0.1923 -1.3849 -0.0979
  105MOL    H1225180   7.761   1.896   3.727 -0.5940  1.2474 -1.6433
  105MOL    H1325181   0.042   1.749   3.738 -0.6658 -1.1078 -0.0737
  105MOL    O1425182   7.541   1.877   3.602 -0.2640  0.3455 -0.1862
  105MOL    C1525183   7.404   1.872   3.580 -0.2596  0.4896 -0.3854
  105MOL    C1625184   7.350   2.014   3.601 -0.2022 -0.0412  0.0277
  105MOL    C1725185   7.360   1.810   3.442 -0.3243 -0.2997  0.0827
  105MOL    C1825186   7.402   1.878   3.314 -0.3550  0.0544 -0.2161
  105MOL    O1925187   7.501   1.843   3.247  0.6742 -0.1808  0.7372
  105MOL    H2025188   7.354   1.812   3.656 -1.0418 -0.3537 -1.5501
  105MOL    H2125189   7.254   2.020   3.550  1.0555  2.1576 -2.2249
  105MOL    H2225190   7.414   2.085   3.548 -2.1136  0.0518 -2.2198
  105MOL    H2325191   7.347   2.051   3.704 -0.2259 -0.9535  0.3557
  105MOL    H2425192   7.253   1.791   3.429 -0.6282  1.2678  0.2195
  105MOL    H2525193   7.406   1.711   3.436 -2.4678 -1.3988  1.0774
  105MOL    O2625194   7.319   1.974   3.286 -0.1317 -0.8983  0.7156
  105MOL    C2725195   7.329   2.051   3.167 -0.1460  0.2027 -0.4229
  105MOL    C2825196   7.270   1.992   3.046  0.0969 -0.6169 -0.2934
  105MOL    C2925197   7.287   2.202   3.189  0.1128 -0.2905 -0.2830
  105MOL    C3025198   7.407   2.289   3.219  0.8515  0.6167 -0.2998
  105MOL    O3125199   7.434   2.340   3.332  0.3112  0.4089  0.1081
  105MOL    H3225200   7.435   2.047   3.139 -0.3862 -0.3034 -1.2791
  105MOL    H3325201   7.162   1.977   3.046 -0.0790  0.5602 -1.0118
  105MOL    H3425202   7.282   1.884   3.040 -0.9263 -0.8829  1.7553
  105MOL    H3525203   7.302   2.046   2.957  0.3342 -0.7544 -0.2889
  105MOL    H3625204   7.227   2.198   3.279 -0.5568  1.0403 -0.6528
  105MOL    H3725205   7.240   2.242   3.099 -2.4209 -2.0796  0.1911
  105MOL    O3825206   7.476   2.289   3.105 -0.0157  0.0288 -0.5812
  105MOL    C3925207   7.605   2.348   3.113 -0.2644  0.3182  0.0876
  105MOL    C4025208   7.705   2.268   3.038 -0.1971  0.3193  0.3136
  105MOL    C4125209   7.603   2.495   3.076  0.1773 -0.3688  0.1631
  105MOL    C4225210   7.586   2.527   2.926 -0.6180  0.0501  0.6605
  105MOL    O4325211   7.669   2.592   2.868 -0.1406  0.5363  0.1027
  105MOL    H4425212   7.632   2.344   3.219 -1.5391 -0.2360  0.3973
  105MOL    H4525213   7.680   2.228   2.940 -2.4627  0.5113  0.7834
  105MOL    H4625214   7.725   2.171   3.085 -1.2461 -0.6100 -1.1127
  105MOL    H4725215   7.799   2.320   3.019  0.0025  0.3656  1.3590
  105MOL    H4825216   7.701   2.534   3.100  0.2761 -0.1555 -0.5780
  105MOL    H4925217   7.535   2.556   3.136  1.1610 -0.0072  0.9178
  105MOL    O5025218   7.478   2.459   2.865  0.2797 -0.6112 -0.2442
  105MOL    C5125219   7.442   2.485   2.733 -0.1364 -0.5466 -0.1447
  105MOL    C5225220   7.505   2.385   2.639  0.0961 -0.5881  0.1867
  105MOL    C5325221   7.288   2.476   2.741  0.0710  0.5547  0.4365
  105MOL    C5425222   7.207   2.518   2.616 -0.3522  0.1237 -0.3104
  105MOL    O5525223   7.252   2.512   2.498 -0.1552  0.0465  0.0328
  105MOL    H5625224   7.477   2.583   2.701  0.4577 -0.5970  0.3418
  105MOL    H5725225   7.485   2.421   2.538 -2.3836 -0.6536  0.6466
  105MOL    H5825226   7.467   2.283   2.650  1.7477 -1.2856 -0.3522
  105MOL    H5925227   7.613   2.376   2.656  0.2627 -1.4723 -1.1903
  105MOL    H6025228   7.245   2.530   2.826 -0.6686 -0.7045  0.8845
  105MOL    H6125229   7.278   2.368   2.750  1.9375  0.0682 -2.8114
  105MOL    O6225230   7.081   2.553   2.658  0.0617  0.2172  1.2418
  105MOL    C6325231   6.980   2.581   2.561  0.2653 -0.6073  1.2979
  105MOL    C6425232   6.922   2.449   2.504  0.2151 -0.2624 -0.1837
  105MOL    C6525233   6.866   2.664   2.621 -0.0967  0.2218  0.3321
  105MOL    C6625234   6.798   2.757   2.523  0.9360 -0.5959 -0.1369
  105MOL    O6725235   6.694   2.719   2.462  0.1954  0.0356 -0.0830
  105MOL    H6825236   7.024   2.632   2.475 -0.2693 -0.8614  0.8756
  105MOL    H6925237   6.998   2.394   2.448  1.9778  1.3357  0.5807
  105MOL    H7025238   6.836   2.463   2.438 -2.1774 -2.2554  2.3884
  105MOL    H7125239   6.891   2.384   2.586 -0.0603  0.1462  0.0328
  105MOL    H7225240   6.897   2.737   2.696 -1.9775 -0.3521  1.7161
  105MOL    H7325241   6.791   2.596   2.663  1.3381 -1.2866  0.5226
  105MOL    O7425242   6.842   2.886   2.535 -0.0169 -0.4149  0.3578
  105MOL    C7525243   6.786   2.991   2.457  0.0522 -0.0161  0.2180
  105MOL    C7625244   6.751   3.101   2.557  0.9520  0.2951  0.7749
  105MOL    C7725245   6.893   3.030   2.354  0.1969 -0.6888  0.2376
  105MOL    C7825246   6.858   3.120   2.230  0.5139  0.2702 -0.0521
  105MOL    O7925247   6.749   3.175   2.216 -0.0901  0.2058 -0.5320
  105MOL    H8025248   6.698   2.961   2.400  0.2051  3.0155 -1.7017
  105MOL    H8125249   6.685   3.056   2.631  0.3008 -0.7149 -0.4049
  105MOL    H8225250   6.692   3.184   2.519  2.0696  1.5555  1.7054
  105MOL    H8325251   6.843   3.141   2.601  3.2477 -3.3344 -0.5545
  105MOL    H8425252   6.945   2.947   2.307  1.4922 -0.0112  0.4422
  105MOL    H8525253   6.976   3.076   2.408  2.1148 -2.6561 -0.9495
  105MOL    O8625254   6.962   3.111   2.137 -0.5804  0.0021 -0.1925
  105MOL    C8725255   6.951   3.154   2.005  0.2886 -0.2957 -0.1887
  105MOL    C8825256   7.012   3.298   2.007  0.3468  0.0299 -0.1285
  105MOL    C8925257   7.016   3.046   1.919  0.2542 -0.6503  0.4929
  105MOL    C9025258   6.989   3.054   1.769  0.7451  1.3348 -0.1931
  105MOL    O9125259   7.076   3.069   1.686  0.2012 -0.3927 -0.0307
  105MOL    H9225260   6.844   3.152   1.982  0.4783 -1.4031 -1.0136
  105MOL    H9325261   7.114   3.299   2.043  0.6192  2.3631 -0.9086
  105MOL    H9425262   6.955   3.363   2.074  0.9966  1.4218 -0.9157
  105MOL    H9525263   7.006   3.334   1.904 -3.4435 -1.0622 -0.3831
  105MOL    H9625264   6.979   2.949   1.953 -2.0077  0.1050  0.2480
  105MOL    H9725265   7.125   3.045   1.930  0.1954  0.2239  1.1820
  105MOL    O9825266   6.860   3.026   1.745 -0.4419 -0.1422  0.1710
  105MOL    C9925267   6.810   3.050   1.620 -0.0158  0.2599  0.2634
  105MOL   C10025268   6.709   2.945   1.580 -0.7412  0.1463 -0.4878
  105MOL   C10125269   6.761   3.191   1.611 -0.1912  1.0512  0.4034
  105MOL   C10225270   6.716   3.238   1.473 -0.4805 -0.2484  0.4920
  105MOL   O10325271   6.793   3.283   1.387  0.2459  0.2498  0.7929
  105MOL   H10425272   6.888   3.056   1.544  0.5289  0.9735  0.8721
  105MOL   H10525273   6.635   2.936   1.660  0.8853  1.0911  1.1581
  105MOL   H10625274   6.762   2.850   1.588  2.8091  2.1186  0.6591
  105MOL   H10725275   6.664   2.965   1.483  0.9668  2.0466 -0.9242
  105MOL   H10825276   6.839   3.260   1.643 -1.4209  2.9461 -0.5884
  105MOL   H10925277   6.680   3.214   1.680 -1.1110 -2.5990  0.6878
  105MOL   O11025278   6.584   3.211   1.465 -0.8986  0.0817  0.2379
  105MOL   C11125279   6.519   3.220   1.337 -0.1371  0.6216 -0.3895
  105MOL   C11225280   6.538   3.078   1.275  0.1336  0.3022  0.2286
  105MOL   C11325281   6.377   3.256   1.369  0.5055  0.6545  0.9006
  105MOL   C11425282   6.280   3.259   1.254  0.2186 -0.0527  0.5757
  105MOL   O11525283   6.255   3.372   1.212 -0.2025  0.3376 -0.4998
  105MOL   H11625284   6.554   3.296   1.268 -1.5551  1.3207 -0.3686
  105MOL   H11725285   6.506   3.060   1.173  0.1222 -2.6517  0.7071
  105MOL   H11825286   6.475   3.012   1.334 -0.0626 -2.6758 -3.2148
  105MOL   H11925287   6.639   3.038   1.268 -0.4216 -1.0351 -0.1418
  105MOL   H12025288   6.384   3.360   1.398 -1.1555  1.2959 -0.8698
  105MOL   H12125289   6.339   3.195   1.451  0.3702  2.3742  2.1416
  105MOL   O12225290   6.238   3.141   1.201  0.2744  0.0585  0.0936
  105MOL   C12325291   6.156   3.136   1.083  0.2830 -0.1657 -0.2286
  105MOL   C12425292   6.225   3.042   0.978 -0.0248 -0.2243 -0.3701
  105MOL   C12525293   6.025   3.089   1.132 -0.4741  0.2022  0.0630
  105MOL   C12625294   5.910   3.124   1.043  0.2355 -0.3690 -0.0090
  105MOL   O12725295   5.927   3.152   0.927 -0.1314 -0.0017  0.0685
  105MOL   H12825296   6.154   3.238   1.045  1.3721 -0.8445 -2.1447
  105MOL   H12925297   6.328   3.076   0.981 -0.8819  2.4973 -0.4361
  105MOL   H13025298   6.178   3.058   0.881 -1.8507 -0.1854  0.4954
  105MOL   H13125299   6.211   2.937   1.006  0.3208 -0.5680 -1.4690
  105MOL   H13225300   6.005   3.120   1.235  0.7791 -1.9855  1.0166
  105MOL   H13325301   6.027   2.980   1.139  1.2369  0.1672 -0.7202
  105MOL   O13425302   5.792   3.125   1.102 -0.0605 -0.3218  0.5523
  105MOL   C13525303   5.673   3.128   1.023 -0.0894  0.4758 -0.3480
  105MOL   C13625304   5.582   3.045   1.113  1.1452 -0.3506 -0.1912
  105MOL   C13725305   5.632   3.276   1.007 -0.4221  0.2318  0.0468
  105MOL   C13825306   5.509   3.293   0.912  0.6732 -0.7676  0.0272
  105MOL   O13925307   5.449   3.200   0.862  0.2158 -0.1441  0.0429
  105MOL   H14025308   5.680   3.083   0.925 -0.7212  0.5540 -0.4288
  105MOL   H14125309   5.497   3.007   1.058  0.5743  3.5201 -2.0950
  105MOL   H14225310   5.538   3.097   1.198  1.5284 -1.5451  0.7606
  105MOL   H14325311   5.636   2.961   1.158  2.3046  2.0269  3.0756
  105MOL   H14425312   5.712   3.336   0.965  0.1391  0.7823  1.8834
  105MOL   H14525313   5.606   3.313   1.106 -1.3180 -4.5632  1.7472
  105MOL   O14625314   5.479   3.424   0.890  0.1753  0.2217  0.0800
  105MOL   C14725315   5.357   3.465   0.836 -0.3619 -0.0100  0.1208
  105MOL   C14825316   5.322   3.591   0.916  0.3472 -0.0906 -0.5039
  105MOL   C14925317   5.363   3.492   0.682 -0.3084  0.6944 -0.2832
  105MOL   C15025318   5.231   3.522   0.614  0.4647 -0.6212  0.3049
  105MOL   O15125319   5.133   3.453   0.636 -0.4160 -0.0711  0.1915
  105MOL   H15225320   5.277   3.393   0.857  0.0106 -0.8669 -1.3332
  105MOL   H15325321   5.398   3.669   0.906  1.4009 -1.3099 -2.4457
  105MOL   H15425322   5.302   3.569   1.020 -1.3083  1.4827 -0.4706
  105MOL   H15525323   5.226   3.628   0.880 -0.5294 -3.0550 -1.3231
  105MOL   H15625324   5.384   3.396   0.635 -3.1150  1.4888 -3.3471
  105MOL   H15725325   5.445   3.553   0.643  1.0308 -1.4136 -0.8678
  105MOL   O15825326   5.226   3.626   0.525  0.1452 -0.0507 -0.5802
  105MOL   C15925327   5.107   3.658   0.454  0.0939  0.0986  0.2652
  105MOL   C16025328   5.089   3.801   0.468 -0.5437 -0.9452 -0.1305
  105MOL   C16125329   5.111   3.606   0.305 -0.1014 -0.3881  0.2174
  105MOL   C16225330   5.210   3.674   0.218 -0.3004 -0.2194  0.1988
  105MOL   O16325331   5.290   3.604   0.165  0.7865  0.1620  0.0938
  105MOL   H16425332   5.023   3.601   0.493 -0.6592  1.2970  0.4198
  105MOL   H16525333   5.037   3.825   0.561  0.9369 -0.6847  0.6392
  105MOL   H16625334   5.015   3.829   0.392 -1.0947 -1.4469  0.2133
  105MOL   H16725335   5.183   3.855   0.475  0.2500 -2.4457  1.2030
  105MOL   H16825336   5.013   3.623   0.260 -0.9280 -0.3861  1.9532
  105MOL   H16925337   5.127   3.498   0.310  1.7133 -0.1270  0.1609
  105MOL   O17025338   5.209   3.807   0.213  0.3957 -0.0271  0.6218
  105MOL   C17125339   5.307   3.891   0.147 -0.3835  0.5823  0.5060
  105MOL   C17225340   5.296   3.877   7.970  0.3149 -0.1147 -0.3632
  105MOL   C17325341   5.290   4.032   0.213 -0.5907 -0.4013 -0.0022
  105MOL   C17425342   5.398   4.138   0.200  0.5402  0.3172  0.2210
  105MOL   O17525343   5.495   4.116   0.134  0.3009  0.0932  0.1519
  105MOL   H17625344   5.402   3.850   0.181 -0.8476 -0.7639  0.2045
  105MOL   H17725345   5.357   3.945   7.912  0.0102 -1.2096 -2.0014
  105MOL   H17825346   5.194   3.878   7.932  0.5572  0.3115 -1.0063
  105MOL   H17925347   5.329   3.779   7.935 -0.7834 -0.2514 -1.0201
  105MOL   H18025348   5.249   4.038   0.314  0.6433 -0.0704  0.4835
  105MOL   H18125349   5.208   4.084   0.164 -0.1408  0.6977  0.3882
  105MOL   O18225350   5.359   4.244   0.273 -0.1332 -0.0284 -0.1009
  105MOL   C18325351   5.445   4.353   0.305 -0.0509  0.6369  1.0906
  105MOL   C18425352   5.419   4.488   0.239 -0.2363  0.0134  0.3819
  105MOL   C18525353   5.444   4.372   0.459 -0.4709 -0.0703  0.2801
  105MOL   C18625354   5.506   4.257   0.540  1.1823  0.0492 -0.8721
  105MOL   O18725355   5.544   4.146   0.498 -0.3798  0.4688 -0.2824
  105MOL   H18825356   5.548   4.324   0.284 -0.5420  0.0918 -0.5914
  105MOL   H18925357   5.435   4.574   0.304 -0.3193  0.3689 -0.0648
  105MOL   H19025358   5.313   4.501   0.214 -0.1819  0.7578  0.5168
  105MOL   H19125359   5.477   4.504   0.149  1.5279 -0.0325  1.4896
  105MOL   H19225360   5.340   4.381   0.488 -0.7012  3.1566 -1.3619
  105MOL   H19325361   5.502   4.464   0.469 -2.2011  1.1455 -0.5816
  105MOL   O19425362   5.520   4.287   0.671  0.5354 -0.5899  0.3185
  105MOL   C19525363   5.598   4.212   0.770  0.1016 -0.7366  0.0113
  105MOL   C19625364   5.663   4.319   0.863 -0.3715  0.0021 -0.0030
  105MOL   C19725365   5.504   4.121   0.849  0.0045  0.5675  0.7212
  105MOL   C19825366   5.481   3.979   0.795 -0.3533  0.0636  0.0984
  105MOL   O19925367   5.381   3.917   0.826 -0.5372 -0.3734 -0.0186
  105MOL   H20025368   5.673   4.159   0.711  0.4651  0.9042 -1.0048
  105MOL   H20125369   5.719   4.261   0.936 -1.3775  0.8339  1.4508
  105MOL   H20225370   5.592   4.386   0.912  0.6910  0.1068  1.4366
  105MOL   H20325371   5.728   4.372   0.793  3.2058 -2.1635  1.5395
  105MOL   H20425372   5.408   4.168   0.873 -0.6791  0.6980 -2.0881
  105MOL   H20525373   5.546   4.097   0.946 -0.8268 -1.8348  0.5186
  105MOL   O20625374   5.577   3.942   0.716 -0.8326 -0.2673  0.6318
  105MOL   C20725375   5.569   3.811   0.658 -0.1491  0.4770  0.1098
  105MOL   C20825376   5.519   3.828   0.505  0.6153  0.4415  0.6041
  105MOL   C20925377   5.713   3.756   0.681  0.4828  0.1867 -0.6173
  105MOL   C21025378   5.753   3.631   0.610  0.7054 -0.1344 -0.1177
  105MOL   O21125379   5.679   3.537   0.591 -0.2027 -0.3979 -0.0532
  105MOL   H21225380   5.513   3.744   0.724  0.9516 -0.0916  0.4859
  105MOL   H21325381   5.597   3.850   0.431  0.4330  0.2028  0.3402
  105MOL   H21425382   5.440   3.903   0.498 -2.7261 -3.2699 -4.5486
  105MOL   H21525383   5.473   3.738   0.466  2.8012  0.8431 -3.1974
  105MOL   H21625384   5.728   3.747   0.788  0.6905 -2.9279 -0.8619
  105MOL   H21725385   5.789   3.826   0.645  0.0594  0.7993 -0.3123
  105MOL   O21825386   5.882   3.635   0.593  0.1359 -0.0966 -0.3397
  105MOL   C21925387   5.960   3.529   0.545 -0.1825 -0.4885 -0.1877
  105MOL   C22025388   6.092   3.588   0.491  0.7032 -0.4831 -0.1137
  105MOL   C22125389   5.979   3.426   0.656  0.6805  0.4507  0.0666
  105MOL   C22225390   6.073   3.459   0.771 -0.0416 -1.1060 -0.4152
  105MOL   O22325391   6.030   3.520   0.869 -0.5001  0.3581  0.2345
  105MOL   H22425392   5.905   3.476   0.468 -2.8689  0.1941  1.2157
  105MOL   H22525393   6.154   3.506   0.454 -0.5228 -1.7830  0.6253
  105MOL   H22625394   6.137   3.653   0.565 -0.0574  0.1087 -0.1672
  105MOL   H22725395   6.062   3.656   0.411  2.4064  0.7673  0.2968
  105MOL   H22825396   6.007   3.338   0.598 -1.8698 -0.7854  0.6130
  105MOL   H22925397   5.887   3.386   0.700 -1.5137  2.2116 -2.7542
  105MOL   O23025398   6.204   3.421   0.758 -0.1643  0.2642  0.0520
  105MOL   C23125399   6.298   3.463   0.857 -0.0525 -0.0602  0.7612
  105MOL   C23225400   6.418   3.373   0.873 -0.3277  0.2946  0.1155
  105MOL   C23325401   6.339   3.608   0.829  0.3861 -0.0683  0.1294
  105MOL   C23425402   6.410   3.665   0.952 -0.3699 -0.2149 -0.0441
  105MOL   O23525403   6.520   3.709   0.933  0.2072  0.1789 -0.6069
  105MOL   H23625404   6.247   3.451   0.953 -0.7673  0.7466  0.4804
  105MOL   H23725405   6.468   3.389   0.969 -1.5695  3.0969  0.3556
  105MOL   H23825406   6.479   3.391   0.785  1.1778  2.3384  1.5393
  105MOL   H23925407   6.381   3.271   0.879  0.0703  0.1561  0.2186
  105MOL   H24025408   6.249   3.669   0.823 -0.8549 -1.3147  4.3028
  105MOL   H24125409   6.389   3.617   0.732 -1.6204  0.7087 -0.8662
  105MOL   H24225410   6.353   3.670   1.045 -3.9095 -1.6505 -2.0727
  106MOL     O125411   7.662   2.095   6.152 -0.6132 -0.6127 -0.2561
  106MOL     C225412   7.684   1.955   6.122 -0.3981 -0.3631  0.3134
  106MOL     C325413   7.666   1.933   5.970 -0.1656  0.2667  0.0962
  106MOL     C425414   7.830   1.931   6.175 -0.5117  0.4511 -0.3462
  106MOL     C525415   7.879   1.791   6.149  0.1489  0.0705  0.0486
  106MOL     O625416   7.823   1.706   6.082 -0.4548 -0.2207 -0.3514
  106MOL     H725417   7.611   1.898   6.181  0.7011 -0.9794  1.0892
  106MOL     H825418   7.738   1.991   5.913  1.4875 -1.8409 -0.0280
  106MOL     H925419   7.566   1.952   5.932 -0.1166  2.5739  1.0034
  106MOL    H1025420   7.688   1.828   5.950 -0.7969  0.2602 -0.5678
  106MOL    H1125421   7.839   1.950   6.282  0.5252 -1.2266 -0.1244
  106MOL    H1225422   7.907   1.997   6.137 -0.0489  0.0295 -0.1414
  106MOL    H1325423   7.573   2.122   6.141  0.1221  2.8692  1.8738
  106MOL    O1425424   0.022   1.770   6.210 -0.1569 -0.4075 -0.0533
  106MOL    C1525425   0.090   1.651   6.188  0.3336  0.7951 -0.0444
  106MOL    C1625426   0.237   1.686   6.180  0.6774  0.2947 -0.3436
  106MOL    C1725427   0.066   1.550   6.300  0.1888 -0.0406  0.0005
  106MOL    C1825428   0.134   1.410   6.284  0.0347  0.3258 -0.0327
  106MOL    O1925429   0.127   1.337   6.186 -0.0934  0.2050  0.5113
  106MOL    H2025430   0.067   1.601   6.094 -0.6297  0.5633  0.3007
  106MOL    H2125431   0.256   1.733   6.084  0.6995  1.0876  0.0486
  106MOL    H2225432   0.297   1.595   6.175 -1.4970 -1.1138 -1.5918
  106MOL    H2325433   0.275   1.743   6.265 -1.0352 -1.8499  1.9475
  106MOL    H2425434   7.941   1.528   6.322  0.3703  2.0138  3.3290
  106MOL    H2525435   0.100   1.599   6.391 -0.6680 -0.4894  0.5648
  106MOL    O2625436   0.207   1.384   6.392 -0.7987  0.2433 -0.4399
  106MOL    C2725437   0.265   1.254   6.417  0.8617 -0.0779  0.3029
  106MOL    C2825438   0.418   1.273   6.389 -0.7432  0.0890  0.5523
  106MOL    C2925439   0.235   1.199   6.554 -0.4433 -0.1888  0.6550
  106MOL    C3025440   0.269   1.051   6.557 -0.5174 -0.3267  0.7315
  106MOL    O3125441   0.374   1.014   6.616 -0.4884  0.0155  0.2829
  106MOL    H3225442   0.223   1.184   6.345 -0.4722  0.4642  0.5271
  106MOL    H3325443   0.470   1.341   6.456 -0.1290  1.5208 -1.3145
  106MOL    H3425444   0.431   1.313   6.288  3.1611 -2.6017 -0.0929
  106MOL    H3525445   0.473   1.179   6.385 -0.0386  0.4514  1.6576
  106MOL    H3625446   0.129   1.198   6.580  0.2019 -0.8267  3.4372
  106MOL    H3725447   0.276   1.251   6.640  2.1322 -2.8941  1.1403
  106MOL    O3825448   0.178   0.975   6.492  0.3661 -0.5953 -0.5674
  106MOL    C3925449   0.201   0.846   6.461  0.2297  0.1004  0.3780
  106MOL    C4025450   0.090   0.758   6.528  0.3335 -0.3306  0.4936
  106MOL    C4125451   0.196   0.834   6.306  0.2349 -0.2608 -0.4984
  106MOL    C4225452   0.312   0.892   6.231 -0.7044  0.1184 -0.5164
  106MOL    O4325453   0.323   1.012   6.205 -0.0547  1.0100 -0.0164
  106MOL    H4425454   0.293   0.814   6.509 -0.1582 -0.6681  0.6251
  106MOL    H4525455   7.968   0.786   6.500  0.7751  1.2117  0.3912
  106MOL    H4625456   0.098   0.771   6.636  1.4210 -1.2756  0.5357
  106MOL    H4725457   0.124   0.657   6.506 -1.5908 -1.0109  0.5106
  106MOL    H4825458   0.107   0.879   6.262  0.4963 -1.3136 -2.1321
  106MOL    H4925459   0.199   0.728   6.282  2.3182 -0.2889 -0.2133
  106MOL    O5025460   0.409   0.804   6.221 -0.2018  0.3850  0.2280
  106MOL    C5125461   0.510   0.820   6.127  0.5395  0.3897 -0.0911
  106MOL    C5225462   0.624   0.897   6.199 -0.6584 -0.4909  0.5698
  106MOL    C5325463   0.550   0.690   6.067 -0.4297  0.6318  0.0537
  106MOL    C5425464   0.575   0.575   6.165 -0.0887 -0.7817  0.7405
  106MOL    O5525465   0.679   0.544   6.215 -0.0052  0.4234 -0.6061
  106MOL    H5625466   0.482   0.887   6.046  1.3320  2.0444  0.9732
  106MOL    H5725467   0.708   0.904   6.130 -0.7014 -0.7744  0.4914
  106MOL    H5825468   0.663   0.856   6.292  0.2337 -0.9517  0.0023
  106MOL    H5925469   0.598   1.002   6.212 -0.3620 -0.2636 -0.6363
  106MOL    H6025470   0.643   0.711   6.013 -1.0100  0.3042 -1.1006
  106MOL    H6125471   0.475   0.656   5.995 -1.1388  1.1606  0.5466
  106MOL    O6225472   0.455   0.513   6.194 -0.0463 -0.9359  0.2363
  106MOL    C6325473   0.441   0.403   6.277  0.4099 -1.2386 -0.1234
  106MOL    C6425474   0.308   0.428   6.349  0.3847  0.3304 -0.0230
  106MOL    C6525475   0.443   0.269   6.201  0.7102  0.4740  0.3899
  106MOL    C6625476   0.587   0.224   6.163  0.8887 -0.2757 -0.8222
  106MOL    O6725477   0.620   0.214   6.045  0.0115 -0.5823  0.1957
  106MOL    H6825478   0.520   0.405   6.352  3.0840 -2.6827 -2.7999
  106MOL    H6925479   0.234   0.446   6.271  0.8041 -2.0825 -1.0232
  106MOL    H7025480   0.315   0.513   6.417  1.0626  0.2387  0.0258
  106MOL    H7125481   0.268   0.347   6.410 -0.1964 -1.2928 -2.5175
  106MOL    H7225482   0.373   0.270   6.118  0.3636 -1.0452  0.6500
  106MOL    H7325483   0.398   0.192   6.264  0.7973  0.9635  1.0628
  106MOL    O7425484   0.664   0.199   6.276  0.0598  0.1571 -0.2343
  106MOL    C7525485   0.799   0.190   6.256 -0.1556  1.2434  0.0239
  106MOL    C7625486   0.873   0.242   6.376 -0.2522 -0.1042 -0.2708
  106MOL    C7725487   0.826   0.044   6.217 -0.0923 -0.5227  0.7664
  106MOL    C7825488   0.936   0.038   6.110 -0.2491  0.0190  0.1430
  106MOL    O7925489   0.937   7.936   6.015  0.0308 -0.0112  0.2307
  106MOL    H8025490   0.824   0.257   6.174  0.8412  0.3871 -0.3857
  106MOL    H8125491   0.856   0.191   6.470  0.1445  0.8557  0.3351
  106MOL    H8225492   0.840   0.344   6.397  0.2605  0.0039  0.0370
  106MOL    H8325493   0.982   0.246   6.363 -0.2622 -0.4683 -0.4863
  106MOL    H8425494   0.737   7.975   6.179 -0.2925 -0.1823  0.7947
  106MOL    H8525495   0.858   7.969   6.306  1.5402 -0.1519  0.4315
  106MOL    O8625496   1.037   0.122   6.131 -0.7987  0.0367 -0.9788
  106MOL    C8725497   1.159   0.103   6.062  0.0915 -0.1143 -0.2069
  106MOL    C8825498   1.157   0.167   5.929 -0.1929 -0.3754  0.7725
  106MOL    C8925499   1.267   0.156   6.159 -0.0507  0.2511  0.1644
  106MOL    C9025500   1.316   0.046   6.261  0.6163 -0.1364  0.6075
  106MOL    O9125501   1.250   7.974   6.355 -0.2549  0.0150 -0.0282
  106MOL    H9225502   1.181   7.976   6.056  2.2514  0.1428  2.1335
  106MOL    H9325503   1.105   0.263   5.933  0.6767  0.1117  0.6900
  106MOL    H9425504   1.099   0.104   5.862 -1.3032  1.8109 -0.3767
  106MOL    H9525505   1.256   0.171   5.882 -0.1679 -0.1522  0.8439
  106MOL    H9625506   1.238   0.240   6.221  0.9503  1.7714 -1.3776
  106MOL    H9725507   1.351   0.199   6.104 -0.6175 -1.0868 -1.7963
  106MOL    O9825508   1.435   0.005   6.227 -0.1606 -0.3663  0.0725
  106MOL    C9925509   1.510   7.897   6.316  0.4552  0.6476  0.4124
  106MOL   C10025510   1.494   7.749   6.269  0.7094 -0.0192 -0.8967
  106MOL   C10125511   1.654   7.948   6.311  0.1289  0.0801  0.2574
  106MOL   C10225512   1.741   7.867   6.399 -0.6847  0.6052  0.8565
  106MOL   O10325513   1.814   7.774   6.350  0.3570 -0.5362  0.1878
  106MOL   H10425514   1.464   7.895   6.414  1.3994 -0.5196  0.8452
  106MOL   H10525515   1.398   7.702   6.291  1.3874 -0.9313  0.1809
  106MOL   H10625516   1.560   7.682   6.324  1.3221 -0.0519 -1.6619
  106MOL   H10725517   1.527   7.738   6.166  0.4696 -0.2990 -0.9434
  106MOL   H10825518   1.641   0.067   6.354 -0.8625 -0.3877  1.0558
  106MOL   H10925519   1.703   7.962   6.214 -0.9757 -1.2447 -0.5078
  106MOL   O11025520   1.736   7.911   6.528  0.3755  0.2214 -0.1238
  106MOL   C11125521   1.834   7.864   6.625  0.5365 -0.4589 -0.0843
  106MOL   C11225522   1.869   0.016   6.703 -0.7896 -0.6330 -0.1246
  106MOL   C11325523   1.766   7.755   6.716 -0.7278  0.0870  0.1086
  106MOL   C11425524   1.865   7.652   6.764 -0.3644 -0.0826 -0.4720
  106MOL   O11525525   1.980   7.684   6.802  0.2774 -0.6074  0.4658
  106MOL   H11625526   1.924   7.830   6.575  1.3412  0.8604  0.4295
  106MOL   H11725527   1.939   0.011   6.787  2.0096 -0.1902 -2.3834
  106MOL   H11825528   1.783   0.051   6.760  0.8441 -0.1662  2.1615
  106MOL   H11925529   1.900   0.091   6.631 -3.6719  0.1192 -0.6203
  106MOL   H12025530   1.689   7.706   6.657 -1.0443  2.2534 -1.3632
  106MOL   H12125531   1.713   7.814   6.790 -0.4080  1.5701 -0.8058
  106MOL   O12225532   1.817   7.526   6.756  0.2892 -0.1854  0.2414
  106MOL   C12325533   1.913   7.427   6.779  0.5266 -0.1789  0.4766
  106MOL   C12425534   1.834   7.301   6.824 -0.6095 -0.6907 -0.1263
  106MOL   C12525535   2.001   7.394   6.656 -0.0228  0.3181 -0.9732
  106MOL   C12625536   2.113   7.297   6.671  0.1762 -0.8030 -0.9864
  106MOL   O12725537   2.132   7.227   6.770  0.3089  0.0216 -0.1614
  106MOL   H12825538   1.974   7.455   6.865  0.3198 -0.0208  0.5753
  106MOL   H12925539   1.766   7.317   6.908  0.1234 -1.4876  0.6383
  106MOL   H13025540   1.896   7.218   6.859 -0.3590 -0.7275 -0.6562
  106MOL   H13125541   1.782   7.264   6.736 -0.1989 -0.9549 -0.2584
  106MOL   H13225542   2.039   7.495   6.637 -1.3172  0.9560 -0.2474
  106MOL   H13325543   1.936   7.357   6.578  0.2279  0.7035 -1.3711
  106MOL   O13425544   2.185   7.289   6.558  0.1558 -0.3311  0.2391
  106MOL   C13525545   2.320   7.253   6.567  1.1647  0.5535 -0.2674
  106MOL   C13625546   2.365   7.181   6.430  0.8375 -0.4815  0.5444
  106MOL   C13725547   2.417   7.377   6.594  0.1182 -0.2639 -0.0440
  106MOL   C13825548   2.415   7.485   6.490  0.6790 -0.6393 -0.9068
  106MOL   O13925549   2.515   7.536   6.444 -0.3760 -0.1069  0.8389
  106MOL   H14025550   2.335   7.174   6.641  0.0963 -1.1437 -1.8219
  106MOL   H14125551   2.344   7.228   6.334  0.2821 -0.1693  0.8161
  106MOL   H14225552   2.338   7.076   6.423 -2.0229  0.3682 -1.9616
  106MOL   H14325553   2.474   7.170   6.433  0.7665 -0.7336  2.6114
  106MOL   H14425554   2.520   7.340   6.596  0.1257 -0.6154 -3.7203
  106MOL   H14525555   2.390   7.426   6.687  1.2797  0.5683 -0.1399
  106MOL   O14625556   2.292   7.537   6.472 -0.3180 -0.3043  0.0990
  106MOL   C14725557   2.266   7.655   6.392 -0.0390  0.0470 -1.0021
  106MOL   C14825558   2.153   7.607   6.298  0.3292 -0.2706 -0.1901
  106MOL   C14925559   2.234   7.772   6.476 -0.2582 -0.1434 -0.0515
  106MOL   C15025560   2.238   7.907   6.402  0.6384  0.2361  0.4122
  106MOL   O15125561   2.152   0.015   6.419 -0.3335  0.0696  0.4792
  106MOL   H15225562   2.349   7.684   6.328 -1.1715  1.0559 -2.0341
  106MOL   H15325563   2.159   7.503   6.266 -0.5503  0.0212 -1.3162
  106MOL   H15425564   2.145   7.660   6.204 -0.0406 -0.0976 -0.0589
  106MOL   H15525565   2.054   7.608   6.344 -0.3624 -0.2491 -1.6578
  106MOL   H15625566   2.286   7.777   6.572  0.9560  0.5140 -0.7437
  106MOL   H15725567   2.130   7.757   6.505  0.5937  0.6770  3.8322
  106MOL   O15825568   2.349   7.923   6.332 -0.3903  0.4764  0.3691
  106MOL   C15925569   2.373   0.057   6.252  0.2529  1.0297 -0.4379
  106MOL   C16025570   2.515   0.100   6.269 -0.5442 -0.2332  0.0986
  106MOL   C16125571   2.339   0.027   6.099 -0.2219 -0.5692 -0.3326
  106MOL   C16225572   2.395   7.868   6.041  0.7923  0.2881  0.1212
  106MOL   O16325573   2.321   7.776   6.011 -0.5288  0.5420  0.2354
  106MOL   H16425574   2.310   0.138   6.288  0.4582  0.9333  0.1438
  106MOL   H16525575   2.580   0.013   6.272  1.3409  1.1253 -0.3963
  106MOL   H16625576   2.521   0.163   6.358  3.1943 -0.1727 -0.1152
  106MOL   H16725577   2.549   0.163   6.187 -1.0981 -0.3136 -0.1918
  106MOL   H16825578   2.380   0.114   6.047 -0.3625  1.2042  2.4447
  106MOL   H16925579   2.230   0.040   6.099 -0.1737 -0.1499  0.9207
  106MOL   O17025580   2.532   7.876   6.039 -0.2182  0.1352  0.0512
  106MOL   C17125581   2.610   7.772   5.984  0.0206 -0.3296  0.2885
  106MOL   C17225582   2.663   7.816   5.854 -0.1338  0.3506 -0.4387
  106MOL   C17325583   2.723   7.726   6.086 -0.2545 -0.4436  0.6868
  106MOL   C17425584   2.797   7.592   6.055  0.4596 -0.5157 -0.1031
  106MOL   O17525585   2.915   7.576   6.034 -0.2774  0.1274 -0.1668
  106MOL   H17625586   2.543   7.688   5.967 -0.3416  0.5372 -2.8659
  106MOL   H17725587   2.733   7.743   5.813 -1.5192 -0.6760 -1.0154
  106MOL   H17825588   2.729   7.899   5.879  1.8039 -1.3403  0.1863
  106MOL   H17925589   2.596   7.839   5.771  0.0134 -1.2576 -1.0200
  106MOL   H18025590   2.673   7.714   6.182 -1.2899 -2.2532 -0.0710
  106MOL   H18125591   2.803   7.798   6.104  0.6660 -0.6431 -2.4285
  106MOL   O18225592   2.704   7.495   6.042 -0.0787 -0.3808 -0.0383
  106MOL   C18325593   2.746   7.367   6.008 -0.9764 -0.9585 -0.6382
  106MOL   C18425594   2.630   7.293   6.074 -0.1006 -0.3687 -0.2823
  106MOL   C18525595   2.773   7.353   5.856 -0.2145 -0.5220  0.7788
  106MOL   C18625596   2.647   7.353   5.771  0.3071 -0.3907  0.5567
  106MOL   O18725597   2.587   7.250   5.739 -0.4335 -0.2095 -0.6855
  106MOL   H18825598   2.831   7.348   6.073 -0.0438 -0.1243 -1.5862
  106MOL   H18925599   2.655   7.187   6.079  1.2419 -0.0440  0.2411
  106MOL   H19025600   2.533   7.299   6.025  0.7319  1.5247 -1.7382
  106MOL   H19125601   2.610   7.315   6.179  0.1852  1.3198 -0.5733
  106MOL   H19225602   2.820   7.255   5.850  0.2800 -0.3602  2.0586
  106MOL   H19325603   2.850   7.414   5.810 -1.4729 -1.3594 -2.6607
  106MOL   O19425604   2.603   7.486   5.739 -0.1182  0.0409 -0.2632
  106MOL   C19525605   2.508   7.506   5.646  0.0450  0.0367 -0.0364
  106MOL   C19625606   2.373   7.508   5.714 -0.1758 -0.2383  0.7164
  106MOL   C19725607   2.556   7.632   5.567  0.0502 -0.2513  0.9853
  106MOL   C19825608   2.491   7.667   5.427 -1.0467  0.5562 -0.6599
  106MOL   O19925609   2.560   7.721   5.341 -0.6354 -0.1264  0.4869
  106MOL   H20025610   2.507   7.434   5.565  0.1539  0.7262 -0.6587
  106MOL   H20125611   2.374   7.584   5.792 -2.0750 -0.7376  1.2568
  106MOL   H20225612   2.352   7.415   5.767 -0.7936  0.1713  1.1902
  106MOL   H20325613   2.306   7.526   5.631  0.5813  2.3731  0.6306
  106MOL   H20425614   2.664   7.629   5.552  0.1435 -0.1039  1.6078
  106MOL   H20525615   2.544   7.721   5.630 -0.2890 -0.8399  1.7600
  106MOL   O20625616   2.355   7.640   5.421 -0.0810  0.2868 -0.1743
  106MOL   C20725617   2.279   7.665   5.302 -0.2914 -0.7764  0.0709
  106MOL   C20825618   2.186   7.552   5.279  0.7157  0.1729  0.1946
  106MOL   C20925619   2.210   7.804   5.321 -0.0783  0.1802 -0.4347
  106MOL   C21025620   2.125   7.865   5.208  0.5226 -0.6687  0.1059
  106MOL   O21125621   2.013   7.910   5.234  0.0281 -0.3695 -1.2249
  106MOL   H21225622   2.360   7.672   5.228 -0.7583 -1.0015 -0.4681
  106MOL   H21325623   2.115   7.560   5.361 -0.3514  1.9837 -0.8653
  106MOL   H21425624   2.231   7.454   5.294  1.3652  0.2393 -1.2115
  106MOL   H21525625   2.124   7.552   5.189  0.7333 -1.6900  0.1701
  106MOL   H21625626   2.280   7.884   5.344 -1.3622  1.2075  0.0090
  106MOL   H21725627   2.145   7.797   5.409  0.0824 -0.2885 -0.3523
  106MOL   O21825628   2.192   7.877   5.087 -0.1179  0.2335 -0.1334
  106MOL   C21925629   2.161   0.015   5.005  0.3021 -0.6761  0.4693
  106MOL   C22025630   2.284   0.102   5.005  0.3696  0.7086 -0.6422
  106MOL   C22125631   2.130   7.940   4.861  0.0067 -0.1309 -0.2046
  106MOL   C22225632   1.998   7.858   4.857 -0.4475  0.3830  0.2485
  106MOL   O22325633   1.897   7.911   4.801 -0.1617 -0.3403 -0.3569
  106MOL   H22425634   2.077   0.077   5.037 -1.4850 -2.0627 -1.3842
  106MOL   H22525635   2.369   0.065   4.947  1.1731  0.0463  0.8959
  106MOL   H22625636   2.320   0.131   5.104  1.0984 -0.5313 -0.5271
  106MOL   H22725637   2.258   0.192   4.950 -1.4258  0.1165 -0.7795
  106MOL   H22825638   2.212   7.879   4.822  0.0447 -0.5709  0.5610
  106MOL   H22925639   2.111   0.047   4.798 -1.8032  0.8700  1.6670
  106MOL   O23025640   2.001   7.736   4.917  0.3874 -0.0503  0.3857
  106MOL   C23125641   1.886   7.657   4.932  0.1184 -0.3806 -0.1007
  106MOL   C23225642   1.934   7.518   4.900  0.0122  0.0065 -0.1216
  106MOL   C23325643   1.845   7.675   5.076  0.4306  0.1105  0.5264
  106MOL   C23425644   1.706   7.623   5.098 -0.5237  0.1328  0.2887
  106MOL   O23525645   1.612   7.701   5.104  0.2033 -0.5728 -0.0317
  106MOL   H23625646   1.815   7.702   4.863  1.1899  1.8660  0.2053
  106MOL   H23725647   1.978   7.523   4.800 -0.9343 -2.4604 -0.6851
  106MOL   H23825648   1.844   7.457   4.892  0.7335 -1.2409  1.0186
  106MOL   H23925649   2.006   7.476   4.970 -1.4479 -0.5750  1.0412
  106MOL   H24025650   1.848   7.779   5.109  1.3914  0.4028 -0.4899
  106MOL   H24125651   1.896   7.604   5.141 -0.8952 -0.3623  1.0739
  106MOL   H24225652   1.700   7.515   5.111  3.0034  0.0334  1.5710
  107MOL     O125653   0.574   4.109   5.082 -0.2697  0.7696  0.2206
  107MOL     C225654   0.703   4.054   5.054 -0.6597  0.5794  0.4543
  107MOL     C325655   0.813   4.149   5.106  0.2928  0.3572 -0.0326
  107MOL     C425656   0.713   3.919   5.116  0.3251 -0.0288 -0.2960
  107MOL     C525657   0.826   3.828   5.069 -0.8238 -0.3794  0.3741
  107MOL     O625658   0.812   3.762   4.965  0.5026  0.4862  0.2556
  107MOL     H725659   0.721   4.043   4.947 -0.8335  1.0489  0.3768
  107MOL     H825660   0.802   4.173   5.212 -0.3171  2.1691 -0.4839
  107MOL     H925661   0.818   4.241   5.048  3.2075 -1.7468 -3.2883
  107MOL    H1025662   0.907   4.097   5.086 -1.1050 -1.7708 -1.3116
  107MOL    H1125663   0.616   3.872   5.101 -0.3485  2.1513 -3.2036
  107MOL    H1225664   0.722   3.924   5.224 -2.0693 -1.3800 -0.0002
  107MOL    H1325665   0.539   4.152   5.006 -0.8566  1.2973  0.7825
  107MOL    O1425666   0.935   3.836   5.142  0.1634  0.1316 -0.2649
  107MOL    C1525667   1.057   3.809   5.087 -0.1767  0.1498  0.1020
  107MOL    C1625668   1.134   3.935   5.091  0.1004  0.0106 -0.7799
  107MOL    C1725669   1.128   3.708   5.174  0.2678 -0.2222 -0.3602
  107MOL    C1825670   1.059   3.572   5.177  0.3848  0.3032 -0.1066
  107MOL    O1925671   0.997   3.527   5.277  0.3788 -0.5946 -0.3173
  107MOL    H2025672   1.052   3.777   4.983 -0.1028 -0.1491  0.1890
  107MOL    H2125673   1.133   3.968   5.195  2.0921 -0.5106 -0.5859
  107MOL    H2225674   1.099   4.019   5.031 -1.1251  0.4272  0.4842
  107MOL    H2325675   1.237   3.915   5.063  0.0114 -2.3206  0.4270
  107MOL    H2425676   1.118   3.757   5.271 -1.3962  0.2246 -0.7369
  107MOL    H2525677   1.233   3.693   5.151 -0.2970 -2.8998 -1.3461
  107MOL    O2625678   1.072   3.509   5.055 -0.5883  0.0199 -0.0027
  107MOL    C2725679   1.029   3.375   5.026  0.0222 -0.1354  0.2661
  107MOL    C2825680   0.921   3.382   4.922 -0.2638  0.6887 -0.4175
  107MOL    C2925681   1.144   3.277   4.988  0.6658  0.0230  0.3455
  107MOL    C3025682   1.255   3.261   5.092 -0.8513 -0.4305 -0.0945
  107MOL    O3125683   1.363   3.313   5.073 -0.2631  0.3399  0.2241
  107MOL    H3225684   0.982   3.337   5.117  2.2196  2.3358  2.5019
  107MOL    H3325685   0.859   3.470   4.935 -1.2408 -0.0926  0.2771
  107MOL    H3425686   0.853   3.297   4.925  0.5013  0.0381 -1.1002
  107MOL    H3525687   0.977   3.385   4.828 -0.4317  0.7485 -0.5163
  107MOL    H3625688   1.182   3.316   4.893 -0.3331 -0.0581 -0.0930
  107MOL    H3725689   1.112   3.174   4.968  2.4642 -0.4167 -0.4154
  107MOL    O3825690   1.209   3.211   5.201 -0.0231  0.0060  0.2057
  107MOL    C3925691   1.287   3.210   5.318  0.0489 -0.1698  0.1321
  107MOL    C4025692   1.255   3.345   5.377 -0.4590 -0.0851 -0.5694
  107MOL    C4125693   1.242   3.091   5.411  0.1196  0.3135  0.0607
  107MOL    C4225694   1.358   3.062   5.503  0.7721  0.4027  0.2497
  107MOL    O4325695   1.351   3.078   5.628  0.5185  0.0312  0.1026
  107MOL    H4425696   1.392   3.207   5.289 -0.4978  3.4885 -2.6844
  107MOL    H4525697   1.309   3.424   5.325  1.2022  1.8348  3.8063
  107MOL    H4625698   1.290   3.347   5.480 -3.1409  0.6093  0.3775
  107MOL    H4725699   1.147   3.360   5.378 -0.2455  1.5412 -0.3823
  107MOL    H4825700   1.217   3.003   5.352 -1.5582  0.1212  1.0269
  107MOL    H4925701   1.150   3.122   5.461 -0.5098 -0.5179 -0.5610
  107MOL    O5025702   1.472   3.022   5.440  0.6017  0.0385 -0.3127
  107MOL    C5125703   1.585   2.996   5.517 -0.3815  0.2012  0.3022
  107MOL    C5225704   1.619   2.845   5.527  0.0239  0.2864  0.6798
  107MOL    C5325705   1.699   3.071   5.444 -0.0473 -0.5124 -0.3612
  107MOL    C5425706   1.676   3.220   5.440  0.0582  0.1141  0.1387
  107MOL    O5525707   1.636   3.271   5.333 -0.4373  0.1494  0.8548
  107MOL    H5625708   1.580   3.039   5.617  1.7097  0.6266  0.2452
  107MOL    H5725709   1.579   2.799   5.436 -1.1644 -0.5516  1.6187
  107MOL    H5825710   1.560   2.816   5.614  0.9402 -2.8171  0.3373
  107MOL    H5925711   1.721   2.811   5.548  0.1490  0.8740  1.0165
  107MOL    H6025712   1.707   3.025   5.346 -1.8694 -0.9582 -0.3032
  107MOL    H6125713   1.798   3.063   5.490  0.8991 -1.8651 -2.5450
  107MOL    O6225714   1.671   3.277   5.556 -0.2783  0.8116 -0.1788
  107MOL    C6325715   1.661   3.416   5.574 -0.1254  0.8156 -0.7188
  107MOL    C6425716   1.632   3.452   5.720  0.3219  0.7564  0.4289
  107MOL    C6525717   1.787   3.487   5.520 -0.1220  0.5395  0.1951
  107MOL    C6625718   1.755   3.604   5.436  0.6565  0.5180  0.9276
  107MOL    O6725719   1.787   3.718   5.478 -0.7111 -0.4029 -0.0984
  107MOL    H6825720   1.578   3.453   5.513  1.3656  2.1152 -2.0117
  107MOL    H6925721   1.545   3.403   5.763  0.7328  0.0056  0.4100
  107MOL    H7025722   1.617   3.558   5.741 -0.6503  0.7597 -0.2549
  107MOL    H7125723   1.719   3.430   5.781 -0.4047 -0.5373  1.0220
  107MOL    H7225724   1.832   3.418   5.449  0.6570 -1.6792  2.7413
  107MOL    H7325725   1.862   3.511   5.595 -0.0985 -1.8262  0.9619
  107MOL    O7425726   1.686   3.576   5.324  0.1102  0.2141 -0.4353
  107MOL    C7525727   1.635   3.680   5.237  0.1134  0.2818  0.6538
  107MOL    C7625728   1.695   3.654   5.107  0.1779 -0.8052 -0.5425
  107MOL    C7725729   1.477   3.680   5.233  0.1761  0.1543  0.1139
  107MOL    C7825730   1.424   3.767   5.351  0.2331 -0.2122  0.1267
  107MOL    O7925731   1.404   3.888   5.341  0.4299  0.0703  0.3638
  107MOL    H8025732   1.655   3.783   5.269 -2.1026  1.5814 -2.0050
  107MOL    H8125733   1.802   3.634   5.097  0.3096  0.9455 -2.8342
  107MOL    H8225734   1.682   3.739   5.040  1.5120  0.6239  0.9466
  107MOL    H8325735   1.651   3.565   5.063 -0.7134 -0.0884 -1.1079
  107MOL    H8425736   1.450   3.575   5.236 -0.1485  0.1864 -1.5891
  107MOL    H8525737   1.438   3.711   5.137 -0.8633 -3.3273 -0.6631
  107MOL    O8625738   1.389   3.691   5.459  0.0751  0.5081  0.5416
  107MOL    C8725739   1.310   3.741   5.567  0.1464  0.2059 -0.7300
  107MOL    C8825740   1.244   3.612   5.622  0.0771 -0.2440  0.2766
  107MOL    C8925741   1.405   3.815   5.670  0.0764  0.1629  0.1874
  107MOL    C9025742   1.339   3.847   5.801  0.1985 -0.1768 -0.6663
  107MOL    O9125743   1.374   3.799   5.905  0.1869 -0.0431  0.0129
  107MOL    H9225744   1.239   3.814   5.528  1.5735  0.1949 -3.4865
  107MOL    H9325745   1.170   3.588   5.545 -1.2276 -0.5480  1.5987
  107MOL    H9425746   1.180   3.625   5.709  0.4245 -0.1010  0.5067
  107MOL    H9525747   1.307   3.525   5.639  0.9209 -0.1876 -2.3503
  107MOL    H9625748   1.443   3.909   5.631  0.1492 -0.0830 -0.3463
  107MOL    H9725749   1.493   3.754   5.689 -0.5991 -0.3460  1.7502
  107MOL    O9825750   1.230   3.929   5.783 -0.4862  0.5307 -0.1072
  107MOL    C9925751   1.144   3.942   5.897  0.3705 -0.1953 -0.2937
  107MOL   C10025752   1.074   4.082   5.904  0.2927  0.5885  0.4460
  107MOL   C10125753   1.044   3.824   5.909 -0.1436  0.7946 -0.0697
  107MOL   C10225754   0.930   3.801   5.812 -0.2008  0.0548  0.0132
  107MOL   O10325755   0.816   3.801   5.862 -0.1709  0.2055  0.3171
  107MOL   H10425756   1.195   3.922   5.991 -1.8795  0.4119  1.0934
  107MOL   H10525757   1.143   4.161   5.933  0.4107  0.8721 -0.5917
  107MOL   H10625758   1.010   4.079   5.992 -1.3492  0.5929 -0.7230
  107MOL   H10725759   1.026   4.124   5.816  0.4388  1.6540  0.8719
  107MOL   H10825760   1.003   3.797   6.006  1.2784  1.7387  0.8054
  107MOL   H10925761   1.098   3.729   5.908  0.9030  1.3938 -0.6976
  107MOL   O11025762   0.964   3.786   5.682  1.1243  0.4833 -0.4431
  107MOL   C11125763   0.864   3.800   5.582 -0.2058  0.5013  0.0520
  107MOL   C11225764   0.926   3.886   5.477  0.4531 -0.5453 -0.0478
  107MOL   C11325765   0.821   3.661   5.529  0.1967 -0.5339  0.4069
  107MOL   C11425766   0.699   3.662   5.437  0.0280 -0.2974 -0.3476
  107MOL   O11525767   0.659   3.766   5.389  0.2703 -0.5521  0.2159
  107MOL   H11625768   0.780   3.850   5.632  0.1870  0.5307  0.6949
  107MOL   H11725769   1.010   3.836   5.429  0.7181 -1.2377  1.1241
  107MOL   H11825770   0.969   3.981   5.510  0.1417  0.9089 -3.5635
  107MOL   H11925771   0.852   3.912   5.401  0.2889 -1.2013 -0.1080
  107MOL   H12025772   0.788   3.608   5.619  0.3928 -1.0720  0.1611
  107MOL   H12125773   0.899   3.603   5.480 -0.8010 -1.6129  0.0645
  107MOL   O12225774   0.651   3.542   5.409  0.3008  0.3508  0.0111
  107MOL   C12325775   0.536   3.530   5.318  0.6725 -0.2971  0.2878
  107MOL   C12425776   0.588   3.507   5.178 -0.5932 -0.6796  0.4726
  107MOL   C12525777   0.440   3.417   5.359  0.3856 -0.0421  0.4529
  107MOL   C12625778   0.292   3.446   5.326 -0.2911  0.4799  0.0423
  107MOL   O12725779   0.241   3.430   5.214 -0.0987 -0.3792  0.5313
  107MOL   H12825780   0.470   3.617   5.322  1.4197  0.3595 -1.2314
  107MOL   H12925781   0.657   3.423   5.186 -0.5549 -0.7702 -0.7050
  107MOL   H13025782   0.642   3.596   5.146  0.4313 -0.8712  1.6832
  107MOL   H13125783   0.509   3.486   5.105  2.1649  2.4709 -3.6556
  107MOL   H13225784   0.447   3.406   5.467 -1.1399  2.0570  0.7853
  107MOL   H13325785   0.472   3.322   5.316  2.2183  0.7643 -0.0123
  107MOL   O13425786   0.232   3.491   5.430 -0.4067  0.2995  0.4285
  107MOL   C13525787   0.112   3.568   5.430 -0.0381  0.3711 -0.8360
  107MOL   C13625788   0.006   3.495   5.516  0.0438 -0.1359  0.0664
  107MOL   C13725789   0.139   3.705   5.502 -0.0152 -0.6772 -0.0516
  107MOL   C13825790   0.032   3.812   5.475 -0.4515  0.3408 -0.9288
  107MOL   O13925791   7.950   3.815   5.368 -0.4074 -0.3364 -0.2677
  107MOL   H14025792   0.064   3.568   5.332 -1.1583  0.8215 -0.3006
  107MOL   H14125793   7.890   3.545   5.528  0.1543  0.2197 -0.5191
  107MOL   H14225794   0.037   3.470   5.618  1.5905 -0.8796 -0.5792
  107MOL   H14325795   7.968   3.405   5.457 -1.0122  1.1499 -1.6335
  107MOL   H14425796   0.236   3.749   5.480 -0.9181  0.7022 -1.3550
  107MOL   H14525797   0.148   3.658   5.600 -0.9805 -0.1576  0.2926
  107MOL   O14625798   0.014   3.890   5.585  0.1690 -0.2292  0.1454
  107MOL   C14725799   7.881   3.969   5.599  0.5349 -0.7989  0.3503
  107MOL   C14825800   7.794   3.884   5.693  0.4687 -0.2818 -0.5069
  107MOL   C14925801   7.926   4.109   5.643 -0.0838 -0.5063  0.0379
  107MOL   C15025802   0.010   4.186   5.525  0.5532  0.1200  0.3507
  107MOL   O15125803   0.130   4.184   5.507  0.3115 -0.0369  0.1483
  107MOL   H15225804   7.821   3.976   5.509 -0.8519 -0.5240  1.2759
  107MOL   H15325805   7.740   3.798   5.653 -0.4003 -0.6101  1.3364
  107MOL   H15425806   7.725   3.964   5.722  2.5614  1.4155 -0.0883
  107MOL   H15525807   7.858   3.863   5.778 -0.7098 -0.7170  0.2960
  107MOL   H15625808   0.021   4.099   5.720 -0.5871 -0.4939  0.5331
  107MOL   H15725809   7.838   4.165   5.677  1.3895  1.8854  0.0163
  107MOL   O15825810   7.897   4.264   5.457 -0.9245  0.0604  0.4488
  107MOL   C15925811   7.933   4.325   5.337  0.4483  0.1516  0.1482
  107MOL   C16025812   7.870   4.247   5.218  0.3671  0.5122 -0.6269
  107MOL   C16125813   7.877   4.469   5.359 -0.0313  0.2639  0.1929
  107MOL   C16225814   0.009   4.558   5.414  0.4002  0.6191 -0.6118
  107MOL   O16325815   0.126   4.531   5.392 -0.4392  0.8586  0.6564
  107MOL   H16425816   0.060   4.314   5.319  0.3127  0.5659 -0.9324
  107MOL   H16525817   7.910   4.270   5.120 -0.6007 -1.8575 -1.6059
  107MOL   H16625818   7.763   4.261   5.233 -0.1885 -2.7826 -1.0270
  107MOL   H16725819   7.890   4.143   5.246  1.0543  0.9952  0.7527
  107MOL   H16825820   7.785   4.465   5.417 -0.4048 -0.1365 -0.4228
  107MOL   H16925821   7.848   4.505   5.260  1.6781 -0.5043 -0.6138
  107MOL   O17025822   7.945   4.672   5.480 -0.4896 -0.0379 -0.4226
  107MOL   C17125823   0.059   4.760   5.539 -0.2482 -0.2640 -0.8630
  107MOL   C17225824   0.085   4.878   5.433 -0.5050  1.1039 -0.9007
  107MOL   C17325825   0.019   4.816   5.679  0.2742 -0.3154 -0.6209
  107MOL   C17425826   7.872   4.897   5.690  0.8131  0.2084  0.0539
  107MOL   O17525827   7.868   5.021   5.671 -0.2289 -0.1630 -0.3818
  107MOL   H17625828   0.154   4.711   5.560  0.2206  1.2057  0.5664
  107MOL   H17725829   0.107   4.833   5.336  2.6550 -2.2513  1.2263
  107MOL   H17825830   0.167   4.940   5.469  0.6632 -1.2101  0.5870
  107MOL   H17925831   7.975   4.940   5.433 -1.7503 -0.6389  0.5717
  107MOL   H18025832   0.099   4.873   5.726 -0.0655  0.5300 -1.0585
  107MOL   H18125833   0.010   4.746   5.761  1.9418  0.5390  0.3243
  107MOL   O18225834   7.767   4.821   5.725  0.3943 -0.6438  0.1237
  107MOL   C18325835   7.642   4.880   5.746 -0.6836  0.9523  0.1026
  107MOL   C18425836   7.569   4.892   5.608  0.3274 -0.0358 -0.3656
  107MOL   C18525837   7.559   4.793   5.845 -0.3947  0.5761 -0.3369
  107MOL   C18625838   7.607   4.797   5.992  0.6365  0.0285  1.0105
  107MOL   O18725839   7.725   4.808   6.020 -0.9241 -0.8743 -0.0553
  107MOL   H18825840   7.645   4.978   5.793 -2.4935  0.0855  2.0928
  107MOL   H18925841   7.554   4.791   5.569  2.9595  0.1584 -2.0245
  107MOL   H19025842   7.623   4.944   5.528  0.4879 -1.5975 -1.2955
  107MOL   H19125843   7.473   4.942   5.624  0.5047  0.2359 -0.1566
  107MOL   H19225844   7.548   4.690   5.812  0.7763  0.6241 -0.9115
  107MOL   H19325845   7.461   4.840   5.844 -1.2874 -1.1394  1.7444
  107MOL   O19425846   7.509   4.770   6.087  0.0890 -0.1988  0.6899
  107MOL   C19525847   7.532   4.762   6.229 -0.2372  0.2810  0.1299
  107MOL   C19625848   7.415   4.823   6.304  0.4606 -0.5236 -0.4043
  107MOL   C19725849   7.541   4.609   6.254  0.2327 -0.3927 -0.9446
  107MOL   C19825850   7.593   4.563   6.399 -0.2434 -0.2696  0.1222
  107MOL   O19925851   7.713   4.527   6.417 -0.2785 -0.0272  0.1217
  107MOL   H20025852   7.624   4.811   6.262 -1.1627  1.9302  0.3493
  107MOL   H20125853   7.419   4.930   6.284  1.8499 -0.7966 -1.6946
  107MOL   H20225854   7.405   4.813   6.412  2.2790 -0.0383 -0.1837
  107MOL   H20325855   7.325   4.772   6.270 -0.5976  1.8594 -1.2828
  107MOL   H20425856   7.605   4.566   6.177  0.6018 -0.4300 -0.6190
  107MOL   H20525857   7.440   4.571   6.238 -0.7888  1.6503  0.4309
  107MOL   O20625858   7.498   4.552   6.491  0.1341 -0.0459 -0.2145
  107MOL   C20725859   7.526   4.517   6.630  0.2313  0.2473 -0.0668
  107MOL   C20825860   7.458   4.623   6.721 -0.2713  0.3153  0.0576
  107MOL   C20925861   7.470   4.370   6.652  0.7570  0.2220 -0.3189
  107MOL   C21025862   7.469   4.322   6.799  1.1453  0.4843  0.3153
  107MOL   O21125863   7.364   4.289   6.851 -0.2720 -0.1888 -0.0184
  107MOL   H21225864   7.634   4.517   6.648  0.3228 -2.4447 -0.4340
  107MOL   H21325865   7.502   4.719   6.693 -1.7717  0.6712 -1.1497
  107MOL   H21425866   7.480   4.598   6.825  0.6070 -0.0876 -0.2199
  107MOL   H21525867   7.351   4.624   6.701 -0.3393  1.0160  0.4315
  107MOL   H21625868   7.503   4.299   6.576 -1.0109 -0.9253 -0.0505
  107MOL   H21725869   7.368   4.373   6.614  0.7158  1.3681 -0.1039
  107MOL   O21825870   7.593   4.318   6.849  0.2103  0.1318 -0.8114
  107MOL   C21925871   7.616   4.248   6.968 -0.4720  0.4639  0.2228
  107MOL   C22025872   7.607   4.092   6.949 -0.1488 -0.4268  0.0960
  107MOL   C22125873   7.758   4.293   7.028 -0.1139  0.1426  0.0057
  107MOL   C22225874   7.745   4.442   7.061  0.4361 -0.6450 -0.2808
  107MOL   O22325875   7.647   4.495   7.118  0.1916  0.1309 -0.5885
  107MOL   H22425876   7.541   4.280   7.040 -0.6842  0.7219 -0.1139
  107MOL   H22525877   7.646   4.066   6.851  0.7726 -1.4340  0.7146
  107MOL   H22625878   7.506   4.054   6.929  0.1868 -0.0997 -2.3006
  107MOL   H22725879   7.643   4.032   7.033 -2.6570 -1.0234  0.7986
  107MOL   H22825880   7.844   4.276   6.964 -0.9878  0.4181 -1.2786
  107MOL   H22925881   7.776   4.242   7.122 -2.1107 -2.0367 -0.7515
  107MOL   O23025882   7.858   4.503   7.026  0.6280  0.6133 -0.3477
  107MOL   C23125883   7.883   4.641   7.048  0.5266  0.8568 -0.8590
  107MOL   C23225884   7.974   4.642   7.167  0.2295  0.0479  0.6124
  107MOL   C23325885   7.955   4.697   6.923 -0.3733  0.3141 -0.0145
  107MOL   C23425886   7.873   4.655   6.794  0.5787  0.1701 -0.1679
  107MOL   O23525887   7.761   4.706   6.774 -0.1555  0.6091  0.5808
  107MOL   H23625888   7.793   4.698   7.073  0.0032  0.3567 -1.5852
  107MOL   H23725889   0.019   4.747   7.184 -0.6573  0.1701  1.1762
  107MOL   H23825890   0.084   4.581   7.157 -0.9042 -1.5311 -0.1872
  107MOL   H23925891   7.918   4.608   7.253  2.8942 -0.8620  2.0373
  107MOL   H24025892   0.077   4.659   6.927 -1.2569 -2.2742 -0.9692
  107MOL   H24125893   7.968   4.804   6.934  1.5168 -0.0519  1.5106
  107MOL   H24225894   7.933   4.585   6.735 -0.0979 -0.4135 -0.1651
  108MOL     O125895   4.425   0.581   6.748 -0.8638  0.4724 -0.5093
  108MOL     C225896   4.528   0.622   6.670  0.8354 -0.4122  0.6679
  108MOL     C325897   4.569   0.524   6.566  0.1243 -0.2127 -0.1498
  108MOL     C425898   4.508   0.769   6.614 -0.5998  0.5989 -0.4016
  108MOL     C525899   4.627   0.851   6.553  0.3973  0.0956 -0.1176
  108MOL     O625900   4.741   0.808   6.541 -0.3151  0.5434 -0.2202
  108MOL     H725901   4.613   0.622   6.738  3.0795 -1.8535 -2.0115
  108MOL     H825902   4.656   0.564   6.514  0.2510 -1.1397 -0.6588
  108MOL     H925903   4.493   0.508   6.489 -0.6663 -0.2607  0.6265
  108MOL    H1025904   4.585   0.424   6.607 -3.1252 -1.9514 -2.8720
  108MOL    H1125905   4.470   0.837   6.690 -2.4612 -0.5414 -0.2805
  108MOL    H1225906   4.422   0.769   6.547 -1.9894 -3.0457  1.2829
  108MOL    H1325907   4.425   0.487   6.745  0.4961  0.4545 -0.3008
  108MOL    O1425908   4.594   0.970   6.507  0.4725 -0.0408  0.2570
  108MOL    C1525909   4.695   1.056   6.451  0.3354 -0.0704 -0.1183
  108MOL    C1625910   4.630   1.163   6.364  0.4947  0.0530 -0.0033
  108MOL    C1725911   4.786   1.108   6.567 -0.0316 -0.2166 -0.1113
  108MOL    C1825912   4.922   1.155   6.518 -0.2207  0.1069  0.7599
  108MOL    O1925913   4.949   1.270   6.521  0.1035  0.1792 -0.2767
  108MOL    H2025914   4.755   1.000   6.379 -0.9630 -0.9292 -0.5473
  108MOL    H2125915   4.549   1.121   6.304 -0.5594 -0.4544  1.7158
  108MOL    H2225916   4.706   1.212   6.304 -1.1884  1.1213 -1.2992
  108MOL    H2325917   4.578   1.228   6.434  1.1542 -1.3379  1.8214
  108MOL    H2425918   4.801   1.030   6.642  0.3043 -0.8992 -0.8762
  108MOL    H2525919   4.751   1.197   6.620  0.7351  0.2918 -0.4461
  108MOL    O2625920   5.009   1.056   6.474  0.3125  0.1964  0.2838
  108MOL    C2725921   5.148   1.091   6.447  0.2099 -0.0036  0.3881
  108MOL    C2825922   5.217   0.975   6.509  0.3311  0.1859 -0.2797
  108MOL    C2925923   5.179   1.108   6.298 -0.1127  0.0678 -0.2868
  108MOL    C3025924   5.131   1.249   6.254  0.3013 -0.1255 -0.4439
  108MOL    O3125925   5.050   1.261   6.164  0.2551 -0.3193 -0.1106
  108MOL    H3225926   5.185   1.170   6.512  0.4689 -0.1787  0.4556
  108MOL    H3325927   5.323   0.981   6.482  0.7594 -0.8034  1.1189
  108MOL    H3425928   5.165   0.892   6.462  1.8973 -0.9698 -0.0249
  108MOL    H3525929   5.209   0.960   6.617 -2.7269 -0.6784 -0.5971
  108MOL    H3625930   5.129   1.029   6.242 -1.6103  1.7154 -1.3676
  108MOL    H3725931   5.286   1.094   6.287  0.0638  0.4834  0.9008
  108MOL    O3825932   5.189   1.347   6.332 -0.0595  0.1144 -0.2170
  108MOL    C3925933   5.164   1.484   6.306 -0.4144 -0.7638 -0.4513
  108MOL    C4025934   5.171   1.545   6.447 -0.2621  0.4601 -0.0298
  108MOL    C4125935   5.264   1.538   6.203 -0.0697 -0.6866  0.1863
  108MOL    C4225936   5.254   1.688   6.175 -0.2240  0.6970 -0.6054
  108MOL    O4325937   5.187   1.729   6.082 -0.1070  0.0472 -0.2104
  108MOL    H4425938   5.061   1.483   6.271 -1.1909  1.1233  1.7078
  108MOL    H4525939   5.275   1.561   6.473  0.0418 -0.2247 -0.7995
  108MOL    H4625940   5.117   1.492   6.526 -0.1907 -1.6060 -1.3152
  108MOL    H4725941   5.136   1.648   6.451  2.0098  1.2791 -0.3551
  108MOL    H4825942   5.261   1.493   6.103 -0.0565 -1.2116  0.4169
  108MOL    H4925943   5.366   1.510   6.230 -0.0658  0.5253  1.4658
  108MOL    O5025944   5.316   1.756   6.269 -0.0666  0.7042 -0.2253
  108MOL    C5125945   5.334   1.892   6.261  0.7878 -0.9206 -0.0207
  108MOL    C5225946   5.221   1.974   6.331 -0.4853  0.2249  0.2488
  108MOL    C5325947   5.484   1.929   6.295  1.0600 -0.5047 -0.8433
  108MOL    C5425948   5.534   2.068   6.250  0.1353 -0.3958  0.0124
  108MOL    O5525949   5.584   2.149   6.329  0.0449 -0.4197  0.0352
  108MOL    H5625950   5.333   1.908   6.153 -1.1686  1.6083  0.3212
  108MOL    H5725951   5.240   2.081   6.335  2.6815 -0.3188  1.3670
  108MOL    H5825952   5.198   1.939   6.432 -2.1658 -2.3177 -0.9704
  108MOL    H5925953   5.128   1.949   6.280  0.6722 -0.2789 -1.6536
  108MOL    H6025954   5.558   1.859   6.258  1.5531 -0.0440 -0.7286
  108MOL    H6125955   5.504   1.939   6.402 -1.5645 -0.0787 -0.3492
  108MOL    O6225956   5.522   2.094   6.113 -0.1307 -0.0844 -0.1286
  108MOL    C6325957   5.562   2.223   6.052 -0.4857 -0.1088 -0.1023
  108MOL    C6425958   5.699   2.195   5.981 -0.6628  0.2471  0.4615
  108MOL    C6525959   5.463   2.267   5.948 -0.2424 -0.3034 -0.5135
  108MOL    C6625960   5.332   2.312   6.006 -1.0987  0.5292 -0.1245
  108MOL    O6725961   5.225   2.254   5.995 -0.5932 -0.0368 -0.0480
  108MOL    H6825962   5.564   2.301   6.128  0.0558  1.0199 -1.2579
  108MOL    H6925963   5.730   2.266   5.906 -2.5561 -0.0136 -0.5990
  108MOL    H7025964   5.700   2.102   5.924  0.3818 -0.0058  0.8914
  108MOL    H7125965   5.783   2.189   6.050  1.0579  1.5332 -1.4680
  108MOL    H7225966   5.430   2.183   5.887 -1.8874 -0.9531  1.1988
  108MOL    H7325967   5.507   2.350   5.892  0.5866  0.5564  1.3683
  108MOL    O7425968   5.346   2.430   6.077  0.5386 -0.3274  0.1928
  108MOL    C7525969   5.236   2.502   6.133  0.5623  0.1398  0.4642
  108MOL    C7625970   5.225   2.483   6.287  0.2579  0.1479 -0.0752
  108MOL    C7725971   5.255   2.647   6.093  0.3415  0.5377  0.5111
  108MOL    C7825972   5.131   2.734   6.110 -0.0253 -0.7651  0.0781
  108MOL    O7925973   5.026   2.723   6.040 -0.0825 -0.4471  0.1996
  108MOL    H8025974   5.142   2.465   6.091  0.4989  0.7874  0.0372
  108MOL    H8125975   5.209   2.378   6.311  1.7272 -0.4738 -1.6624
  108MOL    H8225976   5.155   2.541   6.347  1.8324  1.7542  0.2704
  108MOL    H8325977   5.325   2.498   6.327  0.1977 -0.4577  0.3130
  108MOL    H8425978   5.290   2.663   5.990 -2.2221  0.0190 -0.4764
  108MOL    H8525979   5.330   2.697   6.154  1.2443 -0.0081 -0.1381
  108MOL    O8625980   5.154   2.833   6.203 -0.1189 -0.4554  0.5253
  108MOL    C8725981   5.055   2.933   6.239 -0.7623  0.0084 -0.5877
  108MOL    C8825982   5.101   2.992   6.372 -0.0038  0.8858  0.0933
  108MOL    C8925983   5.067   3.032   6.119 -0.5491  0.3690 -0.0220
  108MOL    C9025984   4.966   3.142   6.123 -0.6723  0.0937  0.5391
  108MOL    O9125985   4.869   3.137   6.050 -0.0141  0.0850 -0.5558
  108MOL    H9225986   4.958   2.889   6.261 -0.3518 -0.6046  0.0215
  108MOL    H9325987   5.108   2.917   6.451  0.9587  0.1882 -0.6483
  108MOL    H9425988   5.035   3.072   6.406  1.3985  0.9187  2.8810
  108MOL    H9525989   5.202   3.029   6.355  0.9550 -2.1088 -1.0645
  108MOL    H9625990   5.050   2.991   6.019 -1.5090  2.3034 -0.6711
  108MOL    H9725991   5.172   3.059   6.120 -0.7079  1.1171  3.9528
  108MOL    O9825992   4.998   3.239   6.209 -0.1440  0.3225  0.1742
  108MOL    C9925993   4.913   3.344   6.252 -0.6928  0.0096  0.0268
  108MOL   C10025994   4.973   3.396   6.382  0.0055 -0.1364  0.2461
  108MOL   C10125995   4.922   3.460   6.147 -0.7098 -0.2873  0.9085
  108MOL   C10225996   4.824   3.452   6.023  0.4761 -0.9736 -0.4358
  108MOL   O10325997   4.870   3.483   5.909 -0.3475  0.7301  0.2472
  108MOL   H10425998   4.813   3.302   6.264  0.0147 -1.6936  0.1475
  108MOL   H10525999   5.062   3.456   6.362  0.4007 -1.0097 -0.6513
  108MOL   H10626000   4.996   3.308   6.442 -0.7256 -0.5821 -0.1210
  108MOL   H10726001   4.900   3.448   6.444  0.0110  1.1605 -0.8024
  108MOL   H10826002   5.026   3.475   6.116 -1.0824 -0.3984 -0.4163
  108MOL   H10926003   4.882   3.542   6.206 -0.0555  0.6097  0.1207
  108MOL   O11026004   4.692   3.422   6.062  0.3409  0.7198  0.5429
  108MOL   C11126005   4.603   3.397   5.952  0.1154 -0.3745  0.3896
  108MOL   C11226006   4.508   3.282   5.991 -0.0699  0.1701 -0.6851
  108MOL   C11326007   4.529   3.533   5.921  0.0496 -0.2788  0.0433
  108MOL   C11426008   4.443   3.598   6.029  0.1893 -0.6843  0.1217
  108MOL   O11526009   4.493   3.683   6.103  0.0162 -0.2089 -0.2302
  108MOL   H11626010   4.659   3.380   5.860  0.3349 -0.2644  0.5033
  108MOL   H11726011   4.569   3.192   5.987  0.1355  0.2352  0.9566
  108MOL   H11826012   4.423   3.274   5.922  0.0579  0.3932 -0.8681
  108MOL   H11926013   4.478   3.303   6.093  4.1534  0.1345  0.6482
  108MOL   H12026014   4.463   3.529   5.835 -1.8971 -0.0264  1.5042
  108MOL   H12126015   4.607   3.607   5.902  0.3893  0.8305  4.9401
  108MOL   O12226016   4.317   3.548   6.037 -0.2373 -0.6036 -0.2225
  108MOL   C12326017   4.235   3.582   6.144 -0.5900 -0.2065  0.4665
  108MOL   C12426018   4.091   3.580   6.091 -0.3527  0.1379  0.2188
  108MOL   C12526019   4.244   3.494   6.267 -0.2679 -0.3019 -0.2425
  108MOL   C12626020   4.379   3.490   6.340  0.5460  0.3588  0.3546
  108MOL   O12726021   4.450   3.388   6.326  0.4994 -0.2518  0.5190
  108MOL   H12826022   4.255   3.682   6.184  0.8436 -0.3484  0.1549
  108MOL   H12926023   4.076   3.650   6.008 -0.0695 -1.5885 -1.3181
  108MOL   H13026024   4.026   3.620   6.169  1.0063  0.5426  1.1737
  108MOL   H13126025   4.064   3.478   6.064 -0.6130 -0.2000  1.7358
  108MOL   H13226026   4.217   3.391   6.244  1.7761 -0.9038  0.0109
  108MOL   H13326027   4.164   3.517   6.337  1.5767  0.7303  1.5727
  108MOL   O13426028   4.419   3.595   6.405 -0.1224 -0.3224 -0.9597
  108MOL   C13526029   4.544   3.599   6.486  0.2007 -0.6810  0.2555
  108MOL   C13626030   4.661   3.624   6.387  0.0321 -0.4471  0.2255
  108MOL   C13726031   4.535   3.721   6.577 -0.0685 -0.1016 -0.6570
  108MOL   C13826032   4.629   3.712   6.696  0.3676 -0.0656 -0.1154
  108MOL   O13926033   4.717   3.634   6.706  0.4619 -0.2543  0.5626
  108MOL   H14026034   4.568   3.513   6.548 -1.5919 -0.7681  0.8577
  108MOL   H14126035   4.758   3.639   6.434 -0.1549  0.8312  0.2192
  108MOL   H14226036   4.649   3.706   6.316 -1.4514 -0.2090  0.7234
  108MOL   H14326037   4.674   3.542   6.316  0.1453  0.4348 -0.7793
  108MOL   H14426038   4.429   3.719   6.605  0.2332 -2.5498  0.4367
  108MOL   H14526039   4.546   3.809   6.514  0.8186 -0.6223 -1.2225
  108MOL   O14626040   4.587   3.800   6.790 -0.0996 -0.7349 -0.5888
  108MOL   C14726041   4.670   3.820   6.902  0.0996  0.5379 -0.0996
  108MOL   C14826042   4.741   3.961   6.895 -0.1757  0.0712 -0.4811
  108MOL   C14926043   4.595   3.799   7.038 -0.1496 -0.5527  0.2831
  108MOL   C15026044   4.561   3.653   7.067 -0.1776  0.3531  0.1657
  108MOL   O15126045   4.463   3.620   7.136 -0.3826 -0.9053  0.1539
  108MOL   H15226046   4.757   3.754   6.904  0.0520  0.4678 -0.3618
  108MOL   H15326047   4.844   3.956   6.928 -0.5220 -1.3997  0.4528
  108MOL   H15426048   4.694   4.038   6.956 -1.5704 -1.3064  0.2468
  108MOL   H15526049   4.743   4.004   6.795 -0.6022  0.0591 -0.4950
  108MOL   H15626050   4.507   3.863   7.032  0.5216  0.2044 -1.8345
  108MOL   H15726051   4.666   3.828   7.116  0.9408 -1.1012 -0.4983
  108MOL   O15826052   4.658   3.567   7.025 -0.2283 -0.2035 -0.6130
  108MOL   C15926053   4.629   3.427   7.034  0.0877  0.4033 -0.5762
  108MOL   C16026054   4.670   3.369   6.899  0.4629 -0.2555  0.1282
  108MOL   C16126055   4.726   3.378   7.151  0.4021  0.2290  0.0303
  108MOL   C16226056   4.667   3.366   7.296 -0.2151  0.6752 -0.0658
  108MOL   O16326057   4.705   3.454   7.374  0.1838 -0.4364  0.4203
  108MOL   H16426058   4.525   3.397   7.051  0.1203 -0.3389 -1.6260
  108MOL   H16526059   4.633   3.267   6.886 -0.1502 -0.1058  0.6232
  108MOL   H16626060   4.778   3.371   6.888  0.3383  2.2976 -1.0509
  108MOL   H16726061   4.626   3.419   6.812  0.4898  1.3949  1.0481
  108MOL   H16826062   4.802   3.456   7.150  0.0281  0.5942  0.1718
  108MOL   H16926063   4.779   3.283   7.146  0.4485  0.3444 -1.9034
  108MOL   O17026064   4.580   3.262   7.315 -0.3441  0.3040 -0.2259
  108MOL   C17126065   4.522   3.240   7.445 -0.6822 -0.0591  0.9389
  108MOL   C17226066   4.372   3.207   7.428  0.8172 -0.5409 -0.7083
  108MOL   C17326067   4.601   3.139   7.532  0.3876  0.1899  0.1992
  108MOL   C17426068   4.601   2.990   7.500 -0.6019  0.1887 -0.3290
  108MOL   O17526069   4.550   2.946   7.400  0.6298  0.9630 -0.0216
  108MOL   H17626070   4.527   3.337   7.494 -3.5729  0.6977 -0.1954
  108MOL   H17726071   4.324   3.301   7.402  0.4981 -0.5261 -0.0676
  108MOL   H17826072   4.315   3.170   7.513  0.8721  1.0149  0.0349
  108MOL   H17926073   4.359   3.128   7.355 -1.7432 -0.6246 -0.2107
  108MOL   H18026074   4.559   3.149   7.632 -1.2445  2.0707 -0.6404
  108MOL   H18126075   4.703   3.176   7.538  0.3416  0.5957 -1.2169
  108MOL   O18226076   4.661   2.917   7.591 -0.1411  0.4276 -0.3629
  108MOL   C18326077   4.658   2.769   7.587  0.0079  0.3222 -0.3007
  108MOL   C18426078   4.791   2.713   7.524 -0.2156  0.3131  0.9113
  108MOL   C18526079   4.654   2.717   7.730  0.3344  0.2158  0.1169
  108MOL   C18626080   4.517   2.746   7.794 -0.2133  0.1363 -0.9731
  108MOL   O18726081   4.419   2.794   7.731  0.5540 -0.6659 -0.1415
  108MOL   H18826082   4.571   2.723   7.541 -0.2844 -0.1283  0.6963
  108MOL   H18926083   4.802   2.606   7.537 -0.8370  0.0392 -0.7863
  108MOL   H19026084   4.872   2.754   7.585  1.0207  0.2956 -0.6929
  108MOL   H19126085   4.806   2.747   7.422 -1.0766  1.3324  1.1153
  108MOL   H19226086   4.739   2.759   7.783 -0.4704  0.7796  0.9610
  108MOL   H19326087   4.678   2.610   7.725  0.3070  0.2091  0.1293
  108MOL   O19426088   4.517   2.714   7.924  0.2686  0.2067  0.1123
  108MOL   C19526089   4.408   2.729   0.025  0.2036 -0.1422  0.3736
  108MOL   C19626090   4.370   2.592   0.085 -0.8878 -0.5011  0.0623
  108MOL   C19726091   4.436   2.823   0.141 -0.0137  0.3419 -0.3121
  108MOL   C19826092   4.437   2.968   0.098  1.3665  0.6506  0.0188
  108MOL   O19926093   4.534   3.036   0.099 -0.3220 -0.6900  0.1378
  108MOL   H20026094   4.326   2.753   7.937  1.1067  0.9725 -0.3338
  108MOL   H20126095   4.323   2.540   0.002 -0.6509  0.1458 -0.4738
  108MOL   H20226096   4.307   2.613   0.172 -0.8745  1.5636 -0.4141
  108MOL   H20326097   4.452   2.532   0.125 -0.9097 -0.8255 -0.3777
  108MOL   H20426098   4.534   2.802   0.185  0.2764  1.8760 -0.1819
  108MOL   H20526099   4.363   2.820   0.222  0.2515  0.3354 -0.0714
  108MOL   O20626100   4.317   3.011   0.055  0.9026  0.0744  0.6813
  108MOL   C20726101   4.288   3.146   0.009  0.5746  0.0078  0.0541
  108MOL   C20826102   4.331   3.161   7.845 -0.0099 -0.5744 -0.6231
  108MOL   C20926103   4.144   3.191   0.030 -0.0204 -1.0344  1.0958
  108MOL   C21026104   4.036   3.099   7.961 -0.7302 -0.4678  0.7954
  108MOL   O21126105   3.985   3.120   7.854  0.0079 -0.1850  0.2136
  108MOL   H21226106   4.354   3.211   0.067  1.8000 -1.4623  0.3320
  108MOL   H21326107   4.439   3.151   7.839  0.1079 -0.1853  0.6994
  108MOL   H21426108   4.308   3.258   7.801  1.0593 -0.6758 -1.4232
  108MOL   H21526109   4.295   3.089   7.771 -0.3989 -0.7000 -0.3135
  108MOL   H21626110   4.139   3.284   7.952  0.8230 -0.6010  1.7070
  108MOL   H21726111   4.128   3.216   0.134 -0.1501  1.3871  0.5311
  108MOL   O21826112   4.008   2.993   0.056 -0.0189 -0.1131 -0.3468
  108MOL   C21926113   3.931   2.880   0.015 -0.2666  0.0118  0.0109
  108MOL   C22026114   4.024   2.793   7.913 -0.1660 -0.1093 -0.0588
  108MOL   C22126115   3.868   2.806   0.133 -0.4508  0.1308 -0.1965
  108MOL   C22226116   3.776   2.688   0.090  0.7631 -0.6289  0.0127
  108MOL   O22326117   3.824   2.575   0.069 -0.3073  0.0373  0.0613
  108MOL   H22426118   3.854   2.908   7.923  0.5655  2.8279  0.1560
  108MOL   H22526119   4.057   2.835   7.818 -0.3542 -0.7930 -0.4328
  108MOL   H22626120   3.976   2.701   7.880  1.5957 -1.8013  1.8961
  108MOL   H22726121   4.117   2.763   7.961  0.0057  0.2559 -0.1606
  108MOL   H22826122   3.827   2.884   0.197  0.5469  0.6355 -0.1624
  108MOL   H22926123   3.951   2.760   0.188  0.4641  0.5545 -1.2074
  108MOL   O23026124   3.646   2.727   0.062 -0.5299  0.1065 -0.9494
  108MOL   C23126125   3.556   2.638   0.006 -0.2349  0.5171 -0.4873
  108MOL   C23226126   3.432   2.645   0.083  0.0084  0.2957 -0.0023
  108MOL   C23326127   3.538   2.663   7.831  0.4696 -0.3736  0.3558
  108MOL   C23426128   3.486   2.809   7.814 -0.3257 -0.1022 -0.4562
  108MOL   O23526129   3.435   2.854   7.710  0.5260  0.1898 -0.0957
  108MOL   H23626130   3.594   2.536   0.014  0.6272  0.8773  0.0802
  108MOL   H23726131   3.380   2.739   0.066  0.0172  0.3529  0.2795
  108MOL   H23826132   3.456   2.632   0.189  1.6021  0.6405 -0.3073
  108MOL   H23926133   3.362   2.568   0.051 -1.0882  2.0253 -1.8694
  108MOL   H24026134   3.450   2.615   7.787 -0.1816 -1.0462  2.3615
  108MOL   H24126135   3.630   2.653   7.774  0.8001 -1.6917  1.1028
  108MOL   H24226136   3.517   2.867   7.900  1.2978 -1.0488 -0.3766
  109MOL     O126137   6.368   3.973   3.689  0.0999 -0.4509 -0.4694
  109MOL     C226138   6.473   3.899   3.750 -0.0733  0.9069  0.0345
  109MOL     C326139   6.602   3.924   3.681  0.3165  0.5240  0.1358
  109MOL     C426140   6.480   3.943   3.903 -0.7743  0.4023 -0.1044
  109MOL     C526141   6.596   3.875   3.982 -0.4469  0.0649 -0.1758
  109MOL     O626142   6.704   3.920   4.016  0.4588 -0.3550 -0.1090
  109MOL     H726143   6.450   3.793   3.755 -2.7370  1.3556 -1.7238
  109MOL     H826144   6.576   3.897   3.579  1.9424 -0.7324  0.0218
  109MOL     H926145   6.672   3.853   3.726 -0.9326  0.1003  1.4334
  109MOL    H1026146   6.638   4.026   3.693  1.4450  0.0120  1.3027
  109MOL    H1126147   6.384   3.933   3.953  0.4119  0.0336  2.1767
  109MOL    H1226148   6.505   4.049   3.904 -0.0365  0.2616 -1.8118
  109MOL    H1326149   6.331   3.916   3.623 -1.4256 -1.3903  1.1504
  109MOL    O1426150   6.563   3.744   4.014  0.2634  0.0980  0.1895
  109MOL    C1526151   6.653   3.650   4.075 -0.0362  0.4550  0.3991
  109MOL    C1626152   6.641   3.684   4.224  0.3565 -0.6709 -0.4206
  109MOL    C1726153   6.590   3.512   4.045 -0.4482  0.8456 -0.7408
  109MOL    C1826154   6.688   3.404   4.079 -0.6415 -0.0505 -0.1362
  109MOL    O1926155   6.786   3.381   4.011 -0.1777 -0.7404  0.4807
  109MOL    H2026156   6.753   3.660   4.033 -0.0464  2.1875  0.7556
  109MOL    H2126157   6.696   3.610   4.282  1.9139  0.2510 -0.6958
  109MOL    H2226158   6.535   3.683   4.251  0.3535 -0.8785 -0.4396
  109MOL    H2326159   6.669   3.783   4.259  1.4311 -0.6640 -1.2720
  109MOL    H2426160   6.571   3.487   3.941  1.0999  0.7363 -1.0156
  109MOL    H2526161   6.495   3.488   4.092  0.4433  0.9136  1.1657
  109MOL    O2626162   6.654   3.329   4.189 -0.1826  0.2352 -0.4859
  109MOL    C2726163   6.745   3.224   4.225  0.3357 -1.0510  0.5034
  109MOL    C2826164   6.754   3.248   4.372 -0.6477 -0.0348 -0.0346
  109MOL    C2926165   6.688   3.088   4.182 -0.1084 -0.1598  0.2313
  109MOL    C3026166   6.747   3.030   4.054 -0.0101  0.0563  0.3925
  109MOL    O3126167   6.854   2.960   4.058 -0.1483 -0.0245 -0.3531
  109MOL    H3226168   6.845   3.218   4.181  0.6946  0.2166  1.1300
  109MOL    H3326169   6.650   3.227   4.397 -0.9479  1.6815  0.2533
  109MOL    H3426170   6.794   3.339   4.418 -0.7878 -0.3600  0.7407
  109MOL    H3526171   6.812   3.165   4.412  0.7655  0.4314 -1.0907
  109MOL    H3626172   6.585   3.101   4.149  0.3620  0.8059 -0.9059
  109MOL    H3726173   6.679   3.008   4.255 -2.4123 -0.0130  0.1516
  109MOL    O3826174   6.682   3.069   3.944 -0.6109  0.1066  0.3096
  109MOL    C3926175   6.735   3.037   3.817  0.3565  0.5343  0.4687
  109MOL    C4026176   6.635   2.962   3.725 -0.5374  0.6987  0.0664
  109MOL    C4126177   6.773   3.176   3.758 -0.1716 -0.1973  0.2728
  109MOL    C4226178   6.838   3.169   3.623  0.3621 -0.6293 -0.5785
  109MOL    O4326179   6.780   3.210   3.519  0.5476  1.1441 -0.0831
  109MOL    H4426180   6.825   2.976   3.825 -0.2670 -0.5089 -0.3953
  109MOL    H4526181   6.679   2.932   3.630  0.1309 -3.1319  1.4871
  109MOL    H4626182   6.545   3.021   3.708 -0.3690  1.3221  1.2584
  109MOL    H4726183   6.592   2.875   3.774  0.2782  1.0383  1.4174
  109MOL    H4826184   6.846   3.224   3.823 -1.7995  1.3551  0.9922
  109MOL    H4926185   6.685   3.239   3.764  0.9746  1.4624  0.1449
  109MOL    O5026186   6.961   3.113   3.627 -0.1027  0.0667 -0.0732
  109MOL    C5126187   7.040   3.091   3.511 -0.7714 -0.6918 -0.2375
  109MOL    C5226188   7.141   3.203   3.493 -0.3038  0.4761 -0.8232
  109MOL    C5326189   7.099   2.951   3.525 -0.7991 -0.6007 -0.0627
  109MOL    C5426190   7.014   2.845   3.478 -0.3625 -0.0418 -0.1086
  109MOL    O5526191   6.902   2.860   3.445 -0.6453 -0.3735 -0.0137
  109MOL    H5626192   6.977   3.085   3.423 -0.1696  0.2904 -0.7320
  109MOL    H5726193   7.088   3.298   3.482  0.5594  0.8620 -1.7725
  109MOL    H5826194   7.216   3.191   3.415 -0.5825  1.2442 -1.2233
  109MOL    H5926195   7.194   3.207   3.588 -2.2956  2.7620  0.2648
  109MOL    H6026196   7.127   2.931   3.628 -1.9403 -0.2557  0.3186
  109MOL    H6126197   7.185   2.943   3.458 -0.5724  0.5214  0.0882
  109MOL    O6226198   7.081   2.728   3.479  0.3276  0.0684 -0.1194
  109MOL    C6326199   7.015   2.603   3.470 -0.1794 -0.5492 -0.2687
  109MOL    C6426200   7.101   2.501   3.396  0.7855  0.6092  0.1988
  109MOL    C6526201   6.969   2.570   3.611  0.2010  0.3727  0.0584
  109MOL    C6626202   7.077   2.552   3.724  0.2257  0.2957 -0.3317
  109MOL    O6726203   7.106   2.640   3.805 -0.1427  0.1109 -0.1869
  109MOL    H6826204   6.920   2.614   3.418  0.2888 -0.2184 -1.0638
  109MOL    H6926205   7.136   2.536   3.299 -2.3889 -0.9384 -1.5732
  109MOL    H7026206   7.043   2.409   3.397  0.4878  0.8043  1.8214
  109MOL    H7126207   7.188   2.476   3.458  0.1191 -0.2816  0.7881
  109MOL    H7226208   6.909   2.479   3.617  2.0918 -0.7996  2.0246
  109MOL    H7326209   6.901   2.651   3.637  1.6933  0.9900  2.1407
  109MOL    O7426210   7.128   2.429   3.726  0.1140 -0.4625 -0.2828
  109MOL    C7526211   7.243   2.397   3.804  0.4623 -0.1836 -0.1696
  109MOL    C7626212   7.207   2.291   3.904 -0.7827  0.1052  1.1215
  109MOL    C7726213   7.367   2.378   3.719 -0.5484 -0.2921 -0.0563
  109MOL    C7826214   7.467   2.490   3.730  0.4521 -0.5816  0.7386
  109MOL    O7926215   7.566   2.483   3.807 -0.1243  0.5326 -0.2970
  109MOL    H8026216   7.272   2.483   3.865 -0.1370  0.2569 -0.4916
  109MOL    H8126217   7.118   2.326   3.957 -0.5782  0.4542  1.2347
  109MOL    H8226218   7.288   2.279   3.975  1.2769 -1.4184 -1.4190
  109MOL    H8326219   7.170   2.202   3.853  1.9001 -0.2037 -0.3286
  109MOL    H8426220   7.361   2.373   3.610  2.6806  1.3898 -0.3538
  109MOL    H8526221   7.416   2.285   3.746 -0.5727 -0.6120 -1.0820
  109MOL    O8626222   7.434   2.600   3.654 -0.0096 -0.6874 -1.0183
  109MOL    C8726223   7.530   2.696   3.618 -0.5743  0.2823 -0.0740
  109MOL    C8826224   7.573   2.664   3.479  0.7844  0.6412 -0.2341
  109MOL    C8926225   7.479   2.837   3.628 -0.1753 -0.2475  0.5630
  109MOL    C9026226   7.584   2.940   3.592 -0.2778  0.3730  0.4395
  109MOL    O9126227   7.699   2.909   3.566 -0.0536  0.2026 -0.0606
  109MOL    H9226228   7.623   2.675   3.672 -1.1834 -1.6179  0.2974
  109MOL    H9326229   7.489   2.692   3.416  0.3978 -0.4249 -0.2150
  109MOL    H9426230   7.601   2.559   3.464  1.3235  0.6351  0.7951
  109MOL    H9526231   7.662   2.714   3.441  0.4467 -0.1140 -2.0648
  109MOL    H9626232   7.451   2.857   3.731  0.2174  1.8476  0.2969
  109MOL    H9726233   7.386   2.851   3.571  0.3090  1.0233  0.0517
  109MOL    O9826234   7.530   3.070   3.595  0.0229  0.5365 -0.5340
  109MOL    C9926235   7.615   3.184   3.570  0.1839  0.4527 -0.2287
  109MOL   C10026236   7.528   3.278   3.486  0.2786 -0.6111  0.4137
  109MOL   C10126237   7.653   3.238   3.708  0.0963 -0.4534 -0.1401
  109MOL   C10226238   7.771   3.333   3.704 -1.0081 -0.0085  0.5602
  109MOL   O10326239   7.820   3.389   3.601 -0.4377  0.6478 -0.1003
  109MOL   H10426240   7.712   3.161   3.527  1.0432  3.2610  0.0598
  109MOL   H10526241   7.422   3.293   3.506 -0.1635  0.4082 -2.4830
  109MOL   H10626242   7.521   3.237   3.385  1.4960  0.0068  0.0622
  109MOL   H10726243   7.578   3.375   3.477 -1.5184  0.4004  1.1276
  109MOL   H10826244   7.701   3.158   3.764  2.6303  1.7367  0.9259
  109MOL   H10926245   7.574   3.287   3.764  0.4787 -1.0114  0.8941
  109MOL   O11026246   7.808   3.364   3.827 -0.7094  0.4607  0.0163
  109MOL   C11126247   7.905   3.475   3.836 -0.1885 -0.1261 -0.0934
  109MOL   C11226248   7.829   3.614   3.834  0.4209  0.1022  0.7247
  109MOL   C11326249   7.970   3.444   3.974  0.3948  0.2392  0.6691
  109MOL   C11426250   0.116   3.527   4.014 -0.4394  0.5132  0.1254
  109MOL   O11526251   0.120   3.575   4.125 -0.4103 -0.0934 -0.5075
  109MOL   H11626252   7.978   3.456   3.757 -1.7629  0.9919 -1.8703
  109MOL   H11726253   7.889   3.695   3.876 -0.3991  1.1056 -0.0185
  109MOL   H11826254   7.734   3.604   3.885  0.6389  0.1417  1.1399
  109MOL   H11926255   7.802   3.651   3.735  1.8056 -1.1496 -0.1509
  109MOL   H12026256   0.011   3.337   3.971  1.5815  0.4729  0.2172
  109MOL   H12126257   7.891   3.462   4.047  0.6741 -0.4744  1.1425
  109MOL   O12226258   0.212   3.524   3.916 -0.0601  0.1155  0.5647
  109MOL   C12326259   0.342   3.578   3.943 -0.1935 -0.2404  0.1040
  109MOL   C12426260   0.427   3.476   4.008  0.1767  0.3634 -0.5562
  109MOL   C12526261   0.405   3.604   3.807  0.5329 -0.2841 -0.1543
  109MOL   C12626262   0.519   3.701   3.821  0.1945  0.2376 -0.8440
  109MOL   O12726263   0.641   3.661   3.797  0.4876  0.2522  0.1091
  109MOL   H12826264   0.332   3.670   4.000 -0.5047  0.9014 -1.7461
  109MOL   H12926265   0.369   3.388   4.037  0.5017  0.8907  1.8601
  109MOL   H13026266   0.479   3.514   4.097  3.4082 -4.3160 -0.2884
  109MOL   H13126267   0.497   3.421   3.945 -0.3089 -1.2803  0.3015
  109MOL   H13226268   0.338   3.635   3.727  2.0928 -2.0256 -2.1900
  109MOL   H13326269   0.441   3.510   3.766 -0.0927 -0.0778 -1.2015
  109MOL   O13426270   0.486   3.824   3.856 -0.5625 -0.9025 -0.3694
  109MOL   C13526271   0.584   3.919   3.892  0.2167 -0.1207  0.3102
  109MOL   C13626272   0.569   4.057   3.815  0.3437 -0.1953  0.0481
  109MOL   C13726273   0.594   3.923   4.049  0.1696  0.0100  0.2776
  109MOL   C13826274   0.463   3.962   4.121  0.7718 -0.5630 -0.8871
  109MOL   O13926275   0.387   4.045   4.077 -0.4280 -0.2646  0.3100
  109MOL   H14026276   0.682   3.893   3.850  0.4545 -1.5093  1.6880
  109MOL   H14126277   0.573   4.043   3.707 -0.9621 -1.7889  0.1813
  109MOL   H14226278   0.639   4.133   3.850 -0.1931 -0.2044  1.1700
  109MOL   H14326279   0.469   4.096   3.833  0.8549  1.8920 -1.4259
  109MOL   H14426280   0.672   3.995   4.076 -1.5402  1.7791  0.6532
  109MOL   H14526281   0.632   3.824   4.070 -0.2279 -0.2612 -0.2643
  109MOL   O14626282   0.460   3.916   4.245 -0.0574  0.1379  0.0880
  109MOL   C14726283   0.360   3.959   4.337 -0.0343  0.3915  0.2489
  109MOL   C14826284   0.331   3.830   4.418 -0.3527 -0.0013 -0.4546
  109MOL   C14926285   0.420   4.072   4.425  0.7629  0.2010  0.0197
  109MOL   C15026286   0.312   4.146   4.498  0.1882 -0.4691 -0.1423
  109MOL   O15126287   0.303   4.268   4.485 -0.2599  0.5524 -0.3367
  109MOL   H15226288   0.271   3.990   4.284 -0.2456  1.6930  1.3555
  109MOL   H15326289   0.275   3.845   4.511 -0.1604 -1.1146 -0.1506
  109MOL   H15426290   0.413   3.774   4.464 -0.5526 -1.5387 -1.9081
  109MOL   H15526291   0.286   3.763   4.344  0.6521  1.1207 -2.1007
  109MOL   H15626292   0.474   4.144   4.363  1.0646  2.0121  2.3128
  109MOL   H15726293   0.491   4.032   4.497 -2.9625 -2.8097  2.2262
  109MOL   O15826294   0.243   4.072   4.588 -0.1697 -0.2533  0.0708
  109MOL   C15926295   0.134   4.122   4.661  1.1010 -0.3357 -0.4283
  109MOL   C16026296   0.011   4.111   4.576  1.0944  0.6381 -0.1560
  109MOL   C16126297   0.119   4.039   4.789  0.1464  0.1297 -0.7209
  109MOL   C16226298   0.244   4.022   4.876 -0.0834 -0.6211  1.0116
  109MOL   O16326299   0.343   4.081   4.847  0.3741 -0.1691 -0.5597
  109MOL   H16426300   0.148   4.223   4.699  0.2426 -0.6977  0.8822
  109MOL   H16526301   0.035   4.161   4.483  0.1945  0.0604 -0.7091
  109MOL   H16626302   7.905   4.168   4.613  2.1469  2.9143 -1.1397
  109MOL   H16726303   7.963   4.008   4.554  0.8485  0.3537  1.3933
  109MOL   H16826304   0.096   3.938   4.758  0.7796  0.0493 -0.9387
  109MOL   H16926305   0.041   4.075   4.856 -1.0953 -1.7812 -1.1369
  109MOL   O17026306   0.220   3.950   4.978  0.1582  0.5230 -0.2037
  109MOL   C17126307   0.316   3.907   5.075  0.3395  0.6887  0.2225
  109MOL   C17226308   0.282   3.944   5.223  0.0625  1.0986 -0.3880
  109MOL   C17326309   0.325   3.754   5.068  1.1812  0.1862  0.2108
  109MOL   C17426310   0.356   3.704   4.924 -0.7253 -0.2657  0.5194
  109MOL   O17526311   0.266   3.673   4.843  0.5076  0.2013 -0.1334
  109MOL   H17626312   0.418   3.940   5.054  0.3598 -0.4163 -1.5315
  109MOL   H17726313   0.301   4.051   5.223  1.6473  0.8430  1.3901
  109MOL   H17826314   0.343   3.898   5.301  0.3187  0.5819 -0.8843
  109MOL   H17926315   0.176   3.937   5.246  0.2471  0.3746  0.2726
  109MOL   H18026316   0.237   3.704   5.108 -0.5285  1.3270 -2.0472
  109MOL   H18126317   0.409   3.723   5.130  0.4001 -0.6859  0.8509
  109MOL   O18226318   0.487   3.707   4.893  0.5448  0.3399  0.7833
  109MOL   C18326319   0.538   3.663   4.765 -0.1834  0.1202 -0.0877
  109MOL   C18426320   0.583   3.772   4.676 -0.4124 -0.1432 -0.1536
  109MOL   C18526321   0.639   3.540   4.768 -0.1237  0.0760 -0.5631
  109MOL   C18626322   0.627   3.447   4.654  0.1765 -0.2216 -0.1138
  109MOL   O18726323   0.526   3.380   4.622  0.3002  0.7947  0.4863
  109MOL   H18826324   0.455   3.618   4.712  0.2238 -0.5443 -0.1757
  109MOL   H18926325   0.503   3.846   4.670  0.1830  0.5635  0.5097
  109MOL   H19026326   0.604   3.733   4.576  1.2562  0.1727  0.0654
  109MOL   H19126327   0.672   3.828   4.705  0.0279 -0.8412 -0.1515
  109MOL   H19226328   0.616   3.486   4.859  1.0252 -0.3982 -0.5421
  109MOL   H19326329   0.745   3.565   4.776 -0.0995  0.1392 -1.0481
  109MOL   O19426330   0.738   3.437   4.577 -0.1207 -0.1072  0.1428
  109MOL   C19526331   0.735   3.374   4.445 -0.6099 -0.2379 -0.1174
  109MOL   C19626332   0.680   3.474   4.351  0.5492  0.1785  0.2430
  109MOL   C19726333   0.880   3.335   4.412 -0.1608  0.3806  0.6304
  109MOL   C19826334   0.895   3.283   4.274 -0.7758  0.4281 -0.1342
  109MOL   O19926335   0.967   3.347   4.192 -0.2271  0.0022 -0.1204
  109MOL   H20026336   0.687   3.276   4.449  0.5374 -0.8125 -0.3591
  109MOL   H20126337   0.594   3.525   4.394  0.5063  1.0262 -0.8173
  109MOL   H20226338   0.657   3.430   4.254 -1.6893 -1.7449  1.5971
  109MOL   H20326339   0.758   3.550   4.341 -0.7438  1.5296  0.2725
  109MOL   H20426340   0.920   3.273   4.493 -2.2256 -2.0961 -0.1713
  109MOL   H20526341   0.932   3.430   4.423  1.5885 -0.5285  0.3428
  109MOL   O20626342   0.836   3.165   4.258  0.1118  0.1489  0.3067
  109MOL   C20726343   0.860   3.091   4.136  0.2239  0.0433  0.1987
  109MOL   C20826344   0.970   2.991   4.153 -0.0928 -0.2279 -0.1501
  109MOL   C20926345   0.726   3.027   4.091 -0.1141 -0.9108  0.3836
  109MOL   C21026346   0.644   3.121   4.010  0.2384 -0.0470 -0.4565
  109MOL   O21126347   0.585   3.212   4.058  0.2265  0.2074  0.4426
  109MOL   H21226348   0.894   3.154   4.055 -0.1889  0.0372  0.0201
  109MOL   H21326349   1.071   3.027   4.134  0.4902 -1.1125  1.1711
  109MOL   H21426350   0.966   2.903   4.088  1.2555  0.3143 -0.9680
  109MOL   H21526351   0.978   2.962   4.258  1.9252 -1.2479 -0.5602
  109MOL   H21626352   0.652   2.998   4.166  0.9574 -2.5453  0.8415
  109MOL   H21726353   0.743   2.942   4.024  2.0030 -1.7786  1.9407
  109MOL   O21826354   0.633   3.090   3.885 -0.5312  0.3337  0.1127
  109MOL   C21926355   0.530   3.152   3.800 -0.1883 -0.2463  0.0854
  109MOL   C22026356   0.593   3.185   3.662 -0.0918  0.3706  0.2549
  109MOL   C22126357   0.395   3.073   3.789  0.2953 -0.4378 -0.2609
  109MOL   C22226358   0.280   3.166   3.765 -0.2601 -0.3627  0.2047
  109MOL   O22326359   0.224   3.232   3.852 -0.2719 -0.0625 -0.2892
  109MOL   H22426360   0.510   3.247   3.849  0.6033 -0.1721  0.2811
  109MOL   H22526361   0.617   3.100   3.598 -0.1804  0.9584 -0.5775
  109MOL   H22626362   0.685   3.241   3.675  1.1285 -1.0610 -1.7915
  109MOL   H22726363   0.527   3.250   3.603 -0.4645  1.2012  1.5755
  109MOL   H22826364   0.383   3.022   3.884  1.4639 -0.4224 -0.0933
  109MOL   H22926365   0.401   2.997   3.710 -1.8654 -0.3383 -0.5572
  109MOL   O23026366   0.244   3.162   3.628  0.1790  0.9529  0.5040
  109MOL   C23126367   0.148   3.251   3.574  0.1166 -0.1898 -0.3478
  109MOL   C23226368   0.212   3.383   3.509  0.2770  0.0287 -0.1242
  109MOL   C23326369   0.054   3.166   3.486 -0.1715 -0.1456  0.4646
  109MOL   C23426370   0.111   3.123   3.342  0.4694  0.8076  0.1688
  109MOL   O23526371   0.059   3.027   3.279 -0.3889 -0.4814  0.1272
  109MOL   H23626372   0.078   3.283   3.651  0.2725 -0.8019  0.0523
  109MOL   H23726373   0.284   3.356   3.431  0.3468 -3.4976  1.0746
  109MOL   H23826374   0.276   3.439   3.577  0.0075 -0.7715  0.7897
  109MOL   H23926375   0.127   3.437   3.467  1.6261 -0.1117 -3.2059
  109MOL   H24026376   7.934   3.209   3.477  0.4964  1.3791  0.1246
  109MOL   H24126377   0.042   3.075   3.545 -0.7859 -0.1157  0.3896
  109MOL   H24226378   0.196   3.171   3.295  1.4555 -1.2335 -0.2180
  110MOL     O126379   5.267   7.587   5.271 -0.0308 -0.8416 -0.2237
  110MOL     C226380   5.139   7.570   5.218  0.7901  0.0307 -0.3848
  110MOL     C326381   5.064   7.492   5.329  0.1629  0.1550  0.3352
  110MOL     C426382   5.092   7.714   5.190  0.2878  0.4243 -0.2956
  110MOL     C526383   4.967   7.717   5.102  0.2280  0.6390 -0.4831
  110MOL     O626384   4.923   7.616   5.055 -0.1793 -0.3836 -0.4684
  110MOL     H726385   5.140   7.502   5.133  0.2408 -3.0076  1.9800
  110MOL     H826386   4.966   7.464   5.291  0.1945 -0.6351  0.8291
  110MOL     H926387   5.043   7.558   5.413  0.6314 -1.1263  1.4657
  110MOL    H1026388   5.118   7.404   5.363 -0.2531 -0.9290 -1.7153
  110MOL    H1126389   5.167   7.777   5.142  1.7074 -0.9930  0.0400
  110MOL    H1226390   5.069   7.761   5.286 -0.4559  2.2996 -1.3721
  110MOL    H1326391   5.316   7.510   5.247  1.4432  0.9358 -3.1464
  110MOL    O1426392   4.921   7.844   5.084 -0.5549 -0.6019  0.3483
  110MOL    C1526393   4.810   7.877   4.995 -0.7172 -0.5504 -0.7762
  110MOL    C1626394   4.711   7.945   5.090 -0.2478  0.0192  0.2648
  110MOL    C1726395   4.847   7.976   4.885  0.7724  0.0324 -0.4095
  110MOL    C1826396   4.919   7.915   4.768  0.4034  0.4897 -0.3146
  110MOL    O1926397   4.944   7.798   4.762  0.2750 -0.1297 -0.0096
  110MOL    H2026398   4.776   7.780   4.957  1.7355 -2.1515  1.0321
  110MOL    H2126399   4.696   7.866   5.164  0.0784 -1.1942 -0.9410
  110MOL    H2226400   4.618   7.969   5.037  0.7783  1.3102 -1.0050
  110MOL    H2326401   4.743   0.059   5.136 -2.3481  0.4382  0.9488
  110MOL    H2426402   4.912   0.079   4.915  0.0623  0.4039  0.1311
  110MOL    H2526403   4.749   0.028   4.850 -0.7080 -3.7343  0.0493
  110MOL    O2626404   4.943   0.028   4.677  0.3632  0.1080  0.2147
  110MOL    C2726405   5.027   0.004   4.558  0.5490 -0.2497 -0.2705
  110MOL    C2826406   4.945   7.964   4.430  0.6850  0.2333  0.2086
  110MOL    C2926407   5.122   0.123   4.542 -0.8179 -0.1885  0.6504
  110MOL    C3026408   5.247   0.118   4.629  0.1230 -0.4349  0.0796
  110MOL    O3126409   5.359   0.135   4.595  0.4320  0.2536  0.3483
  110MOL    H3226410   5.086   7.893   4.565 -0.1237 -0.5193  2.4606
  110MOL    H3326411   4.873   7.884   4.411  0.4853  0.5250 -0.2941
  110MOL    H3426412   5.015   7.961   4.346  1.1604  0.9889  0.5788
  110MOL    H3526413   4.889   0.076   4.410 -0.2806 -0.3975 -0.0675
  110MOL    H3626414   5.074   0.217   4.571 -1.0633 -0.2230  0.3589
  110MOL    H3726415   5.150   0.134   4.437 -0.1453 -1.9191  0.6269
  110MOL    O3826416   5.207   0.099   4.761 -0.2516 -0.1178  0.0776
  110MOL    C3926417   5.300   0.104   4.872  0.5547 -0.0939 -0.5242
  110MOL    C4026418   5.241   0.169   5.002 -0.2325 -0.5756  0.0032
  110MOL    C4126419   5.346   7.938   4.892 -0.2180 -0.0523 -0.2928
  110MOL    C4226420   5.476   7.933   4.969  0.6596  0.5715 -0.1956
  110MOL    O4326421   5.575   7.881   4.920 -0.4005  0.3833 -0.1102
  110MOL    H4426422   5.389   0.155   4.836  0.1923  0.4834 -0.6239
  110MOL    H4526423   5.164   0.117   5.059 -1.8675  1.3870 -0.3387
  110MOL    H4626424   5.201   0.268   4.979  1.7045 -0.0769 -1.3076
  110MOL    H4726425   5.329   0.185   5.064  0.8264  0.7292 -1.7784
  110MOL    H4826426   5.371   7.896   4.795 -0.0012  1.6604 -0.9934
  110MOL    H4926427   5.269   7.882   4.945  1.9794 -2.9612 -0.0103
  110MOL    O5026428   5.464   7.975   5.100  0.2716  0.4500  0.3420
  110MOL    C5126429   5.570   7.976   5.187  0.4823  0.5224 -0.1371
  110MOL    C5226430   5.591   0.137   5.227 -0.0522 -0.6763  0.5125
  110MOL    C5326431   5.527   7.882   5.301 -0.5855 -0.1187 -0.4038
  110MOL    C5426432   5.623   7.855   5.416 -0.0062 -0.2000 -0.5508
  110MOL    O5526433   5.637   7.920   5.521 -0.0741 -1.1640 -0.1242
  110MOL    H5626434   5.660   7.940   5.138  0.5474 -0.0053  0.3639
  110MOL    H5726435   5.659   0.142   5.312  2.5326 -0.6502 -1.4945
  110MOL    H5826436   5.492   0.178   5.246 -0.4430 -1.2052 -0.3850
  110MOL    H5926437   5.643   0.184   5.144 -2.3162  0.2324 -0.4209
  110MOL    H6026438   5.487   7.786   5.268 -2.3056  0.4897 -0.1350
  110MOL    H6126439   5.443   7.934   5.345  2.5419  1.8238  3.6165
  110MOL    O6226440   5.693   7.739   5.378  0.3889  0.0021  0.4254
  110MOL    C6326441   5.789   7.680   5.464 -0.1889  0.2824  0.8461
  110MOL    C6426442   5.751   7.532   5.480 -0.1719 -0.5594  0.3372
  110MOL    C6526443   5.926   7.707   5.406  0.2570 -0.8760  0.2460
  110MOL    C6626444   6.054   7.666   5.487 -0.2027  0.0958 -0.2896
  110MOL    O6726445   6.151   7.743   5.508 -0.9124 -0.0558 -0.1753
  110MOL    H6826446   5.796   7.728   5.562 -0.3299 -1.6323  1.8200
  110MOL    H6926447   5.813   7.484   5.556 -0.1144  0.4966  0.9602
  110MOL    H7026448   5.765   7.485   5.383 -0.7728 -0.0702  0.0160
  110MOL    H7126449   5.647   7.517   5.509 -0.9819  0.5910 -1.8988
  110MOL    H7226450   5.948   7.813   5.391  0.1303 -1.1222 -1.7767
  110MOL    H7326451   5.928   7.670   5.304 -3.2237  0.3540 -0.3283
  110MOL    O7426452   6.044   7.535   5.522 -0.4058  0.0315 -0.5026
  110MOL    C7526453   6.131   7.478   5.618  0.4992 -0.3005  0.0233
  110MOL    C7626454   6.083   7.505   5.761  0.5170  0.1499 -0.4376
  110MOL    C7726455   6.147   7.327   5.585  0.5580 -0.3725  0.5549
  110MOL    C7826456   6.021   7.239   5.564 -0.0362 -0.2320 -0.2379
  110MOL    O7926457   5.969   7.200   5.669 -0.0165 -0.0569 -0.0136
  110MOL    H8026458   6.223   7.531   5.592  0.8464 -0.7988  0.2392
  110MOL    H8126459   6.098   7.611   5.782  1.3781  0.0732 -0.6610
  110MOL    H8226460   6.137   7.431   5.819 -1.3189 -0.4361  0.5604
  110MOL    H8326461   5.979   7.473   5.773  0.0654  0.7514 -2.4807
  110MOL    H8426462   6.216   7.262   5.640  0.9083 -0.3001  0.2045
  110MOL    H8526463   6.181   7.333   5.481 -1.0618 -0.6133 -0.0024
  110MOL    O8626464   5.988   7.223   5.437  0.0039  0.4697 -0.0399
  110MOL    C8726465   5.878   7.143   5.391 -0.3245  0.0976 -0.6128
  110MOL    C8826466   5.820   7.211   5.263 -0.5895 -0.0805 -0.0638
  110MOL    C8926467   5.916   6.993   5.375 -0.3320 -0.3769  0.1942
  110MOL    C9026468   6.009   6.972   5.258  0.0283  0.1843 -0.7221
  110MOL    O9126469   6.129   6.980   5.277  0.0202 -0.2657 -0.0617
  110MOL    H9226470   5.797   7.154   5.463 -2.7073 -0.6671 -3.0676
  110MOL    H9326471   5.724   7.171   5.230  0.2116 -0.9769 -1.3270
  110MOL    H9426472   5.887   7.224   5.178 -2.5393  1.1746 -1.4664
  110MOL    H9526473   5.803   7.313   5.298 -0.4864 -0.4682  1.1423
  110MOL    H9626474   5.832   6.924   5.369  0.6987 -1.5498 -1.2588
  110MOL    H9726475   5.975   6.962   5.462  2.1121  2.8233 -0.2305
  110MOL    O9826476   5.948   6.957   5.139  0.5525 -0.0161  0.1581
  110MOL    C9926477   6.025   6.926   5.026 -0.2126  0.6122  0.5366
  110MOL   C10026478   5.982   6.787   4.967  0.1023  0.0657 -0.0660
  110MOL   C10126479   6.009   7.040   4.917 -0.0182  1.1241 -0.3844
  110MOL   C10226480   6.089   7.176   4.947  0.6547 -0.3953  0.4997
  110MOL   O10326481   6.036   7.288   4.928  0.2756  0.6515  1.1375
  110MOL   H10426482   6.132   6.920   5.046 -0.4604 -0.2306  1.6388
  110MOL   H10526483   6.011   6.793   4.862  2.6435  2.8432  0.7214
  110MOL   H10626484   5.874   6.783   4.976  0.1169  0.9441  0.6737
  110MOL   H10726485   6.020   6.702   5.023  0.3872 -0.3520 -0.8786
  110MOL   H10826486   5.903   7.048   4.892 -0.4922  2.4370  1.8992
  110MOL   H10926487   6.062   7.006   4.828  0.9021  0.6865  0.3232
  110MOL   O11026488   6.201   7.158   5.009 -0.1229  0.4088  0.7809
  110MOL   C11126489   6.263   7.270   5.084 -0.0743  0.8594  0.2433
  110MOL   C11226490   6.224   7.260   5.232  0.0215 -0.2725 -0.7598
  110MOL   C11326491   6.413   7.257   5.062  0.2414 -0.4444 -1.2320
  110MOL   C11426492   6.494   7.378   5.114  0.6014  0.9578 -0.2413
  110MOL   O11526493   6.614   7.369   5.155 -0.1405 -0.0554  0.0508
  110MOL   H11626494   6.229   7.364   5.039 -1.5886 -0.1306 -0.7192
  110MOL   H11726495   6.252   7.352   5.284  0.5757 -1.0547  0.3495
  110MOL   H11826496   6.279   7.182   5.286  2.7846  1.9242 -0.2563
  110MOL   H11926497   6.116   7.255   5.235 -0.0395  0.3755 -1.6994
  110MOL   H12026498   6.437   7.255   4.956  0.3869  0.1403 -1.2126
  110MOL   H12126499   6.453   7.171   5.117  0.6008 -0.6350 -1.7842
  110MOL   O12226500   6.421   7.487   5.119  0.1738 -0.0611 -0.1826
  110MOL   C12326501   6.471   7.604   5.187 -0.0517 -0.2450  0.9926
  110MOL   C12426502   6.469   7.719   5.087  0.1739 -0.5570 -0.0207
  110MOL   C12526503   6.398   7.651   5.306 -0.1597  0.3075  0.3651
  110MOL   C12626504   6.468   7.616   5.436 -0.2020  0.4835 -0.2147
  110MOL   O12726505   6.530   7.692   5.508 -0.6116 -0.0097 -0.2217
  110MOL   H12826506   6.577   7.590   5.206  0.3978  1.8462  0.2245
  110MOL   H12926507   6.534   7.701   5.001  1.5327 -2.0116  1.2652
  110MOL   H13026508   6.497   7.818   5.123  0.3937 -0.6844  0.1634
  110MOL   H13126509   6.371   7.726   5.040  0.6237  0.3246 -0.8432
  110MOL   H13226510   6.308   7.591   5.323  0.0609 -0.6703 -1.8106
  110MOL   H13326511   6.365   7.755   5.303  0.5734  0.6219  2.1185
  110MOL   O13426512   6.477   7.483   5.448  0.2115  0.2443 -0.5021
  110MOL   C13526513   6.560   7.428   5.547  0.0845  0.2225  0.1146
  110MOL   C13626514   6.510   7.292   5.604 -1.1017 -0.4899  0.1157
  110MOL   C13726515   6.694   7.392   5.471  0.0145  0.1231  0.3485
  110MOL   C13826516   6.812   7.374   5.565 -0.1183 -0.5291  0.0144
  110MOL   O13926517   6.827   7.444   5.670 -0.4367  0.1475  0.0008
  110MOL   H14026518   6.592   7.487   5.632 -0.9565  1.1002 -0.0910
  110MOL   H14126519   6.472   7.227   5.525 -2.3975  1.2805 -0.7359
  110MOL   H14226520   6.429   7.321   5.671 -0.9095 -0.7930  0.4827
  110MOL   H14326521   6.575   7.246   5.678 -0.0733  0.2524 -0.3174
  110MOL   H14426522   6.711   7.459   5.387  2.0497  0.2630  0.8452
  110MOL   H14526523   6.671   7.293   5.431 -0.9887 -0.0231  1.2789
  110MOL   O14626524   6.893   7.281   5.524 -0.4820 -0.0362 -0.8810
  110MOL   C14726525   7.013   7.265   5.600  0.4244  0.0396  0.2304
  110MOL   C14826526   6.997   7.208   5.742  0.0399  0.2919  0.2505
  110MOL   C14926527   7.110   7.184   5.519 -0.0151  0.1636  0.0688
  110MOL   C15026528   7.257   7.209   5.572 -0.0594  0.1756 -0.1522
  110MOL   O15126529   7.311   7.122   5.641  0.5568 -0.4097  0.1455
  110MOL   H15226530   7.062   7.357   5.632  1.6600  0.1888 -2.0162
  110MOL   H15326531   6.924   7.127   5.747  1.5601 -1.2313 -1.4071
  110MOL   H15426532   6.959   7.279   5.815 -0.9015  2.2978 -2.1243
  110MOL   H15526533   7.088   7.170   5.788 -0.0728  1.3639  1.3831
  110MOL   H15626534   7.127   7.219   5.417 -2.0642  1.2339  0.0533
  110MOL   H15726535   7.069   7.083   5.510 -0.8711  0.6044 -1.2911
  110MOL   O15826536   7.311   7.333   5.543  1.0783  0.3044 -0.4786
  110MOL   C15926537   7.420   7.382   5.625  0.9128  0.2164  0.3240
  110MOL   C16026538   7.507   7.470   5.534 -0.0344 -0.1498  1.0358
  110MOL   C16126539   7.362   7.442   5.747 -0.1678  0.2602  0.3060
  110MOL   C16226540   7.473   7.490   5.838  0.3410 -0.5031 -0.2617
  110MOL   O16326541   7.517   7.419   5.930  0.5045 -0.9115 -0.0745
  110MOL   H16426542   7.478   7.295   5.655  0.2117  0.4245  2.3089
  110MOL   H16526543   7.453   7.559   5.503 -0.3241 -0.0742  1.7517
  110MOL   H16626544   7.540   7.409   5.450  0.9095 -0.5771  1.7071
  110MOL   H16726545   7.596   7.488   5.595  1.1033  2.0448 -1.2097
  110MOL   H16826546   7.300   7.371   5.801  2.1605 -1.7696  0.3978
  110MOL   H16926547   7.303   7.531   5.722  0.3752  1.1383  2.1197
  110MOL   O17026548   7.508   7.616   5.817  0.4444 -0.3355 -0.3061
  110MOL   C17126549   7.599   7.690   5.883 -1.1301 -0.8421  0.0033
  110MOL   C17226550   7.727   7.686   5.798 -0.0626  0.1775 -0.6977
  110MOL   C17326551   7.525   7.829   5.871 -0.1361 -0.3397 -0.0167
  110MOL   C17426552   7.599   7.945   5.930  0.1387 -0.5865 -0.9322
  110MOL   O17526553   7.700   7.936   5.994 -0.5024  0.2358 -0.2431
  110MOL   H17626554   7.616   7.662   5.987 -2.1501  2.5865  1.1653
  110MOL   H17726555   7.705   7.700   5.692 -0.2964  1.1913 -0.5200
  110MOL   H17826556   7.796   7.605   5.820 -1.3687 -1.4072 -2.2509
  110MOL   H17926557   7.790   7.769   5.826  1.3109 -0.7403 -1.0069
  110MOL   H18026558   7.428   7.828   5.920  0.5296 -1.3457  1.3168
  110MOL   H18126559   7.501   7.846   5.766 -1.1524 -1.8002 -0.0453
  110MOL   O18226560   7.533   0.081   5.903 -0.4032 -0.1513  0.0725
  110MOL   C18326561   7.571   0.212   5.961  0.9611 -0.3478 -0.2782
  110MOL   C18426562   7.501   0.314   5.869  0.4125  0.6143  0.2378
  110MOL   C18526563   7.533   0.224   6.114  0.4004 -0.5113  0.1800
  110MOL   C18626564   7.604   0.337   6.195  0.3102  0.7063 -0.3687
  110MOL   O18726565   7.647   0.313   6.309 -0.0791  0.6770  0.5476
  110MOL   H18826566   7.678   0.222   5.941  0.9254 -0.2813 -0.4330
  110MOL   H18926567   7.469   0.266   5.777  1.4588 -0.6225  0.5148
  110MOL   H19026568   7.570   0.398   5.861  1.4561 -0.3204 -0.7231
  110MOL   H19126569   7.408   0.353   5.911 -0.5312  0.8213 -1.9808
  110MOL   H19226570   7.566   0.127   6.153  3.5828 -0.2829 -1.7460
  110MOL   H19326571   7.427   0.216   6.136 -0.1806  1.4385 -1.7216
  110MOL   O19426572   7.593   0.458   6.136  0.2254 -0.2289  0.2560
  110MOL   C19526573   7.641   0.576   6.195 -0.4382  0.1036  0.1436
  110MOL   C19626574   7.792   0.594   6.172  0.1428  0.2336  0.5627
  110MOL   C19726575   7.545   0.686   6.142 -0.0382  0.0101  0.2300
  110MOL   C19826576   7.567   0.721   6.001  0.0207  0.0578  0.6193
  110MOL   O19926577   7.494   0.681   5.907 -0.4017  0.0544  0.5649
  110MOL   H20026578   7.616   0.583   6.301 -2.8672 -0.9157 -0.3328
  110MOL   H20126579   7.851   0.517   6.222 -0.1447 -0.0246  0.5060
  110MOL   H20226580   7.825   0.695   6.199  0.7350  0.7370 -1.9007
  110MOL   H20326581   7.809   0.583   6.065 -0.1803 -0.3703  0.5744
  110MOL   H20426582   7.564   0.779   6.195 -3.4895  0.9422 -0.0054
  110MOL   H20526583   7.443   0.665   6.175  0.0028  0.1793  0.4658
  110MOL   O20626584   7.674   0.798   5.983  0.1449 -0.2093 -0.1381
  110MOL   C20726585   7.711   0.843   5.855 -0.4882 -0.5258  0.4192
  110MOL   C20826586   7.744   0.996   5.877 -0.1404  0.0833  0.2257
  110MOL   C20926587   7.827   0.751   5.813 -0.2349 -0.0568 -0.3960
  110MOL   C21026588   7.949   0.798   5.893 -0.2002  0.7607  0.5981
  110MOL   O21126589   0.003   0.738   5.997  0.2874 -0.3008  0.3945
  110MOL   H21226590   7.632   0.844   5.779 -0.8682  1.2704  0.8145
  110MOL   H21326591   7.804   1.024   5.964 -0.6356  2.3859 -0.1279
  110MOL   H21426592   7.654   1.058   5.879  0.3683  0.8098  1.5232
  110MOL   H21526593   7.799   1.037   5.792  1.1031 -0.9447  0.5270
  110MOL   H21626594   7.849   0.763   5.707  1.0195  1.8441  0.0563
  110MOL   H21726595   7.795   0.647   5.824  0.4536 -0.0037  2.4767
  110MOL   O21826596   0.038   0.897   5.838  1.2578  0.0229 -0.3784
  110MOL   C21926597   0.148   0.953   5.914  0.1613 -0.2273  0.2019
  110MOL   C22026598   0.277   0.950   5.825 -0.9681 -0.4363  0.1131
  110MOL   C22126599   0.121   1.088   5.981  0.2877 -0.3454 -0.2465
  110MOL   C22226600   0.103   1.207   5.881  0.3288 -0.1233 -0.5499
  110MOL   O22326601   0.197   1.281   5.853 -0.2272  0.6887  0.5064
  110MOL   H22426602   0.169   0.888   5.999  0.5753  0.8639  0.9444
  110MOL   H22526603   0.303   0.847   5.801  0.7213 -0.1328  0.6019
  110MOL   H22626604   0.364   0.987   5.878 -2.1432  2.1272  0.3235
  110MOL   H22726605   0.258   0.999   5.730 -1.6939  0.4835  0.7207
  110MOL   H22826606   0.197   1.114   6.054 -2.2264  0.1882  2.2790
  110MOL   H22926607   0.032   1.089   6.044  1.4556  1.6146  1.4535
  110MOL   O23026608   7.966   1.213   5.821 -0.4138  0.5578  0.2419
  110MOL   C23126609   7.933   1.329   5.737  0.3067  0.5674 -0.5346
  110MOL   C23226610   7.818   1.280   5.642 -0.2750 -0.0432  0.2787
  110MOL   C23326611   7.892   1.453   5.812 -0.0774  0.7626 -0.3820
  110MOL   C23426612   7.859   1.574   5.724  0.2840 -0.0445  0.8101
  110MOL   O23526613   7.841   1.677   5.778  0.3056  0.6082 -0.3240
  110MOL   H23626614   0.045   1.354   5.683 -0.3818  0.5691 -1.7242
  110MOL   H23726615   7.717   1.256   5.675 -0.2771 -0.7183 -0.2045
  110MOL   H23826616   7.864   1.198   5.585  0.9626  1.6718 -1.2537
  110MOL   H23926617   7.797   1.342   5.555 -0.5520  1.8786  1.6867
  110MOL   H24026618   7.975   1.483   5.877 -0.0068  0.3134 -0.2595
  110MOL   H24126619   7.805   1.431   5.873 -1.1503  1.6385 -1.5601
  110MOL   H24226620   7.849   1.557   5.616 -1.8608  0.9266  0.8302
  111MOL     O126621   2.599   1.871   0.316 -0.2589 -0.0361  0.1381
  111MOL     C226622   2.627   1.787   0.207 -0.4441 -0.5517 -0.5202
  111MOL     C326623   2.615   1.641   0.241 -0.5184 -0.0949  0.1201
  111MOL     C426624   2.536   1.830   0.086 -0.2177 -0.0533 -0.3689
  111MOL     C526625   2.589   1.782   7.921 -0.0964  0.3493 -0.3089
  111MOL     O626626   2.677   1.699   7.906 -0.1089 -0.0878 -0.0526
  111MOL     H726627   2.733   1.795   0.184 -0.6668 -2.1772 -2.3048
  111MOL     H826628   2.525   1.625   0.300 -0.0479 -0.6376  0.7151
  111MOL     H926629   2.694   1.608   0.310  0.3209  1.5951 -0.0119
  111MOL    H1026630   2.620   1.577   0.153  1.7059  1.8684 -1.2179
  111MOL    H1126631   2.522   1.938   0.085 -0.8078 -0.1272 -1.2062
  111MOL    H1226632   2.436   1.795   0.109 -0.5027  1.6664  1.1434
  111MOL    H1326633   2.673   1.862   0.373  1.3822 -0.9335 -2.0487
  111MOL    O1426634   2.534   1.862   7.822 -0.2257  0.3401 -0.3117
  111MOL    C1526635   2.569   1.840   7.692 -0.1858 -0.6556  0.0348
  111MOL    C1626636   2.501   1.718   7.628 -0.2839 -0.0171 -0.1105
  111MOL    C1726637   2.539   1.974   7.612  0.0064  0.2400 -0.3888
  111MOL    C1826638   2.396   2.018   7.596  1.0605 -1.2041 -0.4382
  111MOL    O1926639   2.303   1.944   7.602  0.0606 -0.0187  0.4500
  111MOL    H2026640   2.676   1.832   7.672 -0.4761 -0.7631 -1.5777
  111MOL    H2126641   2.393   1.720   7.647 -0.1974  2.5475  0.3194
  111MOL    H2226642   2.546   1.629   7.672  3.1875  0.5203 -2.3349
  111MOL    H2326643   2.517   1.715   7.520 -0.3645  1.2899 -0.1684
  111MOL    H2426644   2.575   1.953   7.511  2.2708 -2.5394  0.9081
  111MOL    H2526645   2.605   2.053   7.649 -1.5596  1.4948 -0.2096
  111MOL    O2626646   2.390   2.150   7.564  0.0470 -0.2674 -0.3455
  111MOL    C2726647   2.273   2.222   7.546 -0.4576  0.2557  0.2768
  111MOL    C2826648   2.241   2.296   7.677  0.7015 -0.2869 -0.0013
  111MOL    C2926649   2.297   2.326   7.428 -0.2254  0.1334 -0.3021
  111MOL    C3026650   2.171   2.367   7.353  0.4845 -0.1382  0.3431
  111MOL    O3126651   2.062   2.381   7.409 -0.1138 -0.2280 -0.0023
  111MOL    H3226652   2.188   2.157   7.525 -0.0225 -0.1488 -0.2274
  111MOL    H3326653   2.325   2.332   7.736 -0.7759  1.4198  1.1389
  111MOL    H3426654   2.190   2.235   7.751  0.0296  1.0423  0.6447
  111MOL    H3526655   2.174   2.381   7.662 -0.9692 -1.5039  0.3496
  111MOL    H3626656   2.366   2.282   7.356  1.8169  0.6996  1.2559
  111MOL    H3726657   2.351   2.412   7.467  1.0971 -0.4750 -0.7692
  111MOL    O3826658   2.197   2.399   7.220  0.4536  0.4642 -0.0801
  111MOL    C3926659   2.094   2.433   7.132  0.0502 -1.0526 -0.0080
  111MOL    C4026660   2.104   2.586   7.105  0.1362  1.2088  0.1726
  111MOL    C4126661   2.117   2.349   6.996 -0.0880 -0.0304  0.3811
  111MOL    C4226662   1.993   2.316   6.923  0.7677  0.3926 -0.0892
  111MOL    O4326663   1.931   2.211   6.938  0.5285 -0.0133 -0.1722
  111MOL    H4426664   1.996   2.417   7.177  0.6497  0.3663  1.8538
  111MOL    H4526665   2.192   2.611   7.047 -0.1026  0.7382 -0.3919
  111MOL    H4626666   2.115   2.640   7.200 -2.1300  0.3930  0.9467
  111MOL    H4726667   2.018   2.628   7.052  0.1187  0.6532 -0.2311
  111MOL    H4826668   2.152   2.246   7.003  0.9088  0.4608  3.0664
  111MOL    H4926669   2.190   2.403   6.936  0.4360 -2.0069 -0.8010
  111MOL    O5026670   1.947   2.420   6.839  0.3846  0.3821 -0.0523
  111MOL    C5126671   1.830   2.402   6.766  0.3077 -0.0555  0.3758
  111MOL    C5226672   1.722   2.464   6.842 -0.4100  0.6239 -0.2225
  111MOL    C5326673   1.850   2.468   6.632  0.1849  1.0774  1.0110
  111MOL    C5426674   1.767   2.404   6.518  1.0723  0.5484  0.0623
  111MOL    O5526675   1.823   2.345   6.422 -0.1843 -0.1893 -0.4016
  111MOL    H5626676   1.801   2.298   6.751 -0.2876 -0.0228  1.2729
  111MOL    H5726677   1.686   2.404   6.926 -1.9058 -0.9828 -1.9809
  111MOL    H5826678   1.637   2.479   6.775  1.3663  4.2951 -1.8328
  111MOL    H5926679   1.744   2.567   6.871  1.1167  0.4472 -0.7282
  111MOL    H6026680   1.953   2.444   6.605 -0.5925 -0.9210 -0.2706
  111MOL    H6126681   1.834   2.576   6.631  1.5577  1.2994 -0.8827
  111MOL    O6226682   1.629   2.412   6.546  0.2813 -0.5827  0.5149
  111MOL    C6326683   1.535   2.350   6.455 -0.5279 -0.7174 -0.1155
  111MOL    C6426684   1.411   2.301   6.535 -0.2879 -0.0540 -0.0803
  111MOL    C6526685   1.510   2.466   6.350  0.1429 -0.2184  0.1278
  111MOL    C6626686   1.409   2.435   6.244 -0.1276 -0.1750 -0.1274
  111MOL    O6726687   1.438   2.384   6.135  0.0443 -0.3588  0.1921
  111MOL    H6826688   1.584   2.276   6.392  2.8201  2.9690 -2.0234
  111MOL    H6926689   1.348   2.247   6.465 -1.7613 -0.7550  1.7440
  111MOL    H7026690   1.358   2.385   6.582 -1.4484 -0.9212  0.1889
  111MOL    H7126691   1.442   2.236   6.617  0.4908  0.1158 -0.2341
  111MOL    H7226692   1.606   2.482   6.302  0.1121  1.8137  0.6640
  111MOL    H7326693   1.487   2.558   6.405 -0.8740 -0.4186  0.0417
  111MOL    O7426694   1.286   2.477   6.283 -0.0635 -0.6227  0.0943
  111MOL    C7526695   1.174   2.477   6.185  0.3735  0.1511  0.1606
  111MOL    C7626696   1.098   2.347   6.223 -0.6595 -0.4052 -0.0263
  111MOL    C7726697   1.083   2.605   6.202 -0.2879  0.4501  0.8201
  111MOL    C7826698   1.149   2.731   6.160  0.1425  0.3626 -0.1279
  111MOL    O7926699   1.188   2.807   6.248 -0.2215  0.1313  0.5300
  111MOL    H8026700   1.217   2.468   6.086  0.8099  0.8517  0.2855
  111MOL    H8126701   0.997   2.344   6.182 -0.2948  0.5499 -1.0209
  111MOL    H8226702   1.078   2.330   6.329  1.3139 -0.3941  0.3554
  111MOL    H8326703   1.160   2.266   6.186 -0.5356 -1.3400  2.1564
  111MOL    H8426704   1.046   2.614   6.304  0.0671 -1.5461  1.1433
  111MOL    H8526705   0.993   2.604   6.139  1.2400 -0.0429 -1.4155
  111MOL    O8626706   1.170   2.733   6.027  0.8924  0.0498 -0.3871
  111MOL    C8726707   1.237   2.847   5.966 -0.2060  0.1109  0.1967
  111MOL    C8826708   1.392   2.848   5.990  0.4250  0.5334  0.2753
  111MOL    C8926709   1.193   2.852   5.822 -0.4448  0.1914  0.2024
  111MOL    C9026710   1.207   2.726   5.733 -0.0625 -0.4189  0.3527
  111MOL    O9126711   1.103   2.661   5.715 -0.7290  0.2959  0.4550
  111MOL    H9226712   1.196   2.937   6.014  0.6906 -0.8806  2.9295
  111MOL    H9326713   1.441   2.756   5.960 -0.8930 -0.7676  2.0423
  111MOL    H9426714   1.410   2.853   6.098  2.2330  1.4506 -0.0493
  111MOL    H9526715   1.440   2.938   5.950 -0.3348  0.7946 -0.0504
  111MOL    H9626716   1.247   2.931   5.769 -0.6814 -0.6306 -1.2673
  111MOL    H9726717   1.088   2.879   5.829 -0.4176 -0.4575  4.1713
  111MOL    O9826718   1.334   2.690   5.701  0.0901 -0.2711  0.2405
  111MOL    C9926719   1.368   2.555   5.692 -0.4346  0.2059  0.5725
  111MOL   C10026720   1.448   2.541   5.557  0.9359 -0.8096 -0.2596
  111MOL   C10126721   1.445   2.515   5.817 -0.5077  0.0272 -0.0717
  111MOL   C10226722   1.501   2.367   5.807  0.2922  0.2688  0.5206
  111MOL   O10326723   1.611   2.344   5.768 -0.0400  0.4167 -0.6094
  111MOL   H10426724   1.283   2.487   5.685 -0.1959  0.0121 -0.4275
  111MOL   H10526725   1.544   2.591   5.575  1.2482 -1.3150 -0.4936
  111MOL   H10626726   1.400   2.593   5.475 -0.7794 -0.8700  0.6866
  111MOL   H10726727   1.461   2.437   5.527  2.3516 -0.4211 -1.0437
  111MOL   H10826728   1.391   2.531   5.910  0.2412  1.7082  0.1045
  111MOL   H10926729   1.534   2.579   5.819 -0.0067 -0.6659  0.0142
  111MOL   O11026730   1.418   2.269   5.843 -0.4699  0.2040 -0.4298
  111MOL   C11126731   1.460   2.126   5.830 -0.0448 -0.8356 -0.3114
  111MOL   C11226732   1.517   2.097   5.969  0.1156 -0.1873  0.1459
  111MOL   C11326733   1.346   2.026   5.798 -0.7389  0.1500  0.0496
  111MOL   C11426734   1.376   1.879   5.805 -0.6283  0.0258  0.0891
  111MOL   O11526735   1.303   1.792   5.850 -0.3723  0.4249  1.1998
  111MOL   H11626736   1.535   2.120   5.751 -0.4861 -2.7116 -0.6131
  111MOL   H11726737   1.588   2.174   6.000  0.9339 -0.3675 -1.2357
  111MOL   H11826738   1.564   1.999   5.968 -0.5084 -0.5531  2.7622
  111MOL   H11926739   1.438   2.092   6.044 -0.7123  0.8558 -0.6409
  111MOL   H12026740   1.312   2.066   5.703  0.7098  2.4070  0.4452
  111MOL   H12126741   1.271   2.034   5.877  0.3057 -1.8324  1.2991
  111MOL   O12226742   1.476   1.854   5.730  0.2924  0.3026 -0.0861
  111MOL   C12326743   1.542   1.725   5.722  0.4600  0.0230  0.0576
  111MOL   C12426744   1.466   1.647   5.608 -0.1196  0.4106 -0.3237
  111MOL   C12526745   1.690   1.754   5.687  0.0681  0.1901  0.5012
  111MOL   C12626746   1.775   1.626   5.700 -0.2060 -0.2576 -0.6048
  111MOL   O12726747   1.724   1.514   5.716  0.0702  0.2511 -0.0119
  111MOL   H12826748   1.542   1.674   5.818  3.3122  1.0932  0.6812
  111MOL   H12926749   1.367   1.624   5.646  0.6994 -1.7320  0.5918
  111MOL   H13026750   1.520   1.561   5.569  0.0443  0.5616 -0.4315
  111MOL   H13126751   1.447   1.707   5.519 -2.2460 -1.9427 -1.5257
  111MOL   H13226752   1.726   1.826   5.760  1.7310 -0.0742 -0.0560
  111MOL   H13326753   1.693   1.798   5.588 -0.3547  1.6796  1.1319
  111MOL   O13426754   1.910   1.644   5.711 -0.8304 -0.2053 -0.6701
  111MOL   C13526755   1.993   1.531   5.744  0.2541 -0.1236 -0.7090
  111MOL   C13626756   2.106   1.513   5.640  0.3033  0.2969  0.3321
  111MOL   C13726757   2.051   1.542   5.885  0.3404  0.2144 -0.6036
  111MOL   C13826758   1.949   1.540   5.998  0.1661  0.4004  0.2103
  111MOL   O13926759   1.907   1.643   6.048  0.4326 -0.4018 -0.4678
  111MOL   H14026760   1.943   1.435   5.737 -1.0866  0.3826  1.5178
  111MOL   H14126761   2.165   1.603   5.624  0.7670 -0.2277 -0.9922
  111MOL   H14226762   2.072   1.480   5.542  3.6308  1.7382 -1.3755
  111MOL   H14326763   2.178   1.440   5.677  1.2558  0.3457 -1.3639
  111MOL   H14426764   2.118   1.628   5.881 -0.2497  0.6773 -0.6844
  111MOL   H14526765   2.118   1.457   5.897 -3.7880 -3.3469 -1.4815
  111MOL   O14626766   1.913   1.419   6.038  0.4564  0.3726 -0.3953
  111MOL   C14726767   1.816   1.408   6.137  0.0423  0.5873  0.7129
  111MOL   C14826768   1.677   1.385   6.074 -0.1081  0.5672 -0.6864
  111MOL   C14926769   1.863   1.299   6.244 -0.1130  0.4126 -0.0875
  111MOL   C15026770   1.796   1.307   6.381  0.0362  0.3796 -0.1407
  111MOL   O15126771   1.732   1.211   6.427  0.6550  0.2300 -0.2088
  111MOL   H15226772   1.808   1.501   6.193  1.9313  1.4554 -0.4243
  111MOL   H15326773   1.670   1.429   5.975 -0.0501  0.5954 -0.6773
  111MOL   H15426774   1.592   1.427   6.129 -2.3781 -1.4705 -2.5103
  111MOL   H15526775   1.653   1.279   6.071 -2.6191  1.0689  0.2259
  111MOL   H15626776   1.968   1.314   6.267 -0.7286  0.2612  3.0678
  111MOL   H15726777   1.867   1.197   6.206  2.1979  0.8718 -1.1690
  111MOL   O15826778   1.828   1.420   6.444 -0.5446  0.3842 -0.1431
  111MOL   C15926779   1.753   1.458   6.561 -0.2540  0.7133 -0.5730
  111MOL   C16026780   1.862   1.514   6.658 -0.1356  0.7039  0.2580
  111MOL   C16126781   1.648   1.558   6.517  0.1861 -0.0579  0.5667
  111MOL   C16226782   1.549   1.587   6.630 -0.6716  0.3096  0.4204
  111MOL   O16326783   1.535   1.511   6.727  0.4704  0.2060  0.0875
  111MOL   H16426784   1.704   1.378   6.617  0.9727  1.4977  1.6817
  111MOL   H16526785   1.939   1.444   6.690  0.8192  1.4388 -0.4087
  111MOL   H16626786   1.824   1.572   6.742  2.2534  3.4439 -0.4477
  111MOL   H16726787   1.915   1.584   6.593  0.9002 -0.0087  0.3397
  111MOL   H16826788   1.601   1.506   6.433  0.7013  1.2641 -0.5473
  111MOL   H16926789   1.717   1.637   6.486  1.8891 -1.3238  1.0159
  111MOL   O17026790   1.457   1.679   6.598  0.4545  0.8209  0.9228
  111MOL   C17126791   1.349   1.701   6.677  0.4360 -0.5282 -0.0240
  111MOL   C17226792   1.382   1.803   6.782  0.1713 -0.3267  0.1422
  111MOL   C17326793   1.242   1.747   6.579 -0.1624 -0.3207  0.4639
  111MOL   C17426794   1.179   1.636   6.493  0.4368 -0.2135 -0.2877
  111MOL   O17526795   1.067   1.592   6.512 -0.1342 -0.1235  0.0891
  111MOL   H17626796   1.309   1.609   6.721 -1.1160  0.4062  0.5318
  111MOL   H17726797   1.460   1.756   6.841  3.1256  1.3548 -2.3047
  111MOL   H17826798   1.303   1.825   6.854 -0.2651 -1.5094  0.0487
  111MOL   H17926799   1.421   1.899   6.748  0.9312 -0.8806 -0.5893
  111MOL   H18026800   1.283   1.824   6.514 -2.1225  1.0951  0.8680
  111MOL   H18126801   1.155   1.794   6.625 -0.7538 -1.5234  0.5917
  111MOL   O18226802   1.262   1.595   6.399 -0.0466 -0.6814  0.3860
  111MOL   C18326803   1.220   1.485   6.314  0.6564  0.3166  0.0153
  111MOL   C18426804   1.287   1.513   6.176  0.1899 -0.2801 -0.7924
  111MOL   C18526805   1.262   1.346   6.367 -0.0693 -0.0077  0.3056
  111MOL   C18626806   1.157   1.236   6.343  0.1738 -0.3219  0.3691
  111MOL   O18726807   1.159   1.165   6.237  0.3015 -0.1887  0.5194
  111MOL   H18826808   1.112   1.496   6.303  0.6131 -0.4906 -0.3974
  111MOL   H18926809   1.390   1.541   6.197  0.1830  0.4672 -1.7463
  111MOL   H19026810   1.263   1.609   6.131 -0.0435  0.5905  1.1330
  111MOL   H19126811   1.284   1.429   6.107 -1.4951 -1.3551  0.5212
  111MOL   H19226812   1.284   1.359   6.473  1.4796  0.8932 -0.1200
  111MOL   H19326813   1.351   1.311   6.316 -1.4675  1.0794 -3.0013
  111MOL   O19426814   1.065   1.233   6.445  0.1519  0.2019 -0.0863
  111MOL   C19526815   0.930   1.178   6.433 -0.5746  0.0654  0.7048
  111MOL   C19626816   0.911   1.052   6.521  0.6273  0.0017 -0.3153
  111MOL   C19726817   0.814   1.278   6.457  0.5119 -0.5943  0.0185
  111MOL   C19826818   0.819   1.397   6.362  0.6406 -0.5263 -0.8396
  111MOL   O19926819   0.876   1.392   6.251  0.4436 -0.1490 -0.6656
  111MOL   H20026820   0.912   1.140   6.332  0.3049 -0.8738  0.9003
  111MOL   H20126821   0.815   1.006   6.496  1.4607 -1.0156 -1.6682
  111MOL   H20226822   0.914   1.056   6.630 -0.1863 -0.6117 -0.2629
  111MOL   H20326823   0.984   0.984   6.478 -2.1543 -2.8072 -0.8123
  111MOL   H20426824   0.813   1.308   6.562  1.4056 -3.5338  0.9226
  111MOL   H20526825   0.725   1.215   6.446 -0.4511  0.7756 -0.1052
  111MOL   O20626826   0.727   1.495   6.391 -0.2229 -0.9761  0.2085
  111MOL   C20726827   0.745   1.622   6.332 -0.7649 -0.5093 -0.8932
  111MOL   C20826828   0.647   1.616   6.213  0.2033  0.5585 -0.5733
  111MOL   C20926829   0.729   1.736   6.441 -0.3542 -0.2135 -0.9345
  111MOL   C21026830   0.577   1.760   6.480 -0.8373 -0.1091  0.5653
  111MOL   O21126831   0.505   1.823   6.406  0.4915 -0.2659  0.1638
  111MOL   H21226832   0.846   1.625   6.294 -0.0719  0.0285  0.9339
  111MOL   H21326833   0.668   1.542   6.136 -0.4908 -0.0577 -0.1858
  111MOL   H21426834   0.628   1.712   6.165  0.2702  0.5235 -0.6705
  111MOL   H21526835   0.549   1.590   6.253 -0.6714  2.6192 -1.2846
  111MOL   H21626836   0.758   1.835   6.406  0.0159 -0.1753 -0.5219
  111MOL   H21726837   0.788   1.704   6.527 -1.2340  0.6198 -0.0033
  111MOL   O21826838   0.547   1.697   6.594  0.8336 -0.0914  0.1925
  111MOL   C21926839   0.411   1.689   6.639 -0.8400 -0.2903 -0.3458
  111MOL   C22026840   0.403   1.576   6.734  0.7155  0.0806  1.0617
  111MOL   C22126841   0.352   1.823   6.699 -0.6222 -0.2246  0.4321
  111MOL   C22226842   0.197   1.824   6.716 -0.4449  0.0011 -0.7881
  111MOL   O22326843   0.127   1.732   6.673 -0.2157  0.6266 -0.1204
  111MOL   H22426844   0.351   1.653   6.555 -0.4437  1.0749 -1.2316
  111MOL   H22526845   0.298   1.574   6.764  0.5191  0.6331  0.4122
  111MOL   H22626846   0.468   1.585   6.821  0.2760  0.2238  1.3787
  111MOL   H22726847   0.420   1.482   6.682  0.3068  0.4940  0.1710
  111MOL   H22826848   0.381   1.907   6.636  0.7532 -0.6998  0.4130
  111MOL   H22926849   0.404   1.845   6.792  0.0276  0.0758  0.0022
  111MOL   O23026850   0.156   1.928   6.799  0.4760  0.5482  0.1304
  111MOL   C23126851   0.018   1.939   6.838 -0.4344 -0.4423  0.1026
  111MOL   C23226852   0.003   1.970   6.986  0.0153  0.4637 -0.2043
  111MOL   C23326853   7.908   2.029   6.744  0.8866 -0.5450  0.0508
  111MOL   C23426854   7.931   2.179   6.754  0.2784  0.4942  0.2896
  111MOL   O23526855   0.052   2.223   6.710  0.3481  0.0123 -0.2418
  111MOL   H23626856   7.945   1.847   6.812 -2.9255  0.7680  0.6619
  111MOL   H23726857   0.072   1.912   7.047  1.0086  1.9613  0.1258
  111MOL   H23826858   7.882   1.938   7.015 -1.0045  3.5922 -0.0825
  111MOL   H23926859   0.033   2.073   7.004 -1.7542  1.2110 -1.3260
  111MOL   H24026860   7.804   1.997   6.745  0.7350 -0.0869 -0.8803
  111MOL   H24126861   7.937   2.003   6.642 -1.4041  0.4945 -0.9039
  111MOL   H24226862   7.853   2.237   6.802 -0.4237  0.9077 -1.3209
  112MOL     O126863   3.168   0.169   4.924 -0.1245 -0.2237 -0.4419
  112MOL     C226864   3.085   0.194   5.037 -0.4487 -0.2040 -0.1331
  112MOL     C326865   3.171   0.224   5.156  0.2032  0.2201  0.7824
  112MOL     C426866   3.000   0.320   5.007 -0.7124 -0.5085 -0.1922
  112MOL     C526867   2.888   0.369   5.103  1.2148  0.3654 -0.7723
  112MOL     O626868   2.905   0.454   5.193  0.6060 -1.1536  0.8145
  112MOL     H726869   3.014   0.113   5.053  0.1339 -0.5264  0.8881
  112MOL     H826870   3.241   0.301   5.123 -0.9264  0.2405 -1.6643
  112MOL     H926871   3.235   0.144   5.194  1.2391  0.0304 -1.3118
  112MOL    H1026872   3.120   0.254   5.247  1.8719  1.6372  1.2918
  112MOL    H1126873   2.935   0.312   4.919  0.8197 -1.8977 -1.2113
  112MOL    H1226874   3.056   0.407   4.971 -0.7804 -0.1196  0.6274
  112MOL    H1326875   3.147   0.082   4.893  1.3222 -1.1992  1.2339
  112MOL    O1426876   2.773   0.308   5.077  0.1652  0.3772  0.3115
  112MOL    C1526877   2.679   0.302   5.183  0.1318 -0.3056  0.6162
  112MOL    C1626878   2.550   0.349   5.123 -0.1220  0.6893 -0.7847
  112MOL    C1726879   2.677   0.168   5.242 -0.0823  0.1937  0.0614
  112MOL    C1826880   2.580   0.175   5.359  0.5490  0.7950  0.2347
  112MOL    O1926881   2.472   0.107   5.356  0.2582  0.4180 -0.3229
  112MOL    H2026882   2.692   0.370   5.267 -1.6832 -1.5791  1.9668
  112MOL    H2126883   2.506   0.279   5.052 -0.9480  0.2411  0.1648
  112MOL    H2226884   2.556   0.456   5.100  0.9739  1.1772  1.6539
  112MOL    H2326885   2.470   0.336   5.195 -0.7889  2.1660 -1.2526
  112MOL    H2426886   2.771   0.144   5.291 -0.2827  0.3481  0.5308
  112MOL    H2526887   2.650   0.090   5.172  0.8723 -0.5843  0.5549
  112MOL    O2626888   2.625   0.245   5.462 -0.6442  0.7118  0.3505
  112MOL    C2726889   2.561   0.259   5.588 -0.0394  0.7701 -0.1077
  112MOL    C2826890   2.593   0.136   5.677 -0.8197  0.5694 -0.2870
  112MOL    C2926891   2.598   0.397   5.649 -0.7569 -0.0984 -0.3830
  112MOL    C3026892   2.742   0.417   5.700 -0.0017 -1.1129 -0.5009
  112MOL    O3126893   2.775   0.400   5.820  0.1392 -0.1375 -0.0464
  112MOL    H3226894   2.454   0.253   5.574 -0.3975  0.4282  2.4321
  112MOL    H3326895   2.697   0.142   5.708 -1.0389  1.2236  0.3242
  112MOL    H3426896   2.565   0.043   5.627  3.9899 -0.0344 -2.1184
  112MOL    H3526897   2.528   0.120   5.763 -0.1809 -2.4989 -0.3279
  112MOL    H3626898   2.543   0.415   5.742  0.0103 -1.7681  0.4230
  112MOL    H3726899   2.567   0.472   5.577 -1.8477  2.1269  2.3379
  112MOL    O3826900   2.826   0.473   5.600 -0.0707  0.1570 -0.4228
  112MOL    C3926901   2.965   0.492   5.623 -0.6861  0.3580  0.4332
  112MOL    C4026902   3.041   0.402   5.511  0.1949 -0.1763  0.4657
  112MOL    C4126903   2.987   0.644   5.603  0.2156  0.2056  0.3478
  112MOL    C4226904   3.135   0.673   5.625 -0.7520 -0.3510 -0.0851
  112MOL    O4326905   3.214   0.700   5.534  0.0173  0.2905  0.3591
  112MOL    H4426906   2.993   0.470   5.726  0.2907  0.0965  0.1205
  112MOL    H4526907   3.026   0.295   5.527 -0.9291  0.1138  1.5315
  112MOL    H4626908   3.145   0.413   5.539  0.2304  0.0271  0.2559
  112MOL    H4726909   3.009   0.434   5.412 -0.9629 -1.4651  0.4014
  112MOL    H4826910   2.933   0.711   5.670 -1.8459  0.3274 -1.3597
  112MOL    H4926911   2.946   0.674   5.507  0.9270 -1.5855 -0.5289
  112MOL    O5026912   3.170   0.681   5.752  0.2477 -0.1383 -0.0592
  112MOL    C5126913   3.298   0.700   5.792  0.0407 -0.0197  0.1795
  112MOL    C5226914   3.294   0.743   5.942 -0.2671  0.1430  0.0095
  112MOL    C5326915   3.396   0.577   5.771 -0.7841  0.1585  0.4374
  112MOL    C5426916   3.376   0.462   5.863  0.8330 -0.1284  0.2285
  112MOL    O5526917   3.467   0.418   5.923  0.1901 -0.1694 -0.4548
  112MOL    H5626918   3.328   0.787   5.733  1.5145  0.4066  1.5258
  112MOL    H5726919   3.231   0.830   5.961 -0.0752 -0.2615  2.6185
  112MOL    H5826920   3.393   0.778   5.971 -1.2269  1.3657  1.9274
  112MOL    H5926921   3.250   0.666   6.004  1.3667  0.7042  1.9108
  112MOL    H6026922   3.505   0.590   5.776 -0.6673 -0.4313 -0.4771
  112MOL    H6126923   3.383   0.533   5.672  1.5117 -1.7305  0.9209
  112MOL    O6226924   3.248   0.423   5.864  0.1109 -0.2613  0.1877
  112MOL    C6326925   3.197   0.324   5.952 -0.7719 -0.0189  0.9741
  112MOL    C6426926   3.190   0.379   6.090 -0.1183  0.0237  0.2344
  112MOL    C6526927   3.061   0.273   5.899  0.2278  0.0372  0.2656
  112MOL    C6626928   3.016   0.136   5.948 -0.1085  0.0832  0.2785
  112MOL    O6726929   2.909   0.122   6.010 -0.2451  0.3647 -0.0242
  112MOL    H6826930   3.267   0.240   5.954 -2.7797 -1.9316 -2.6871
  112MOL    H6926931   3.285   0.403   6.138 -0.9041 -0.5126  2.1298
  112MOL    H7026932   3.160   0.299   6.158 -3.5981  0.8481 -0.2315
  112MOL    H7126933   3.121   0.462   6.103 -2.2749 -1.5941 -0.5555
  112MOL    H7226934   3.062   0.281   5.791 -2.5030  3.0426  0.3749
  112MOL    H7326935   2.984   0.341   5.937  1.2621  1.4693 -0.1956
  112MOL    O7426936   3.107   0.046   5.921  0.1107  0.1072 -0.3694
  112MOL    C7526937   3.080   7.897   5.972  0.0037 -0.1715  0.8060
  112MOL    C7626938   3.086   7.803   5.860  0.7583 -0.2250  0.1674
  112MOL    C7726939   3.194   7.874   6.072 -0.1606 -1.0143 -0.2992
  112MOL    C7826940   3.174   7.931   6.215 -0.2582  0.6467  0.3325
  112MOL    O7926941   3.255   0.021   6.269  0.1283  0.2879  0.0668
  112MOL    H8026942   2.985   7.893   6.025 -0.2885  1.4186  0.4086
  112MOL    H8126943   3.017   7.831   5.780 -0.4068 -4.5000 -0.4809
  112MOL    H8226944   3.096   7.699   5.891 -0.3641  0.3157  2.4730
  112MOL    H8326945   3.182   7.811   5.809  0.1280  0.5485 -0.9292
  112MOL    H8426946   3.281   7.925   6.031  1.0270 -1.2409  1.8952
  112MOL    H8526947   3.226   7.770   6.077 -1.0338 -1.4106 -2.3704
  112MOL    O8626948   3.067   7.887   6.268 -0.6569  0.4803  0.4740
  112MOL    C8726949   3.016   7.930   6.395 -0.2177  0.1237  0.2909
  112MOL    C8826950   2.950   0.086   6.382  0.8096  0.4904 -0.0248
  112MOL    C8926951   2.919   7.819   6.438 -0.6285 -0.0564 -0.0420
  112MOL    C9026952   2.866   7.833   6.580 -0.2138 -0.1962  0.4124
  112MOL    O9126953   2.950   7.852   6.669 -0.2571 -0.0415 -0.1158
  112MOL    H9226954   3.099   7.924   6.465  1.3458 -0.6699 -1.6082
  112MOL    H9326955   2.913   0.122   6.479 -3.4330  0.1668 -1.4407
  112MOL    H9426956   2.866   0.092   6.313  1.6641  2.8112 -0.9110
  112MOL    H9526957   3.015   0.155   6.329 -0.1860  0.6297 -1.0672
  112MOL    H9626958   2.981   7.730   6.446 -0.6798  0.0674  1.8707
  112MOL    H9726959   2.841   7.813   6.362  0.3075  3.8545 -1.4870
  112MOL    O9826960   2.734   7.835   6.589  0.1200 -0.4482 -0.7118
  112MOL    C9926961   2.673   7.861   6.717  0.0393 -0.9698  0.4720
  112MOL   C10026962   2.638   0.033   6.730 -0.0710  0.2973  0.1362
  112MOL   C10126963   2.554   7.766   6.721 -0.0792 -0.1499 -0.0056
  112MOL   C10226964   2.475   7.762   6.848 -1.3014  0.5807 -0.6155
  112MOL   O10326965   2.450   7.863   6.914  0.1367 -0.5121  0.1913
  112MOL   H10426966   2.736   7.835   6.802  0.2321  0.8679  0.9165
  112MOL   H10526967   2.602   0.050   6.831 -0.4975 -1.3769  0.2807
  112MOL   H10626968   2.565   0.057   6.653 -0.7725  0.8191  0.9607
  112MOL   H10726969   2.723   0.100   6.719  0.4579 -0.5557 -1.1490
  112MOL   H10826970   2.605   7.672   6.699  2.9385  1.2073  0.8430
  112MOL   H10926971   2.491   7.800   6.638 -1.8103 -1.2405  0.8506
  112MOL   O11026972   2.425   7.637   6.870  0.7615  0.4706 -0.1174
  112MOL   C11126973   2.332   7.598   6.972 -0.5824 -0.1222  0.4218
  112MOL   C11226974   2.260   7.479   6.914 -0.0462 -0.4811 -0.5054
  112MOL   C11326975   2.412   7.547   7.097 -0.3731 -0.6806 -0.8821
  112MOL   C11426976   2.318   7.522   7.213  0.5029 -0.2196  0.2857
  112MOL   O11526977   2.330   7.416   7.279  0.5865  0.4062 -0.3553
  112MOL   H11626978   2.262   7.676   7.003  1.1556  1.8867 -0.6427
  112MOL   H11726979   2.322   7.389   6.914 -0.3489 -0.7032  0.8896
  112MOL   H11826980   2.252   7.499   6.807 -0.5637  0.4771 -0.2959
  112MOL   H11926981   2.170   7.447   6.967  1.1313 -0.4368  1.5570
  112MOL   H12026982   2.492   7.619   7.110  0.6526 -1.6368 -1.8316
  112MOL   H12126983   2.462   7.453   7.076 -1.2918 -1.2103 -0.7142
  112MOL   O12226984   2.219   7.616   7.236  0.1667  0.0587  0.2747
  112MOL   C12326985   2.117   7.576   7.332  0.1340  0.4976 -0.5577
  112MOL   C12426986   2.095   7.682   7.441  0.5822  0.7619  0.1395
  112MOL   C12526987   1.983   7.511   7.284  0.2179 -0.1678 -0.1179
  112MOL   C12626988   1.981   7.371   7.240 -0.3264  0.3172  0.5664
  112MOL   O12726989   1.915   7.345   7.135 -0.1338  0.1722 -0.0081
  112MOL   H12826990   2.156   7.505   7.405 -0.5431  1.2825  0.5872
  112MOL   H12926991   2.032   7.769   7.420 -0.1489  0.1252 -0.3381
  112MOL   H13026992   2.191   7.719   7.477  0.2250  1.2130  0.6494
  112MOL   H13126993   2.048   7.624   7.520 -1.4513  0.9456 -0.8967
  112MOL   H13226994   1.966   7.565   7.191  0.0288  0.4049  0.2513
  112MOL   H13326995   1.898   7.527   7.350 -0.6491  0.4648 -1.3703
  112MOL   O13426996   2.059   7.288   7.314  0.3597  0.0594 -0.5360
  112MOL   C13526997   2.073   7.149   7.277  0.1474  0.1388 -0.2538
  112MOL   C13626998   2.189   7.134   7.173 -0.3808 -0.5053  0.3110
  112MOL   C13726999   2.116   7.089   7.412  0.0866 -0.3830  0.4073
  112MOL   C13827000   2.123   6.938   7.406  0.4158 -0.4544  0.2278
  112MOL   O13927001   2.235   6.885   7.409 -0.1245  0.3555 -0.0229
  112MOL   H14027002   1.980   7.108   7.236 -0.4830  1.3337 -0.0336
  112MOL   H14127003   2.288   7.170   7.199 -0.3762 -0.5304  0.3253
  112MOL   H14227004   2.150   7.192   7.089 -1.0747 -2.0206 -0.4362
  112MOL   H14327005   2.197   7.038   7.121  0.0114  0.1466 -0.8576
  112MOL   H14427006   2.039   7.114   7.485  1.7859  1.6203  1.5513
  112MOL   H14527007   2.206   7.131   7.456  0.3301  0.6720 -1.0996
  112MOL   O14627008   2.002   6.880   7.418 -0.3601 -0.0211  0.1795
  112MOL   C14727009   1.990   6.744   7.384 -0.0741 -0.8698 -0.2470
  112MOL   C14827010   2.006   6.646   7.509 -0.4419  0.5988  0.4805
  112MOL   C14927011   1.865   6.713   7.310  0.2110 -0.5288 -0.3139
  112MOL   C15027012   1.841   6.803   7.189 -0.3931 -0.6574  0.1578
  112MOL   O15127013   1.788   6.908   7.208  0.0560 -0.2066 -0.3511
  112MOL   H15227014   2.065   6.731   7.306  0.3306  3.2865 -0.6892
  112MOL   H15327015   2.011   6.545   7.468 -0.8090  0.3474  1.0395
  112MOL   H15427016   1.916   6.656   7.570 -1.7363 -0.5796 -1.2235
  112MOL   H15527017   2.103   6.667   7.554 -0.0779  0.1551 -0.0994
  112MOL   H15627018   1.782   6.724   7.380  1.9249  1.4036  1.4892
  112MOL   H15727019   1.878   6.614   7.268  2.0303 -1.7309  2.9065
  112MOL   O15827020   1.880   6.752   7.076 -0.0265 -0.5333  1.0676
  112MOL   C15927021   1.899   6.841   6.956  0.1208 -0.2484 -0.1306
  112MOL   C16027022   2.043   6.840   6.887  0.0074 -0.4805  0.2663
  112MOL   C16127023   1.785   6.816   6.854  1.2840  0.0420  0.0765
  112MOL   C16227024   1.684   6.930   6.846 -0.0421 -0.4679 -0.1936
  112MOL   O16327025   1.691   7.012   6.750 -0.1943  0.4278 -0.2644
  112MOL   H16427026   1.881   6.943   6.990 -0.7853 -0.9362  1.4720
  112MOL   H16527027   2.064   6.739   6.851 -0.2701 -0.4903  0.1303
  112MOL   H16627028   2.120   6.840   6.964 -0.9907 -2.3574  1.3239
  112MOL   H16727029   2.072   6.905   6.805 -1.1715 -1.1319 -0.6896
  112MOL   H16827030   1.721   6.737   6.894  1.1148 -0.6767 -1.5536
  112MOL   H16927031   1.825   6.788   6.756  1.6513  0.0347  0.2280
  112MOL   O17027032   1.597   6.944   6.951 -0.2678  0.5188  0.2135
  112MOL   C17127033   1.507   7.048   6.961  0.4417 -0.4604 -0.3080
  112MOL   C17227034   1.363   7.000   6.944  0.0253  0.1897  0.1489
  112MOL   C17327035   1.548   7.125   7.095 -0.3422  0.2755  0.3998
  112MOL   C17427036   1.496   7.271   7.096 -0.2498 -0.5184 -0.1698
  112MOL   O17527037   1.399   7.307   7.029 -0.2108 -0.3330  0.3816
  112MOL   H17627038   1.525   7.105   6.870 -1.5855 -1.0534 -1.1079
  112MOL   H17727039   1.334   6.928   7.021  0.4414  2.7233  2.7549
  112MOL   H17827040   1.351   6.947   6.850  1.3351  1.8110 -0.9751
  112MOL   H17927041   1.283   7.075   6.946  0.0600  0.2534 -0.5916
  112MOL   H18027042   1.657   7.131   7.103 -0.3259  1.4975 -0.6596
  112MOL   H18127043   1.494   7.069   7.172 -1.5997  1.1147  0.1267
  112MOL   O18227044   1.550   7.358   7.186  0.1284 -0.3743  0.2319
  112MOL   C18327045   1.510   7.492   7.194  0.1450  0.2093  0.2431
  112MOL   C18427046   1.570   7.539   7.326  0.0603 -0.0141  0.0913
  112MOL   C18527047   1.569   7.551   7.067  0.6516 -0.2240  0.3993
  112MOL   C18627048   1.543   7.702   7.057 -0.0180 -0.2727  0.2035
  112MOL   O18727049   1.436   7.748   7.025  0.6854  0.6787 -0.2547
  112MOL   H18827050   1.404   7.512   7.203 -0.3853 -1.5952 -1.6483
  112MOL   H18927051   1.678   7.529   7.328 -0.1118 -1.8165  1.3386
  112MOL   H19027052   1.537   7.479   7.411  1.0423 -1.5804 -0.6161
  112MOL   H19127053   1.544   7.644   7.345 -0.8251 -0.4653  1.4379
  112MOL   H19227054   1.528   7.516   6.972 -1.0618  1.4553  0.4757
  112MOL   H19327055   1.678   7.547   7.065  0.7402  1.9526  0.0269
  112MOL   O19427056   1.658   7.769   7.062  0.0185 -0.2836 -0.2204
  112MOL   C19527057   1.661   7.914   7.091  0.6965  0.4962 -0.0710
  112MOL   C19627058   1.624   7.936   7.244 -0.0677  0.0773  0.1678
  112MOL   C19727059   1.797   7.957   7.038 -0.0606 -0.4414 -0.2744
  112MOL   C19827060   1.906   7.936   7.143 -0.8651  0.1563 -0.1598
  112MOL   O19927061   1.939   7.825   7.194  0.4118 -0.0940 -0.2981
  112MOL   H20027062   1.585   7.954   7.024 -1.0691  0.1965  1.7100
  112MOL   H20127063   1.605   0.061   7.264 -2.1413 -0.0841 -0.7536
  112MOL   H20227064   1.701   7.900   7.313 -0.0800 -0.6841 -0.2084
  112MOL   H20327065   1.527   7.890   7.262 -0.1360  0.3510  0.5138
  112MOL   H20427066   1.793   0.082   7.008  0.1881  0.0439  1.3052
  112MOL   H20527067   1.826   7.902   6.949  0.3056  1.4099 -1.3408
  112MOL   O20627068   1.968   0.070   7.168 -0.2226  0.0344 -0.1559
  112MOL   C20727069   2.089   0.076   7.243  0.6774 -0.6089 -0.2299
  112MOL   C20827070   2.183   0.185   7.199 -0.6217  0.2981  0.0367
  112MOL   C20927071   2.058   0.084   7.397 -1.1212  0.2356  0.3314
  112MOL   C21027072   1.993   0.214   7.445  0.0013  0.6387  0.2615
  112MOL   O21127073   1.928   0.290   7.372 -0.3108  0.4807  0.4830
  112MOL   H21227074   2.146   7.964   7.228  1.4265 -0.3145  0.7140
  112MOL   H21327075   2.209   0.170   7.094 -2.1189  0.0161 -0.3038
  112MOL   H21427076   2.274   0.153   7.250 -1.0712 -0.4620  0.3683
  112MOL   H21527077   2.162   0.290   7.221  1.3081  0.7236 -0.0416
  112MOL   H21627078   2.157   0.078   7.442 -0.3819  0.7981 -1.1979
  112MOL   H21727079   1.995   0.000   7.427  1.2201 -2.0731 -1.0774
  112MOL   O21827080   2.026   0.242   7.577 -0.0313  0.8106  0.1059
  112MOL   C21927081   1.995   0.374   7.623 -0.2742 -0.2373 -0.7275
  112MOL   C22027082   1.975   0.354   7.774 -0.4183  0.1435 -0.3254
  112MOL   C22127083   2.108   0.473   7.600  0.9599  0.0451  0.5952
  112MOL   C22227084   2.060   0.613   7.600 -0.5219  0.2397  0.3061
  112MOL   O22327085   1.947   0.642   7.553  0.2405 -0.1554 -0.0172
  112MOL   H22427086   1.902   0.412   7.582 -0.5024  2.9682  2.4653
  112MOL   H22527087   2.059   0.310   7.828  0.2776  3.5882  1.5801
  112MOL   H22627088   1.882   0.302   7.799  0.2961 -1.1038 -0.2626
  112MOL   H22727089   1.973   0.452   7.823  0.3001 -0.3956  0.8037
  112MOL   H22827090   2.156   0.450   7.505  3.4719 -1.1715  2.1175
  112MOL   H22927091   2.182   0.451   7.676 -0.0121 -0.3096  1.4498
  112MOL   O23027092   2.150   0.704   7.644 -0.0700  1.0815  0.3492
  112MOL   C23127093   2.105   0.838   7.654  0.3425 -1.0270 -0.5099
  112MOL   C23227094   2.096   0.859   7.810  0.1892  0.2022 -0.0710
  112MOL   C23327095   2.193   0.936   7.572  0.0787  0.7415 -1.1182
  112MOL   C23427096   2.332   0.955   7.630 -0.0454  0.8410 -0.0832
  112MOL   O23527097   2.356   1.051   7.707  0.4493 -0.6201  0.2310
  112MOL   H23627098   2.007   0.857   7.612  0.8912  1.0634 -0.9254
  112MOL   H23727099   2.056   0.959   7.830  2.2499  0.9786  0.3314
  112MOL   H23827100   2.190   0.848   7.865 -0.3963 -0.5918  0.8040
  112MOL   H23927101   2.033   0.778   7.846 -0.7894  1.3710  0.8698
  112MOL   H24027102   2.135   1.029   7.567 -0.9235  0.2695  0.9905
  112MOL   H24127103   2.187   0.892   7.473 -1.4144  3.3263 -2.2300
  112MOL   H24227104   2.400   0.885   7.582 -1.2881  0.2657 -1.0394
  113MOL     O127105   5.085   1.005   1.422  0.7509  0.2336 -0.3978
  113MOL     C227106   5.222   1.022   1.407 -0.2659  0.5520 -0.4067
  113MOL     C327107   5.264   1.152   1.475  0.6213  0.4025 -0.0613
  113MOL     C427108   5.280   0.905   1.482 -0.4549  0.5449 -0.1750
  113MOL     C527109   5.431   0.903   1.474  0.1704  0.3976  0.2832
  113MOL     O627110   5.505   0.894   1.578 -0.1357 -0.2733 -0.3326
  113MOL     H727111   5.245   1.026   1.300  2.7266  0.7011  0.2000
  113MOL     H827112   5.224   1.239   1.423  1.2523  0.6820 -0.0833
  113MOL     H927113   5.372   1.168   1.475  0.7426 -0.4017  0.8602
  113MOL    H1027114   5.228   1.160   1.577 -1.1773  1.5382 -0.7590
  113MOL    H1127115   5.248   0.808   1.444 -4.4894  0.3941  3.2169
  113MOL    H1227116   5.244   0.904   1.585 -1.9163 -1.0988 -0.6857
  113MOL    H1327117   5.045   0.932   1.376 -2.1356  2.0754 -0.9213
  113MOL    O1427118   5.466   0.924   1.351  0.6914  0.3132  0.7540
  113MOL    C1527119   5.604   0.952   1.326  0.2971 -0.3467 -0.3621
  113MOL    C1627120   5.658   0.867   1.210  0.3771  0.0135  1.1153
  113MOL    C1727121   5.626   1.102   1.302  0.5553 -0.3369  0.0638
  113MOL    C1827122   5.548   1.168   1.177  0.4775 -0.1587 -0.2017
  113MOL    O1927123   5.460   1.248   1.200  0.4328 -0.1132  0.0312
  113MOL    H2027124   5.669   0.930   1.410 -0.3396 -1.5113 -0.1692
  113MOL    H2127125   5.597   0.858   1.120  3.3127  1.7279 -1.1322
  113MOL    H2227126   5.668   0.765   1.249 -1.9453 -0.6629  0.0418
  113MOL    H2327127   5.756   0.900   1.176  1.0111 -0.9929  1.9305
  113MOL    H2427128   5.730   1.114   1.271  0.5824 -1.4876 -0.3322
  113MOL    H2527129   5.628   1.174   1.383 -1.2925 -1.0536  0.7536
  113MOL    O2627130   5.586   1.122   1.054  0.5131 -0.5940 -0.1449
  113MOL    C2727131   5.526   1.165   0.933 -0.6186 -0.1556 -0.6734
  113MOL    C2827132   5.626   1.247   0.843  0.1529  0.7218 -0.2875
  113MOL    C2927133   5.475   1.042   0.855 -0.8612  0.8160  0.3512
  113MOL    C3027134   5.336   0.991   0.900 -0.1721  0.1497 -0.1061
  113MOL    O3127135   5.263   1.043   0.983 -0.2372 -0.0562 -0.2895
  113MOL    H3227136   5.440   1.227   0.958 -0.2374  0.2954 -0.4803
  113MOL    H3327137   5.578   1.258   0.746 -0.8945  0.3553  0.1757
  113MOL    H3427138   5.724   1.199   0.841  1.4199  2.9629  2.9651
  113MOL    H3527139   5.640   1.348   0.881 -1.9288  0.8012  0.3331
  113MOL    H3627140   5.554   0.971   0.878 -0.1218  1.9141  1.2478
  113MOL    H3727141   5.462   1.057   0.748 -0.1291  0.7212  0.2457
  113MOL    O3827142   5.306   0.873   0.828  0.2726 -0.1033  0.0939
  113MOL    C3927143   5.202   0.789   0.879  0.6988  0.4232 -0.1177
  113MOL    C4027144   5.074   0.813   0.788 -0.7454 -0.0389  0.3657
  113MOL    C4127145   5.239   0.642   0.878 -0.0951  0.3766  0.1463
  113MOL    C4227146   5.136   0.552   0.951 -0.0343  0.0684  0.1656
  113MOL    O4327147   5.063   0.479   0.883 -0.8501 -0.3188 -0.3051
  113MOL    H4427148   5.174   0.820   0.980  0.4309  2.7579 -0.8798
  113MOL    H4527149   5.101   0.806   0.683 -1.1962  2.2235  0.0696
  113MOL    H4627150   5.036   0.914   0.802  0.2095  0.2969  0.5816
  113MOL    H4727151   4.996   0.737   0.798  0.3824 -1.2107  0.3073
  113MOL    H4827152   5.338   0.619   0.916  0.1029 -0.0963 -0.6478
  113MOL    H4927153   5.232   0.611   0.773 -4.2092 -0.3365  0.5199
  113MOL    O5027154   5.149   0.554   1.083  0.2104  0.2419  0.3996
  113MOL    C5127155   5.069   0.479   1.170  0.4325 -0.1401 -0.2582
  113MOL    C5227156   5.118   0.335   1.162 -0.1800  0.0574 -0.1148
  113MOL    C5327157   5.076   0.513   1.327 -0.1866  0.6092 -0.3532
  113MOL    C5427158   4.977   0.623   1.356  0.4326  0.0846  0.2432
  113MOL    O5527159   5.013   0.741   1.363  0.1922  0.0627 -0.0124
  113MOL    H5627160   4.964   0.485   1.141 -0.0761 -0.2727  1.4782
  113MOL    H5727161   5.094   0.292   1.065 -0.8489 -1.2887  0.6278
  113MOL    H5827162   5.079   0.270   1.241 -0.1170  2.8354  2.2863
  113MOL    H5927163   5.221   0.317   1.190 -0.5142 -2.6067 -0.4482
  113MOL    H6027164   5.176   0.543   1.359 -0.4949  0.2841  0.9512
  113MOL    H6127165   5.044   0.427   1.385  1.7457 -1.0969 -1.7579
  113MOL    O6227166   4.853   0.578   1.353  0.6526  0.1553 -0.0078
  113MOL    C6327167   4.737   0.670   1.348  0.6702 -0.1170 -0.7251
  113MOL    C6427168   4.694   0.666   1.197 -0.0203  0.1740 -0.3847
  113MOL    C6527169   4.630   0.607   1.436  0.0268  0.5294  0.1360
  113MOL    C6627170   4.634   0.634   1.581  0.2947  0.0520  0.0529
  113MOL    O6727171   4.626   0.541   1.653 -0.3363  0.5503 -0.0246
  113MOL    H6827172   4.769   0.770   1.375  0.1983  0.2313 -1.4348
  113MOL    H6927173   4.685   0.568   1.151  0.0970 -0.5679  1.1695
  113MOL    H7027174   4.755   0.728   1.131  0.3022 -0.0630 -0.3061
  113MOL    H7127175   4.597   0.716   1.187 -0.7968 -1.6365 -2.3083
  113MOL    H7227176   4.622   0.499   1.418  1.1577  0.4627 -0.0147
  113MOL    H7327177   4.534   0.650   1.406 -0.0240  0.3862  0.0871
  113MOL    O7427178   4.630   0.764   1.621 -0.6136  0.7157  0.3797
  113MOL    C7527179   4.611   0.796   1.762  0.2158  0.0495  0.2501
  113MOL    C7627180   4.745   0.856   1.812 -0.1258 -0.2407 -0.1101
  113MOL    C7727181   4.492   0.890   1.787 -0.6391  0.3415 -1.2068
  113MOL    C7827182   4.426   0.878   1.927 -0.0987  0.3994 -0.5955
  113MOL    O7927183   4.426   0.783   1.999 -0.3242  0.4142  0.6077
  113MOL    H8027184   4.598   0.704   1.820  2.5626  0.6397  1.7721
  113MOL    H8127185   4.772   0.843   1.917  2.3021  0.9702 -0.5388
  113MOL    H8227186   4.744   0.965   1.804  0.3705 -0.1988  0.3428
  113MOL    H8327187   4.833   0.816   1.761  0.3283  0.1934  0.3224
  113MOL    H8427188   4.415   0.854   1.718 -2.0084  2.0078 -0.5820
  113MOL    H8527189   4.512   0.996   1.774  0.7058  0.6944  3.1802
  113MOL    O8627190   4.368   1.000   1.967 -0.3488  0.7537 -0.3217
  113MOL    C8727191   4.308   1.012   2.101  0.5399  0.4870  0.3678
  113MOL    C8827192   4.346   1.154   2.143 -0.0966 -0.1388 -0.3346
  113MOL    C8927193   4.157   0.986   2.085  0.0929 -0.4452 -0.2948
  113MOL    C9027194   4.081   0.977   2.215  0.0655  0.2204 -0.5721
  113MOL    O9127195   3.989   1.061   2.240 -0.1744  0.2252 -0.7251
  113MOL    H9227196   4.347   0.940   2.173  0.0187  0.4492  0.6161
  113MOL    H9327197   4.360   1.218   2.057 -0.2181 -0.4690 -0.5991
  113MOL    H9427198   4.450   1.142   2.173 -0.1854 -1.1766 -0.4011
  113MOL    H9527199   4.285   1.194   2.225  0.5174  0.4453 -0.1553
  113MOL    H9627200   4.144   0.890   2.034 -1.1517 -1.0743  1.1603
  113MOL    H9727201   4.117   1.060   2.016  0.0309  0.8246  1.0709
  113MOL    O9827202   4.129   0.874   2.294  0.3464  0.0910  0.7269
  113MOL    C9927203   4.065   0.846   2.417 -0.5713 -0.1453  0.5252
  113MOL   C10027204   4.051   0.693   2.436  0.0244  0.3869  0.2118
  113MOL   C10127205   4.146   0.926   2.528 -0.1428 -0.5709  0.5709
  113MOL   C10227206   4.298   0.890   2.544  0.2918 -0.3377  0.7185
  113MOL   O10327207   4.392   0.958   2.499  0.4255  0.0050 -0.1881
  113MOL   H10427208   3.965   0.887   2.428 -0.0073  1.0837  1.0824
  113MOL   H10527209   4.145   0.640   2.452  0.2326  0.5779 -0.3622
  113MOL   H10627210   4.001   0.644   2.353 -1.6713 -0.7677  1.8734
  113MOL   H10727211   4.002   0.662   2.528 -0.9455 -0.1450 -0.4846
  113MOL   H10827212   4.100   0.904   2.624 -1.0523 -1.2629 -0.0188
  113MOL   H10927213   4.141   1.033   2.507  1.6203 -0.9487 -2.1720
  113MOL   O11027214   4.315   0.787   2.632  0.0852 -0.5512 -0.2048
  113MOL   C11127215   4.439   0.736   2.671 -0.1254  0.0313  0.1484
  113MOL   C11227216   4.411   0.694   2.821  0.3540  0.8037  0.1084
  113MOL   C11327217   4.484   0.629   2.567  0.2505 -0.0383  0.2594
  113MOL   C11427218   4.604   0.546   2.611 -0.0788 -0.2346  0.0613
  113MOL   O11527219   4.603   0.424   2.624  0.1165  0.4074  0.4281
  113MOL   H11627220   4.505   0.823   2.680  0.8825 -0.8110  1.0944
  113MOL   H11727221   4.325   0.629   2.838  0.1870  1.3723  1.5375
  113MOL   H11827222   4.380   0.779   2.882 -0.8280 -0.3540  1.1502
  113MOL   H11927223   4.492   0.651   2.879  1.1046  1.3681 -0.5035
  113MOL   H12027224   4.503   0.680   2.472 -1.5666 -0.2136 -0.2112
  113MOL   H12127225   4.398   0.563   2.563 -0.6832  1.2625 -3.5066
  113MOL   O12227226   4.701   0.619   2.656  0.2460  0.0861 -0.2896
  113MOL   C12327227   4.819   0.554   2.697  0.1080  0.0187  0.2690
  113MOL   C12427228   4.914   0.493   2.588  0.3707  0.2704  0.6143
  113MOL   C12527229   4.891   0.655   2.795  0.4898  0.0064  0.8497
  113MOL   C12627230   5.017   0.598   2.864 -0.1838 -0.0345 -0.0889
  113MOL   O12727231   5.014   0.569   2.987 -0.1059 -0.2824  0.3920
  113MOL   H12827232   4.789   0.471   2.761 -2.4794  1.5238  1.0856
  113MOL   H12927233   4.946   0.569   2.516 -1.2948  0.8781  0.4951
  113MOL   H13027234   4.863   0.407   2.545 -0.3734  1.0948 -0.1901
  113MOL   H13127235   5.008   0.455   2.628 -0.3735 -2.8505 -0.4852
  113MOL   H13227236   4.827   0.695   2.874 -1.5457  3.3237 -2.3341
  113MOL   H13327237   4.921   0.739   2.733 -1.7948  2.4056  2.8564
  113MOL   O13427238   5.120   0.574   2.781  0.0284  0.0583  0.6425
  113MOL   C13527239   5.244   0.535   2.833  0.3274 -0.4330 -0.6127
  113MOL   C13627240   5.299   0.456   2.713  0.0056 -0.0171 -0.1013
  113MOL   C13727241   5.310   0.668   2.869  0.0523 -0.3436  0.8007
  113MOL   C13827242   5.464   0.669   2.890  0.7204  0.2596 -0.7271
  113MOL   O13927243   5.510   0.728   2.990 -0.0157 -0.1540  0.0546
  113MOL   H14027244   5.240   0.490   2.932 -0.1481  3.1356  1.0506
  113MOL   H14127245   5.397   0.411   2.729 -0.9864 -2.1581  0.0166
  113MOL   H14227246   5.313   0.512   2.620  2.3837  0.5667  0.5880
  113MOL   H14327247   5.231   0.374   2.693 -0.8161  0.3316  1.2467
  113MOL   H14427248   5.261   0.706   2.959  0.3870 -0.0676  0.8645
  113MOL   H14527249   5.282   0.741   2.793  1.7700  1.3132  1.7268
  113MOL   O14627250   5.536   0.621   2.792 -0.1725 -0.3319  0.7660
  113MOL   C14727251   5.674   0.601   2.810  0.9395  0.0182  0.5634
  113MOL   C14827252   5.690   0.466   2.872 -0.1688 -0.2912  0.2075
  113MOL   C14927253   5.751   0.630   2.678 -0.4552 -0.5533  0.6073
  113MOL   C15027254   5.736   0.529   2.563 -0.5462 -0.0865 -0.6445
  113MOL   O15127255   5.756   0.410   2.582 -0.1445  0.1847 -0.4127
  113MOL   H15227256   5.713   0.672   2.883  0.7527 -0.8784  1.5633
  113MOL   H15327257   5.665   0.470   2.978 -0.1459  1.4580  0.1617
  113MOL   H15427258   5.792   0.428   2.865 -0.0724 -0.0384  0.2371
  113MOL   H15527259   5.627   0.389   2.828 -0.5928 -0.7992  1.6556
  113MOL   H15627260   5.853   0.617   2.715  0.3017  1.7859 -0.5566
  113MOL   H15727261   5.725   0.732   2.651 -0.7555 -0.3125  1.8111
  113MOL   O15827262   5.704   0.591   2.449 -0.0424 -0.8292 -0.4339
  113MOL   C15927263   5.692   0.523   2.323 -0.1542 -0.2177 -0.5752
  113MOL   C16027264   5.546   0.560   2.273 -0.1691 -0.6855 -0.4089
  113MOL   C16127265   5.805   0.561   2.238 -0.4619 -0.5237  0.2263
  113MOL   C16227266   5.817   0.477   2.111 -0.0411 -0.5062 -0.9807
  113MOL   O16327267   5.763   0.520   2.009 -0.7197 -0.0434 -0.6472
  113MOL   H16427268   5.705   0.417   2.345  0.6858 -0.4196 -1.9914
  113MOL   H16527269   5.470   0.532   2.345  0.3109  1.9912  1.1763
  113MOL   H16627270   5.522   0.497   2.187  1.6280  0.1934 -1.5750
  113MOL   H16727271   5.547   0.665   2.245 -0.1780 -0.8918 -1.1924
  113MOL   H16827272   5.897   0.549   2.294 -1.0639  0.2225  1.4154
  113MOL   H16927273   5.782   0.664   2.210 -0.0164 -0.4943 -0.0295
  113MOL   O17027274   5.884   0.365   2.124 -0.3814  0.1131  0.4773
  113MOL   C17127275   5.905   0.272   2.018  0.1999  0.5907 -0.1435
  113MOL   C17227276   6.027   0.196   2.066  0.0973 -0.2159  0.8982
  113MOL   C17327277   5.780   0.183   2.005 -0.2281  0.3094  0.0103
  113MOL   C17427278   5.793   0.060   1.913  0.2760  0.4730  0.4831
  113MOL   O17527279   5.843   0.072   1.806  0.0968  0.6289 -0.1873
  113MOL   H17627280   5.927   0.323   1.924  0.7723 -2.1274 -1.5521
  113MOL   H17727281   6.062   0.122   1.994 -1.2645  0.0949 -0.0966
  113MOL   H17827282   5.992   0.139   2.152 -0.7268 -1.0922 -0.0009
  113MOL   H17927283   6.118   0.250   2.094  1.1719 -1.9965  0.9157
  113MOL   H18027284   5.689   0.240   1.987  0.2491  1.1851  0.3678
  113MOL   H18127285   5.762   0.144   2.106  3.4957  0.3806  0.7622
  113MOL   O18227286   5.732   7.936   1.956 -0.3846 -0.0404  0.1915
  113MOL   C18327287   5.732   7.819   1.876  0.3391  0.2262  0.2476
  113MOL   C18427288   5.731   7.704   1.978  0.7682  1.2268  0.5285
  113MOL   C18527289   5.597   7.812   1.795 -1.1414  0.1317 -0.1739
  113MOL   C18627290   5.585   7.889   1.662 -0.9527 -0.4883 -0.2782
  113MOL   O18727291   5.628   7.848   1.556 -0.2837 -0.3307  0.2637
  113MOL   H18827292   5.815   7.818   1.806 -1.3415 -0.5885 -1.8088
  113MOL   H18927293   5.688   7.613   1.937 -0.4652  2.4253 -0.9144
  113MOL   H19027294   5.654   7.733   2.049 -0.5053  0.4622 -0.5152
  113MOL   H19127295   5.820   7.686   2.037  1.7856  0.6597 -1.1424
  113MOL   H19227296   5.517   7.853   1.858 -0.6127  3.1886 -1.3981
  113MOL   H19327297   5.565   7.711   1.769 -2.4007  0.7131 -0.9526
  113MOL   O19427298   5.512   0.026   1.674 -0.5854 -0.7413 -0.1036
  113MOL   C19527299   5.520   0.132   1.575 -0.4621 -0.0566  0.5091
  113MOL   C19627300   5.378   0.190   1.568 -0.1196 -0.2576  0.0981
  113MOL   C19727301   5.620   0.240   1.620 -0.0702  0.2924  0.2324
  113MOL   C19827302   5.638   0.359   1.528  0.4101  0.5215  0.7187
  113MOL   O19927303   5.555   0.446   1.501 -0.3000  0.4427 -1.2245
  113MOL   H20027304   5.551   0.102   1.475 -1.9380 -0.4322  0.1561
  113MOL   H20127305   5.370   0.261   1.485 -1.6197  2.1265  2.2194
  113MOL   H20227306   5.332   0.224   1.660  2.5682 -1.1372  1.8223
  113MOL   H20327307   5.313   0.112   1.528 -1.9749  1.0434  0.4994
  113MOL   H20427308   5.718   0.196   1.640 -1.5445 -3.1979  0.0151
  113MOL   H20527309   5.576   0.292   1.705 -0.0206 -0.5296  0.7678
  113MOL   O20627310   5.767   0.365   1.476  0.5511 -0.1192 -0.5884
  113MOL   C20727311   5.801   0.466   1.383 -0.1427 -0.2604 -0.7767
  113MOL   C20827312   5.882   0.576   1.451  0.5491  0.3679 -0.7010
  113MOL   C20927313   5.882   0.396   1.270 -0.7652 -0.2894  0.3363
  113MOL   C21027314   5.794   0.325   1.172  0.3388  0.2200  0.1124
  113MOL   O21127315   5.793   0.199   1.168  0.3484  0.2716  0.0180
  113MOL   H21227316   5.722   0.515   1.325 -1.5141 -2.2361 -0.6028
  113MOL   H21327317   5.841   0.608   1.547 -0.5083 -2.5482 -0.1533
  113MOL   H21427318   5.883   0.664   1.386  0.7806  1.3186  0.5663
  113MOL   H21527319   5.987   0.552   1.468  0.3244 -0.3510 -0.3274
  113MOL   H21627320   5.951   0.327   1.317 -0.3728 -0.2746 -0.2106
  113MOL   H21727321   5.948   0.468   1.222  2.0198 -3.4393 -0.7166
  113MOL   O21827322   5.712   0.409   1.103  0.2292 -0.0069  0.8475
  113MOL   C21927323   5.610   0.349   1.023  0.4423  0.2187 -0.6313
  113MOL   C22027324   5.474   0.390   1.073 -0.0025 -0.0600 -0.5214
  113MOL   C22127325   5.637   0.381   0.880  0.6797 -0.8844 -0.2349
  113MOL   C22227326   5.541   0.328   0.773 -0.3164  0.0650 -0.1129
  113MOL   O22327327   5.505   0.399   0.679 -0.3454 -0.1326 -0.3052
  113MOL   H22427328   5.607   0.241   1.034 -1.4834  0.1262 -1.8900
  113MOL   H22527329   5.460   0.498   1.058  0.5380  0.2922  1.4314
  113MOL   H22627330   5.464   0.365   1.178  2.5014 -0.1657 -0.2824
  113MOL   H22727331   5.397   0.339   1.015 -1.4065  1.8593 -0.4098
  113MOL   H22827332   5.738   0.369   0.839  1.3555  1.2884  0.7232
  113MOL   H22927333   5.636   0.489   0.867 -1.2631 -0.6508  1.7165
  113MOL   O23027334   5.515   0.192   0.785  0.4552 -0.1524  0.3961
  113MOL   C23127335   5.424   0.129   0.686  0.3562 -0.5414 -0.1824
  113MOL   C23227336   5.453   7.959   0.658 -0.1632  0.0382 -0.9364
  113MOL   C23327337   5.283   0.146   0.743 -1.1541 -0.8215 -0.2828
  113MOL   C23427338   5.256   0.080   0.877 -0.5736 -0.5026 -0.0703
  113MOL   O23527339   5.141   0.059   0.926  0.0819  0.4444  0.4859
  113MOL   H23627340   5.432   0.177   0.589 -0.6970  0.4507  0.2020
  113MOL   H23727341   5.559   7.943   0.640 -0.0480 -0.2591 -0.0189
  113MOL   H23827342   5.401   7.911   0.575 -1.9032 -1.4772  0.9754
  113MOL   H23927343   5.444   7.900   0.750  0.5598 -0.4812 -1.1910
  113MOL   H24027344   5.210   0.117   0.668 -0.5488  1.2445 -1.6947
  113MOL   H24127345   5.263   0.251   0.763 -0.9971 -0.7360 -0.5850
  113MOL   H24227346   5.347   0.064   0.935  0.7555 -1.2266 -2.3043
  114MOL     O127347   3.046   5.123   1.228  0.2296 -0.0041 -0.0416
  114MOL     C227348   3.049   5.111   1.085  0.3020 -0.2107  0.3438
  114MOL     C327349   2.936   5.203   1.031  0.5001  0.9106  0.2407
  114MOL     C427350   3.193   5.135   1.035 -0.7999  0.1418  0.5670
  114MOL     C527351   3.231   5.064   0.904 -0.2184 -0.8473 -0.2346
  114MOL     O627352   3.305   4.964   0.899  0.1352 -0.5165 -0.5016
  114MOL     H727353   3.025   5.007   1.063 -3.0044  0.5929 -0.0388
  114MOL     H827354   2.839   5.174   1.070  0.3262  3.1529  1.5630
  114MOL     H927355   2.931   5.188   0.923  0.0262 -0.2701  0.4234
  114MOL    H1027356   2.955   5.310   1.041  1.4102  0.8986 -1.1533
  114MOL    H1127357   3.270   5.120   1.111 -0.0668  2.2022  0.2872
  114MOL    H1227358   3.210   5.239   1.004 -3.0095  1.0112  2.1689
  114MOL    H1327359   2.998   5.049   1.261 -1.0976 -0.0453 -1.9416
  114MOL    O1427360   3.180   5.128   0.793 -0.4066 -0.5315 -0.1387
  114MOL    C1527361   3.204   5.071   0.666  0.6630 -0.0958 -0.7027
  114MOL    C1627362   3.111   5.127   0.559  1.0096  0.4531 -0.5417
  114MOL    C1727363   3.352   5.096   0.618 -0.8603  0.3518 -0.5462
  114MOL    C1827364   3.391   5.234   0.567 -0.6531 -0.5035 -0.1285
  114MOL    O1927365   3.435   5.243   0.454 -0.2093  0.0546  0.1404
  114MOL    H2027366   3.170   4.969   0.678  0.0982  0.1455 -0.2541
  114MOL    H2127367   3.137   5.076   0.465 -1.7304  1.8210 -2.0880
  114MOL    H2227368   3.103   5.231   0.530 -1.4756  0.3651 -0.2925
  114MOL    H2327369   3.006   5.105   0.578  0.9575  1.3130  0.1534
  114MOL    H2427370   3.362   5.036   0.527  2.4715  0.1286 -0.0902
  114MOL    H2527371   3.437   5.073   0.682  0.2721  0.4679 -1.9794
  114MOL    O2627372   3.353   5.340   0.649 -0.2162 -0.1835  0.0547
  114MOL    C2727373   3.365   5.476   0.609 -0.6038 -0.2337  0.1979
  114MOL    C2827374   3.222   5.510   0.554  0.2432  0.3288 -0.2306
  114MOL    C2927375   3.405   5.562   0.737  0.1626  0.3024  0.3591
  114MOL    C3027376   3.550   5.536   0.786 -0.3654 -0.4150 -0.1181
  114MOL    O3127377   3.643   5.513   0.712 -0.2330 -0.0058  0.9253
  114MOL    H3227378   3.438   5.484   0.528 -1.3152 -2.0127 -0.6286
  114MOL    H3327379   3.207   5.459   0.459 -0.5218  0.2594 -0.0756
  114MOL    H3427380   3.206   5.612   0.519 -1.4312 -0.3866 -1.6128
  114MOL    H3527381   3.137   5.479   0.614 -1.1290 -0.7552 -2.6870
  114MOL    H3627382   3.351   5.538   0.828  1.9248 -0.8770  1.1023
  114MOL    H3727383   3.391   5.666   0.706  1.8047  0.6462  0.7436
  114MOL    O3827384   3.577   5.543   0.926 -0.3204 -0.1042  0.0304
  114MOL    C3927385   3.718   5.522   0.971 -0.5573 -0.7320  0.1917
  114MOL    C4027386   3.782   5.654   0.980  0.1945 -0.5710  0.4593
  114MOL    C4127387   3.707   5.465   1.114 -0.1887 -0.0998 -0.8214
  114MOL    C4227388   3.631   5.330   1.116 -0.0810 -0.6985  0.5904
  114MOL    O4327389   3.534   5.325   1.189  0.8377 -0.1140 -0.0372
  114MOL    H4427390   3.766   5.454   0.901  3.4886  0.0059  2.1106
  114MOL    H4527391   3.783   5.697   0.880 -2.0793 -0.2781  0.5458
  114MOL    H4627392   3.886   5.637   1.007 -0.2510 -0.8758  2.0625
  114MOL    H4727393   3.732   5.716   1.054 -1.5620 -1.8965  0.4092
  114MOL    H4827394   3.657   5.533   1.183  0.8140  0.3941 -0.5663
  114MOL    H4927395   3.808   5.452   1.154 -0.6002 -0.0970  0.2210
  114MOL    O5027396   3.690   5.235   1.031 -0.3371 -0.6964  0.6264
  114MOL    C5127397   3.647   5.101   1.032 -0.2084 -0.5759 -0.5501
  114MOL    C5227398   3.677   5.050   0.892  0.1309  0.0463  0.2255
  114MOL    C5327399   3.726   5.031   1.143  0.5792  0.1440 -0.3255
  114MOL    C5427400   3.714   4.875   1.152 -0.2359  0.1948 -0.1252
  114MOL    O5527401   3.628   4.815   1.098  0.2032  0.2858  0.6776
  114MOL    H5627402   3.540   5.113   1.050 -0.2583  0.9830 -1.7240
  114MOL    H5727403   3.633   4.951   0.887  0.4841 -0.0698 -0.7739
  114MOL    H5827404   3.785   5.041   0.878  0.1779  4.1472 -3.0940
  114MOL    H5927405   3.632   5.122   0.824  0.4199 -0.3557 -0.3950
  114MOL    H6027406   3.686   5.059   1.240 -0.9204  0.8021 -1.1171
  114MOL    H6127407   3.826   5.072   1.130  0.2055  0.7186 -1.4461
  114MOL    O6227408   3.820   4.825   1.218 -0.1981  0.1186 -0.4829
  114MOL    C6327409   3.832   4.687   1.262 -0.0343 -0.0735  0.2934
  114MOL    C6427410   3.902   4.610   1.154  0.0004 -0.4078  0.3777
  114MOL    C6527411   3.891   4.672   1.408 -0.3385 -0.1062 -0.1872
  114MOL    C6627412   4.040   4.709   1.424  0.0090  0.2061 -0.0062
  114MOL    O6727413   4.119   4.620   1.454  0.7498  0.5444 -0.0948
  114MOL    H6827414   3.729   4.653   1.259  0.5190 -1.8726  0.9196
  114MOL    H6927415   3.915   4.504   1.178 -2.2005 -0.9092 -0.5455
  114MOL    H7027416   3.999   4.657   1.140  0.3442 -1.6502 -1.6013
  114MOL    H7127417   3.852   4.624   1.058 -0.7519 -1.1015  0.6552
  114MOL    H7227418   3.885   4.570   1.447 -0.4462  0.4501  1.2901
  114MOL    H7327419   3.837   4.734   1.479 -0.7854 -1.6509  0.8556
  114MOL    O7427420   4.070   4.832   1.398 -0.1240 -0.5801 -0.6044
  114MOL    C7527421   4.207   4.876   1.390 -0.0923 -0.1413 -0.2055
  114MOL    C7627422   4.214   5.009   1.318  0.8027  0.7539 -0.5426
  114MOL    C7727423   4.290   4.887   1.526 -0.6729 -0.0986 -0.5942
  114MOL    C7827424   4.437   4.893   1.496  0.8926  0.0255  0.2880
  114MOL    O7927425   4.496   4.791   1.457  0.4450  0.0220 -0.2489
  114MOL    H8027426   4.263   4.808   1.324 -1.1651  0.7803 -2.1166
  114MOL    H8127427   4.186   4.988   1.214 -3.4531  0.1933  0.6095
  114MOL    H8227428   4.316   5.046   1.317  0.9388  0.3868 -0.1397
  114MOL    H8327429   4.152   5.092   1.352  0.5651  0.5023 -0.3667
  114MOL    H8427430   4.267   4.800   1.586  1.9498  1.2603  2.5065
  114MOL    H8527431   4.258   4.962   1.598  1.3917 -0.0744  0.3047
  114MOL    O8627432   4.484   5.018   1.503  0.0254  0.0408 -0.3726
  114MOL    C8727433   4.616   5.060   1.477 -0.2114  0.4092 -0.2830
  114MOL    C8827434   4.623   5.209   1.504  0.3084  0.8551 -0.0773
  114MOL    C8927435   4.725   4.979   1.552  0.2655 -0.0255  0.2084
  114MOL    C9027436   4.873   5.007   1.512  0.6919 -0.0247 -0.1953
  114MOL    O9127437   4.957   4.975   1.597  0.3808  0.0142 -0.2243
  114MOL    H9227438   4.628   5.042   1.371 -0.8642 -0.4401 -0.2118
  114MOL    H9327439   4.555   5.265   1.440 -0.4919 -0.4207 -0.3593
  114MOL    H9427440   4.727   5.243   1.506  1.3608 -1.9399 -2.2098
  114MOL    H9527441   4.593   5.226   1.607  0.9060 -0.4405  0.3296
  114MOL    H9627442   4.710   4.874   1.524  1.8334 -0.3736  0.6611
  114MOL    H9727443   4.725   4.992   1.660  3.3543  1.5672  0.0597
  114MOL    O9827444   4.891   5.085   1.408  1.0657  0.0241  0.2286
  114MOL    C9927445   5.020   5.117   1.364  0.4633  0.0451  0.0400
  114MOL   C10027446   5.048   5.016   1.246  0.4661  0.0725 -0.4623
  114MOL   C10127447   5.023   5.257   1.314  0.8771 -0.2467  0.3557
  114MOL   C10227448   5.060   5.347   1.430 -0.1647  0.3224 -0.0194
  114MOL   O10327449   4.979   5.426   1.473 -0.1625  0.0622  0.4385
  114MOL   H10427450   5.088   5.090   1.445  0.8204 -2.8294 -1.1628
  114MOL   H10527451   5.084   4.917   1.272  1.3592 -0.5664 -3.8944
  114MOL   H10627452   5.134   5.037   1.182  1.0001  1.0118  0.5314
  114MOL   H10727453   4.960   4.997   1.185  0.8148  0.6967 -1.1684
  114MOL   H10827454   4.929   5.294   1.273  1.3143 -0.0683 -0.5141
  114MOL   H10927455   5.104   5.258   1.240  0.7664  1.3575  0.2389
  114MOL   O11027456   5.183   5.327   1.474 -0.4412  0.5930  0.6232
  114MOL   C11127457   5.229   5.380   1.593  0.2377  0.3299 -1.1568
  114MOL   C11227458   5.254   5.260   1.674  0.2324 -0.1542 -0.6821
  114MOL   C11327459   5.346   5.468   1.566  0.5495 -0.3408  0.2251
  114MOL   C11427460   5.400   5.528   1.696 -0.3030 -0.5322 -0.4243
  114MOL   O11527461   5.323   5.560   1.786  0.5129  0.1252 -0.0656
  114MOL   H11627462   5.151   5.435   1.646  0.5125  1.3013 -1.7272
  114MOL   H11727463   5.317   5.284   1.760  0.8687  0.2113 -1.2435
  114MOL   H11827464   5.309   5.189   1.612 -0.0844  0.2943 -1.4855
  114MOL   H11927465   5.160   5.218   1.708  0.2744  1.6507  1.8288
  114MOL   H12027466   5.321   5.543   1.490 -0.4436 -1.0916 -0.1853
  114MOL   H12127467   5.426   5.415   1.515 -0.0167  0.1823 -1.2365
  114MOL   O12227468   5.538   5.531   1.685  0.6227 -0.7262  0.2025
  114MOL   C12327469   5.626   5.612   1.766 -0.8425  0.2354 -0.0686
  114MOL   C12427470   5.682   5.529   1.883 -0.0114  0.1845 -0.0089
  114MOL   C12527471   5.733   5.676   1.678 -0.6516  0.0555  0.1349
  114MOL   C12627472   5.690   5.810   1.617 -0.0197 -0.4282 -0.2669
  114MOL   O12727473   5.770   5.896   1.608 -0.1429  0.4333 -0.3952
  114MOL   H12827474   5.579   5.699   1.811  0.8489  1.2837 -0.3088
  114MOL   H12927475   5.600   5.514   1.954 -0.6014  2.7140 -0.0927
  114MOL   H13027476   5.761   5.587   1.931  0.0899 -0.5211  0.6859
  114MOL   H13127477   5.722   5.431   1.857  0.3703  0.2312  0.3984
  114MOL   H13227478   5.759   5.600   1.604  1.9738 -0.8297  1.8559
  114MOL   H13327479   5.831   5.697   1.721  0.7316 -0.1802 -2.7554
  114MOL   O13427480   5.555   5.807   1.578 -0.5417 -0.2544 -0.0439
  114MOL   C13527481   5.508   5.921   1.504 -0.6370  0.6379  1.1157
  114MOL   C13627482   5.406   5.865   1.398  0.5507  0.2058 -0.6740
  114MOL   C13727483   5.446   6.012   1.612 -0.3507 -0.2847  0.0015
  114MOL   C13827484   5.422   6.153   1.566 -0.1740  0.1507  0.2757
  114MOL   O13927485   5.427   6.185   1.446 -0.1546 -0.0422  0.1452
  114MOL   H14027486   5.588   5.972   1.451 -2.0585 -0.9700 -2.7936
  114MOL   H14127487   5.379   5.951   1.336 -0.8947 -0.1221 -0.5037
  114MOL   H14227488   5.313   5.818   1.430  0.3463  1.3659  0.5072
  114MOL   H14327489   5.455   5.786   1.342 -3.0088 -2.8764  0.3616
  114MOL   H14427490   5.523   6.005   1.689  0.3477  0.0717 -0.6614
  114MOL   H14527491   5.353   5.975   1.655 -1.1179  0.7569 -0.7353
  114MOL   O14627492   5.400   6.244   1.668  0.1883 -0.1000 -0.3540
  114MOL   C14727493   5.404   6.383   1.640  0.1608 -0.1082 -0.4938
  114MOL   C14827494   5.263   6.433   1.674 -0.2937  0.3412  0.4680
  114MOL   C14927495   5.505   6.474   1.722 -1.0154  0.1525 -1.6400
  114MOL   C15027496   5.652   6.479   1.672  0.0276 -0.2753  0.3759
  114MOL   O15127497   5.718   6.582   1.686  0.0168  0.4769 -0.2226
  114MOL   H15227498   5.414   6.392   1.532  1.9192 -1.1050 -0.4250
  114MOL   H15327499   5.197   6.360   1.628 -3.2121  1.2284  3.0351
  114MOL   H15427500   5.243   6.535   1.640  1.4534  0.5378 -0.0383
  114MOL   H15527501   5.236   6.428   1.779 -1.2731  2.2346  0.3389
  114MOL   H15627502   5.507   6.435   1.824  1.3196 -3.1988 -2.8767
  114MOL   H15727503   5.484   6.581   1.722 -2.0698  0.0053  1.7956
  114MOL   O15827504   5.692   6.366   1.606  0.5319  0.0046  0.8625
  114MOL   C15927505   5.822   6.351   1.560 -0.3664  0.5262  0.6338
  114MOL   C16027506   5.862   6.202   1.553 -0.1724  0.0846 -0.0591
  114MOL   C16127507   5.831   6.424   1.419 -0.2915  0.4738 -0.3084
  114MOL   C16227508   5.971   6.438   1.372  0.0424 -1.0027 -0.3015
  114MOL   O16327509   6.061   6.487   1.439  0.3260  0.1060  0.1979
  114MOL   H16427510   5.890   6.407   1.625 -0.1537  1.1019 -0.0741
  114MOL   H16527511   5.968   6.179   1.543 -0.4331 -1.1403 -0.0282
  114MOL   H16627512   5.807   6.161   1.469 -1.2652 -1.6623  1.4895
  114MOL   H16727513   5.820   6.146   1.636 -0.0219  0.0515 -0.0041
  114MOL   H16827514   5.781   6.520   1.430 -2.1259 -0.6685  1.7402
  114MOL   H16927515   5.773   6.365   1.348  0.0535 -1.2817  0.8097
  114MOL   O17027516   5.992   6.395   1.233  0.3274  0.3008 -0.1424
  114MOL   C17127517   6.124   6.388   1.175  0.2509 -0.0315 -0.4735
  114MOL   C17227518   6.112   6.292   1.055  0.1990  0.5286 -0.0536
  114MOL   C17327519   6.172   6.527   1.137 -0.3313  1.0099 -0.7483
  114MOL   C17427520   6.319   6.528   1.082 -0.2488 -1.1815 -0.3952
  114MOL   O17527521   6.350   6.561   0.966  0.0637  0.0468  0.2711
  114MOL   H17627522   6.201   6.340   1.236 -0.1361 -1.2792 -0.9518
  114MOL   H17727523   6.075   6.339   0.964  1.7191  3.2103  0.6474
  114MOL   H17827524   6.051   6.203   1.072  2.4003 -0.9492  0.3039
  114MOL   H17927525   6.209   6.249   1.034 -0.0443  0.6286 -1.4121
  114MOL   H18027526   6.174   6.597   1.221  1.5513  0.3608 -0.2434
  114MOL   H18127527   6.115   6.574   1.056 -2.3163 -1.0910 -0.6179
  114MOL   O18227528   6.405   6.492   1.184 -0.1145  0.4106  0.5466
  114MOL   C18327529   6.547   6.480   1.160  0.1479 -0.0972 -0.6803
  114MOL   C18427530   6.619   6.560   1.272 -0.5845 -0.2314  1.0465
  114MOL   C18527531   6.587   6.331   1.152  0.1223  0.3241  0.7823
  114MOL   C18627532   6.726   6.310   1.098  0.1151 -0.8515  0.7613
  114MOL   O18727533   6.753   6.222   1.015 -0.8096 -0.2540  0.0019
  114MOL   H18827534   6.589   6.525   1.069  0.9628  0.2356 -0.1491
  114MOL   H18927535   6.703   6.617   1.232 -1.0040 -0.5157 -0.2489
  114MOL   H19027536   6.654   6.485   1.343  0.4424 -1.9992 -1.2576
  114MOL   H19127537   6.553   6.626   1.328  0.1464 -0.3414  2.0478
  114MOL   H19227538   6.515   6.275   1.093  0.5605  2.4156 -1.8741
  114MOL   H19327539   6.593   6.292   1.253 -0.5579 -1.9422 -0.0306
  114MOL   O19427540   6.820   6.380   1.165  0.1434 -0.5867  0.0686
  114MOL   C19527541   6.962   6.380   1.143  0.3296 -0.7694  0.1776
  114MOL   C19627542   6.994   6.513   1.058  0.1732 -0.0177 -0.9981
  114MOL   C19727543   7.035   6.360   1.279 -0.2922 -0.6195  0.4933
  114MOL   C19827544   7.164   6.273   1.267  0.3941  0.3539 -0.1756
  114MOL   O19927545   7.233   6.266   1.171 -0.5678  0.5519 -0.5197
  114MOL   H20027546   6.999   6.298   1.082  0.9112 -0.5987  0.3049
  114MOL   H20127547   7.100   6.536   1.062 -0.0281  0.7897  0.5682
  114MOL   H20227548   6.940   6.604   1.085  0.9572 -0.5969  2.9382
  114MOL   H20327549   6.966   6.498   0.954 -1.3770 -3.2738 -0.1973
  114MOL   H20427550   6.978   6.315   1.360  0.5103 -2.7208 -0.0800
  114MOL   H20527551   7.066   6.460   1.310 -0.0817 -0.2015 -1.0070
  114MOL   O20627552   7.182   6.209   1.384 -0.6008  0.1446  0.4606
  114MOL   C20727553   7.304   6.141   1.414 -0.6211 -0.3443  0.9035
  114MOL   C20827554   7.400   6.236   1.484 -0.8596 -0.4663 -0.2012
  114MOL   C20927555   7.283   6.016   1.502 -0.1131 -0.2182 -0.2920
  114MOL   C21027556   7.190   5.912   1.430 -0.0532 -0.2673  0.0846
  114MOL   O21127557   7.086   5.873   1.482 -0.0180  0.7772 -0.5642
  114MOL   H21227558   7.349   6.118   1.318  0.6378  0.2703  1.3318
  114MOL   H21327559   7.498   6.193   1.501 -0.4154  0.8090  0.5973
  114MOL   H21427560   7.361   6.267   1.581 -1.8566  2.1476 -1.3899
  114MOL   H21527561   7.421   6.328   1.429 -0.6999  0.3808  1.2540
  114MOL   H21627562   7.234   6.044   1.595  0.6627 -1.6243  0.5486
  114MOL   H21727563   7.381   5.971   1.516  0.9439  2.1348  0.2151
  114MOL   O21827564   7.248   5.878   1.309  0.2530  0.1608  0.3057
  114MOL   C21927565   7.158   5.823   1.213 -0.5118 -0.4972 -0.5953
  114MOL   C22027566   7.133   5.920   1.097  0.0516  0.3547  0.5884
  114MOL   C22127567   7.229   5.698   1.162 -0.3404 -0.4877 -0.2884
  114MOL   C22227568   7.196   5.569   1.240  0.1336  0.0435  0.1706
  114MOL   O22327569   7.283   5.525   1.313 -0.5880 -0.2438 -0.4409
  114MOL   H22427570   7.054   5.810   1.243  0.4514 -2.0579  2.3186
  114MOL   H22527571   7.232   5.964   1.085  1.3625 -2.2848  1.2741
  114MOL   H22627572   7.072   6.002   1.136 -0.1495  0.4269  0.1252
  114MOL   H22727573   7.085   5.891   1.004  0.0733 -0.7052  0.9043
  114MOL   H22827574   7.336   5.719   1.163 -0.0328 -1.9816  1.9164
  114MOL   H22927575   7.185   5.672   1.066 -4.2199  2.3114  0.6268
  114MOL   O23027576   7.073   5.535   1.221  0.1038 -0.2798 -0.2084
  114MOL   C23127577   7.022   5.421   1.296 -1.0105 -0.6054 -0.2897
  114MOL   C23227578   6.878   5.463   1.332 -0.2040  0.1646  0.1830
  114MOL   C23327579   7.038   5.289   1.227 -0.3903  0.7057  0.6756
  114MOL   C23427580   6.952   5.271   1.103 -0.4224 -0.8531 -0.1410
  114MOL   O23527581   6.915   5.155   1.070  0.0246  0.1529 -0.0658
  114MOL   H23627582   7.073   5.411   1.392 -1.8651  1.0824  0.3745
  114MOL   H23727583   6.870   5.564   1.371 -0.2765  1.4273 -2.9329
  114MOL   H23827584   6.835   5.396   1.407  1.2985  0.5960  1.4419
  114MOL   H23927585   6.817   5.451   1.242  0.4692  2.3817 -0.5998
  114MOL   H24027586   7.017   5.197   1.282  1.9555 -0.1990  0.0836
  114MOL   H24127587   7.141   5.281   1.193 -0.1253 -1.7560  1.9655
  114MOL   H24227588   6.919   5.360   1.049  0.2070 -0.5649 -0.0613
  115MOL     O127589   7.563   6.606   7.092 -0.2581  0.4747  0.4584
  115MOL     C227590   7.582   6.479   7.163 -0.0689  0.1544  0.7818
  115MOL     C327591   7.630   6.517   7.306  0.1526  0.1310  0.4442
  115MOL     C427592   7.437   6.422   7.156  0.6308 -0.3026 -0.3423
  115MOL     C527593   7.417   6.294   7.226 -0.2068 -0.5740  0.0471
  115MOL     O627594   7.463   6.195   7.177 -0.1073  0.3400  0.4988
  115MOL     H727595   7.646   6.401   7.122 -0.2696 -0.9634  2.5797
  115MOL     H827596   7.558   6.567   7.370 -0.7488  0.9320 -1.1729
  115MOL     H927597   7.713   6.587   7.295  1.8543 -1.8617  0.2147
  115MOL    H1027598   7.675   6.427   7.350 -1.1315 -0.0302  1.4399
  115MOL    H1127599   7.395   6.406   7.057 -0.0145  1.1533 -0.3251
  115MOL    H1227600   7.367   6.495   7.198  0.5502  0.3308 -1.5671
  115MOL    H1327601   7.554   6.596   6.999 -3.8098  1.6262  0.5964
  115MOL    O1427602   7.348   6.297   7.340 -0.2565 -0.2762  0.2341
  115MOL    C1527603   7.328   6.178   7.418 -0.5645 -0.3816 -0.3073
  115MOL    C1627604   7.375   6.226   7.559 -0.4148  0.1240  0.1760
  115MOL    C1727605   7.188   6.121   7.408  0.0474  0.0186 -0.0456
  115MOL    C1827606   7.158   6.012   7.514 -0.9592 -1.3054 -0.0268
  115MOL    O1927607   7.100   6.039   7.619 -0.6529 -0.6053  0.0998
  115MOL    H2027608   7.411   6.109   7.403  0.5046  1.2655 -2.2361
  115MOL    H2127609   7.476   6.265   7.552 -0.5797  0.2435 -2.1719
  115MOL    H2227610   7.365   6.159   7.645 -2.2624  0.4168  0.2030
  115MOL    H2327611   7.299   6.298   7.587 -0.1811  0.2392  0.5149
  115MOL    H2427612   7.167   6.088   7.307 -3.2481  2.1658 -0.1265
  115MOL    H2527613   7.112   6.198   7.420  1.1166  0.9584  0.8056
  115MOL    O2627614   7.209   5.894   7.480 -0.6588  0.5483 -0.1161
  115MOL    C2727615   7.205   5.778   7.565 -0.1482  0.0014 -0.3087
  115MOL    C2827616   7.232   5.656   7.474  0.5351  0.0919  0.3936
  115MOL    C2927617   7.302   5.796   7.687 -0.2460 -0.2497  0.2090
  115MOL    C3027618   7.447   5.784   7.653 -0.2372 -0.6533  0.6026
  115MOL    O3127619   7.511   5.700   7.710  0.1407 -0.3423 -0.2869
  115MOL    H3227620   7.101   5.774   7.596 -0.4743  2.2963 -1.0510
  115MOL    H3327621   7.328   5.664   7.422  0.9976 -4.2676  0.3143
  115MOL    H3427622   7.154   5.662   7.399 -0.7582 -0.5807  1.6637
  115MOL    H3527623   7.228   5.562   7.531  0.7719 -0.0997  0.0995
  115MOL    H3627624   7.274   5.722   7.763 -1.7263 -0.7362 -0.7899
  115MOL    H3727625   7.282   5.888   7.742  1.1926 -0.2144  0.7066
  115MOL    O3827626   7.490   5.880   7.574 -0.4763  0.3930 -0.2577
  115MOL    C3927627   7.625   5.874   7.531  0.2654  0.0351 -0.0524
  115MOL    C4027628   7.641   5.924   7.388 -0.0650 -0.1118  0.2815
  115MOL    C4127629   7.715   5.947   7.636  0.2886  0.0143  0.4721
  115MOL    C4227630   7.839   5.862   7.659 -0.6641  0.2410  0.4094
  115MOL    O4327631   7.875   5.766   7.593 -0.2133 -0.1769 -0.4723
  115MOL    H4427632   7.643   5.767   7.523  0.8831  0.3154 -2.7903
  115MOL    H4527633   7.600   6.024   7.374  0.4412  0.5877  3.4822
  115MOL    H4627634   7.595   5.847   7.325  1.9203 -0.6989 -0.4951
  115MOL    H4727635   7.748   5.928   7.364 -0.1703  1.8452  0.0998
  115MOL    H4827636   7.673   5.946   7.736 -0.3338 -0.3968  0.2124
  115MOL    H4927637   7.751   6.043   7.600  1.8933 -1.6418 -2.6109
  115MOL    O5027638   7.910   5.895   7.771 -0.4800 -0.4221 -0.1571
  115MOL    C5127639   0.033   5.811   7.823 -0.8851 -0.3415  0.4587
  115MOL    C5227640   0.168   5.852   7.773  0.2577 -0.1463 -0.7777
  115MOL    C5327641   0.029   5.809   7.976 -0.5656  0.5724 -0.4582
  115MOL    C5427642   7.874   5.761   0.058 -0.1711  0.7903 -0.2807
  115MOL    O5527643   7.866   5.638   0.069  0.1901 -0.3350  0.3026
  115MOL    H5627644   0.022   5.711   7.782 -0.1362  0.0235 -0.6390
  115MOL    H5727645   0.180   5.837   7.666  1.4076 -2.5332 -0.3289
  115MOL    H5827646   0.248   5.799   7.823 -0.1479 -2.0062 -2.0461
  115MOL    H5927647   0.178   5.960   7.785 -0.4094 -0.2189  0.5078
  115MOL    H6027648   0.045   5.910   0.034  0.2865 -0.1552  1.1860
  115MOL    H6127649   0.108   5.743   0.033 -0.4156  1.7190  1.3484
  115MOL    O6227650   7.791   5.861   0.078 -0.5893  0.0992  0.1062
  115MOL    C6327651   7.655   5.845   0.121  0.5980  0.0963 -0.2977
  115MOL    C6427652   7.612   5.939   0.237  0.1764  0.1116  0.0669
  115MOL    C6527653   7.553   5.847   0.008  0.2924  0.1764  0.8673
  115MOL    C6627654   7.420   5.783   0.043  0.6049  0.4176  0.4733
  115MOL    O6727655   7.319   5.852   0.037 -0.6613  0.8215  0.2682
  115MOL    H6827656   7.641   5.745   0.163  0.4855  0.5500  0.7616
  115MOL    H6927657   7.590   6.043   0.213  2.3920  0.4999 -0.4260
  115MOL    H7027658   7.688   5.932   0.315 -1.7370 -0.9032  1.8930
  115MOL    H7127659   7.526   5.895   0.287  0.3441 -1.9494 -1.3807
  115MOL    H7227660   7.595   5.787   7.908 -1.5814  2.4643 -1.9280
  115MOL    H7327661   7.552   5.951   7.955 -1.3348  0.2527  1.1058
  115MOL    O7427662   7.421   5.650   0.064 -0.1313 -0.2256  0.2886
  115MOL    C7527663   7.307   5.570   0.068  0.1435  0.2979 -0.5791
  115MOL    C7627664   7.334   5.449   7.953  0.1803 -0.5624  0.8634
  115MOL    C7727665   7.274   5.534   0.216 -0.2250  0.1032  0.0657
  115MOL    C7827666   7.368   5.441   0.290 -0.0733  0.5722 -1.3571
  115MOL    O7927667   7.440   5.480   0.382  0.4552  0.0773  0.3613
  115MOL    H8027668   7.214   5.605   0.025 -0.8191  0.0185  1.2146
  115MOL    H8127669   7.246   5.384   7.959  0.5518 -1.5968 -3.4902
  115MOL    H8227670   7.419   5.389   0.003 -0.5503 -2.2783 -0.4603
  115MOL    H8327671   7.348   5.472   7.848 -2.0302 -1.7670  0.2644
  115MOL    H8427672   7.176   5.486   0.219  0.9990 -2.4304  0.4520
  115MOL    H8527673   7.268   5.629   0.269 -1.7953 -0.2963  0.6267
  115MOL    O8627674   7.359   5.316   0.250  0.4153  0.3506 -0.1135
  115MOL    C8727675   7.461   5.223   0.277 -0.1281  0.0190 -0.4888
  115MOL    C8827676   7.385   5.087   0.278 -0.7235 -0.6077  0.2891
  115MOL    C8927677   7.572   5.242   0.174 -0.5472  0.0631  0.0635
  115MOL    C9027678   7.702   5.180   0.231 -0.2934 -0.1294  0.3114
  115MOL    O9127679   7.765   5.239   0.315 -0.5612  0.2438 -0.2344
  115MOL    H9227680   7.491   5.243   0.380 -1.0316  1.3666 -0.4749
  115MOL    H9327681   7.441   4.994   0.269  1.3337  0.5401  0.8258
  115MOL    H9427682   7.329   5.093   0.185  0.2575  2.3002 -0.1735
  115MOL    H9527683   7.312   5.072   0.357  0.0002  1.0641  1.3151
  115MOL    H9627684   7.592   5.349   0.158 -1.8838  0.1869 -0.8441
  115MOL    H9727685   7.547   5.187   0.084  1.4076 -0.6912 -0.0397
  115MOL    O9827686   7.731   5.052   0.184  0.3070  0.2760 -0.0053
  115MOL    C9927687   7.858   4.993   0.213 -0.2280  0.6060  0.5418
  115MOL   C10027688   7.834   4.909   0.343  0.8731  0.6946  0.7006
  115MOL   C10127689   7.906   4.909   0.100 -0.4032  0.2963  0.1832
  115MOL   C10227690   0.064   4.846   0.122 -0.9390  0.3695 -0.1217
  115MOL   O10327691   0.077   4.726   0.150  0.0696  0.1708 -0.1492
  115MOL   H10427692   7.933   5.071   0.228  1.7204 -0.9943 -0.6347
  115MOL   H10527693   7.791   4.959   0.430 -0.3232 -1.7152  1.5346
  115MOL   H10627694   7.925   4.860   0.380  0.5190 -1.0109 -0.6256
  115MOL   H10727695   7.773   4.824   0.314  0.1716  1.7115 -0.8532
  115MOL   H10827696   7.910   4.967   0.008 -0.3066 -1.3260 -0.8497
  115MOL   H10927697   7.827   4.839   0.071 -0.1045  0.5052 -1.2014
  115MOL   O11027698   0.169   4.922   0.093 -0.4422 -0.5005  0.1083
  115MOL   C11127699   0.304   4.870   0.070 -0.4356  0.5272 -0.2502
  115MOL   C11227700   0.322   4.833   7.899 -1.1671  0.0587 -0.1095
  115MOL   C11327701   0.398   4.982   0.109  0.4006  0.0786  0.4430
  115MOL   C11427702   0.424   5.002   0.254 -0.2744 -0.2840  0.4565
  115MOL   O11527703   0.412   4.915   0.335 -0.1217  0.0567 -0.1385
  115MOL   H11627704   0.326   4.784   0.133  0.4871 -1.5058 -3.2643
  115MOL   H11727705   0.430   4.828   7.889 -1.0111  1.9110  0.3782
  115MOL   H11827706   0.280   4.913   7.837 -0.5648 -1.0199 -1.9562
  115MOL   H11927707   0.275   4.737   7.877  0.9280 -0.8133 -0.9538
  115MOL   H12027708   0.361   5.072   0.060 -2.2332 -1.4921 -0.5707
  115MOL   H12127709   0.495   4.967   0.062  0.1216 -0.3922  0.0031
  115MOL   O12227710   0.475   5.130   0.286 -0.0119  0.6262 -0.2554
  115MOL   C12327711   0.534   5.152   0.418 -0.1319 -0.2851 -0.2530
  115MOL   C12427712   0.674   5.200   0.380 -0.0013 -0.3409  0.2619
  115MOL   C12527713   0.459   5.262   0.489 -0.3702 -0.2753 -0.4763
  115MOL   C12627714   0.354   5.215   0.593  0.0380  0.3488 -0.6482
  115MOL   O12727715   0.340   5.283   0.697  0.0140 -0.9927  0.1951
  115MOL   H12827716   0.536   5.068   0.488 -3.3180  0.3184  0.6350
  115MOL   H12927717   0.733   5.124   0.330  1.2166 -0.2337  1.5049
  115MOL   H13027718   0.731   5.234   0.467  0.9270  0.2652 -0.5827
  115MOL   H13127719   0.651   5.289   0.322 -0.1176  1.0789  2.4049
  115MOL   H13227720   0.416   5.330   0.415 -1.1082 -1.7646 -1.4535
  115MOL   H13327721   0.531   5.324   0.541 -1.4612  0.8231 -0.2597
  115MOL   O13427722   0.278   5.113   0.547  0.7056 -0.0378  0.9578
  115MOL   C13527723   0.159   5.074   0.609 -0.1216 -0.3713 -0.2934
  115MOL   C13627724   0.037   5.129   0.540  0.1860  0.7174  0.6496
  115MOL   C13727725   0.160   4.917   0.616 -0.0125  0.5137 -0.2647
  115MOL   C13827726   0.062   4.851   0.715 -0.4868  0.2567  1.1421
  115MOL   O13927727   7.959   4.769   0.685  0.0753  0.0624 -0.1854
  115MOL   H14027728   0.142   5.121   0.706  1.1691  1.8575 -1.1229
  115MOL   H14127729   0.047   5.119   0.432 -0.4983 -1.7077  0.7714
  115MOL   H14227730   0.013   5.233   0.560  1.1973  1.4545 -1.7872
  115MOL   H14327731   7.928   5.070   0.566  0.0352  0.1642 -1.0541
  115MOL   H14427732   0.257   4.887   0.656 -0.4191  0.0565  0.3880
  115MOL   H14527733   0.152   4.867   0.519 -4.5224  0.2073  0.1316
  115MOL   O14627734   0.075   4.903   0.842  0.3013  0.4294  0.9491
  115MOL   C14727735   0.006   4.845   0.955 -0.2351 -0.0959 -0.4899
  115MOL   C14827736   0.119   4.839   1.059 -0.1016 -0.2390 -0.3353
  115MOL   C14927737   7.874   4.933   0.997  0.5578  0.4699  0.0823
  115MOL   C15027738   7.793   4.896   1.121 -0.0020  1.0835 -0.0371
  115MOL   O15127739   7.762   4.968   1.215  0.2100  0.1268 -0.0940
  115MOL   H15227740   7.933   4.751   0.939 -0.7129  0.4497 -2.1773
  115MOL   H15327741   0.081   4.783   1.144 -0.5915  1.4282  0.5724
  115MOL   H15427742   0.147   4.939   1.092  0.3591 -0.2611 -0.6511
  115MOL   H15527743   0.203   4.780   1.024  1.5932  0.9284  1.6354
  115MOL   H15627744   7.804   4.959   0.918  1.6106  1.4665 -0.5464
  115MOL   H15727745   7.908   5.037   0.998  1.3157  0.2283  2.0221
  115MOL   O15827746   7.744   4.768   1.116  0.3485 -0.1514 -0.5605
  115MOL   C15927747   7.653   4.714   1.210 -0.2288 -0.3150 -0.1748
  115MOL   C16027748   7.520   4.702   1.151  0.3845 -0.0448 -0.3019
  115MOL   C16127749   7.721   4.579   1.248  0.1763  0.3612 -0.1439
  115MOL   C16227750   7.654   4.522   1.374  0.7848 -0.0732  0.1065
  115MOL   O16327751   7.574   4.430   1.364  0.3046  0.3910  0.3950
  115MOL   H16427752   7.650   4.772   1.302  1.4450 -0.3414 -0.0808
  115MOL   H16527753   7.470   4.795   1.125 -0.0226  0.7550  3.2051
  115MOL   H16627754   7.455   4.661   1.228  1.1787 -1.2827 -0.2742
  115MOL   H16727755   7.520   4.642   1.059 -1.5462  0.5209 -0.7016
  115MOL   H16827756   7.827   4.583   1.270  0.0884  1.0250  0.1650
  115MOL   H16927757   7.716   4.507   1.167  0.5699  0.2819 -0.0971
  115MOL   O17027758   7.695   4.572   1.481  0.4473  0.7522  0.3687
  115MOL   C17127759   7.646   4.520   1.601 -0.1480 -0.7698 -0.7068
  115MOL   C17227760   7.747   4.533   1.719  0.3685 -0.0084 -0.0052
  115MOL   C17327761   7.505   4.579   1.637 -0.1886 -0.3914  0.1428
  115MOL   C17427762   7.497   4.723   1.700 -1.0464 -0.3614  0.1482
  115MOL   O17527763   7.425   4.743   1.801  0.0478  0.2734 -0.5505
  115MOL   H17627764   7.659   4.412   1.596  4.0913 -0.2438 -3.3338
  115MOL   H17727765   7.832   4.471   1.690 -0.3251 -0.8624 -0.2197
  115MOL   H17827766   7.703   4.516   1.818 -0.3549  0.5961 -0.2188
  115MOL   H17927767   7.790   4.633   1.721  0.4268  0.0314 -2.4233
  115MOL   H18027768   7.475   4.520   1.724  1.1600  0.9415  1.5389
  115MOL   H18127769   7.434   4.565   1.556  0.3438 -1.0090 -0.2236
  115MOL   O18227770   7.557   4.815   1.624  0.3157  0.2628 -0.0046
  115MOL   C18327771   7.587   4.950   1.666 -0.4540 -0.2880  0.5156
  115MOL   C18427772   7.739   4.964   1.714  0.1312 -0.1941  0.0822
  115MOL   C18527773   7.536   5.057   1.565 -0.1414  0.7037  0.0083
  115MOL   C18627774   7.523   5.193   1.626 -0.7526 -0.1675  0.1237
  115MOL   O18727775   7.611   5.277   1.612 -0.1581  0.1385  0.0435
  115MOL   H18827776   7.531   4.951   1.760 -1.9875 -0.6956 -0.3825
  115MOL   H18927777   7.750   5.062   1.759  0.8977 -0.2794  0.0830
  115MOL   H19027778   7.816   4.956   1.637  1.2458  2.5186  0.8769
  115MOL   H19127779   7.766   4.897   1.795 -1.2249 -1.4565 -0.4650
  115MOL   H19227780   7.443   5.017   1.524  0.5542 -0.9212 -0.0424
  115MOL   H19327781   7.599   5.058   1.477  0.3337  1.3996  0.3506
  115MOL   O19427782   7.395   5.222   1.670 -0.1312 -0.3102  0.2730
  115MOL   C19527783   7.359   5.352   1.714 -0.4266  0.0318  0.6812
  115MOL   C19627784   7.222   5.389   1.639 -0.5452 -0.1229 -0.4574
  115MOL   C19727785   7.342   5.365   1.866  0.3881 -0.1698 -0.2152
  115MOL   C19827786   7.481   5.351   1.930 -0.4056 -0.0967 -0.5505
  115MOL   O19927787   7.514   5.240   1.965 -0.0702 -0.1816 -0.1915
  115MOL   H20027788   7.429   5.427   1.678  0.1440  0.1999  2.0965
  115MOL   H20127789   7.168   5.479   1.668 -1.8066 -0.1761 -2.5107
  115MOL   H20227790   7.156   5.303   1.638 -0.7003 -0.0092 -0.0702
  115MOL   H20327791   7.248   5.404   1.534  2.6550  2.3845  0.5818
  115MOL   H20427792   7.283   5.295   1.925  1.7126 -0.8130  0.3778
  115MOL   H20527793   7.296   5.462   1.885 -0.4149 -0.2714 -1.6357
  115MOL   O20627794   7.551   5.471   1.931  0.3147 -0.6742 -0.0887
  115MOL   C20727795   7.684   5.479   1.987 -0.4482  0.1392 -0.9678
  115MOL   C20827796   7.781   5.470   1.876 -0.2666  0.4450 -0.3102
  115MOL   C20927797   7.693   5.604   2.060  1.5519  0.0994  0.1498
  115MOL   C21027798   7.639   5.605   2.202  0.2857 -0.5806 -0.7168
  115MOL   O21127799   7.707   5.660   2.288  0.0487 -0.1990  0.0730
  115MOL   H21227800   7.700   5.403   2.063  1.2262  2.5327  1.1263
  115MOL   H21327801   7.745   5.532   1.794 -1.5975 -0.1515 -0.1791
  115MOL   H21427802   7.784   5.366   1.843  3.5810  0.2419  0.4231
  115MOL   H21527803   7.878   5.500   1.916  0.4700 -0.9150 -1.0295
  115MOL   H21627804   7.660   5.688   1.999 -0.8009 -0.7314  0.1955
  115MOL   H21727805   7.800   5.618   2.074  2.1323 -2.8637 -0.8632
  115MOL   O21827806   7.518   5.541   2.215  0.6111  0.2512 -0.3995
  115MOL   C21927807   7.453   5.542   2.342  0.4738 -0.5234  0.5206
  115MOL   C22027808   7.344   5.643   2.330  0.5300  0.9273 -0.5003
  115MOL   C22127809   7.406   5.400   2.370 -0.2146 -0.1485  0.4210
  115MOL   C22227810   7.320   5.388   2.493  0.2734 -0.6655 -0.1722
  115MOL   O22327811   7.365   5.335   2.595  0.0093  0.1781  0.3760
  115MOL   H22427812   7.516   5.573   2.426 -0.1505  1.9935  0.0753
  115MOL   H22527813   7.310   5.661   2.432  1.2768 -0.6985  0.0590
  115MOL   H22627814   7.269   5.613   2.257  2.5402 -0.0952 -2.2226
  115MOL   H22727815   7.385   5.738   2.296  0.0467  1.9473  1.7082
  115MOL   H22827816   7.480   5.321   2.388  1.1367  1.2507  1.1869
  115MOL   H22927817   7.342   5.368   2.288  0.6525  1.7535 -1.0581
  115MOL   O23027818   7.197   5.437   2.480 -0.4945 -0.1541  0.1608
  115MOL   C23127819   7.110   5.427   2.587 -0.1661 -0.0435  0.0400
  115MOL   C23227820   7.066   5.571   2.623  0.3446  0.7736  0.1245
  115MOL   C23327821   6.989   5.336   2.549  1.0948 -0.2373 -0.0995
  115MOL   C23427822   6.909   5.280   2.672  0.2480 -0.8197  0.6919
  115MOL   O23527823   6.972   5.251   2.773 -0.0343 -0.2169 -0.0336
  115MOL   H23627824   7.153   5.379   2.675 -2.5019 -2.8669 -0.2899
  115MOL   H23727825   7.054   5.621   2.527 -1.6638  2.1314  1.0370
  115MOL   H23827826   7.147   5.618   2.679  2.4224 -0.3506 -1.8829
  115MOL   H23927827   6.973   5.578   2.681  0.2416  3.7577 -0.3204
  115MOL   H24027828   7.025   5.252   2.488  0.8372 -0.3496 -0.0955
  115MOL   H24127829   6.920   5.391   2.485  2.0023  0.7350 -0.2577
  115MOL   H24227830   6.802   5.268   2.652 -0.1992  0.4450  2.2649
  116MOL     O127831   0.898   2.037   3.464  0.4836 -0.1586 -0.1963
  116MOL     C227832   0.903   1.970   3.590  0.0011 -0.3294  0.7367
  116MOL     C327833   0.856   2.069   3.701  0.3884 -0.1413  0.3488
  116MOL     C427834   0.826   1.837   3.586  0.3472  0.1750  0.3623
  116MOL     C527835   0.844   1.745   3.712  0.5234  0.5052  0.2507
  116MOL     O627836   0.959   1.715   3.754  0.2208  0.3820  0.3566
  116MOL     H727837   1.006   1.946   3.615  0.6845  1.5626 -0.1417
  116MOL     H827838   0.850   2.030   3.803 -1.1440  2.2441  1.2233
  116MOL     H927839   0.759   2.111   3.673  0.1246 -1.4564 -0.7802
  116MOL    H1027840   0.927   2.149   3.718 -1.6897  1.5134  1.5941
  116MOL    H1127841   0.846   1.780   3.495 -0.9184 -2.4826  1.6968
  116MOL    H1227842   0.720   1.856   3.577  0.5941  1.7077  0.5700
  116MOL    H1327843   0.928   1.974   3.400  1.8676 -0.9130  1.1513
  116MOL    O1427844   0.727   1.712   3.759  0.0815 -0.1247  0.3638
  116MOL    C1527845   0.716   1.633   3.879 -0.9749 -0.2721  0.2242
  116MOL    C1627846   0.661   1.707   4.001 -0.3539 -0.3181  0.0619
  116MOL    C1727847   0.628   1.510   3.849  0.0794 -0.0995 -0.0323
  116MOL    C1827848   0.701   1.411   3.760  0.1148 -0.0786  0.6005
  116MOL    O1927849   0.790   1.344   3.808 -0.1301 -0.0999 -0.1203
  116MOL    H2027850   0.810   1.588   3.910 -0.7787  1.9145  2.9802
  116MOL    H2127851   0.725   1.788   4.035  0.1920  0.1717 -2.0641
  116MOL    H2227852   0.633   1.639   4.081 -0.9918 -0.6913 -0.4706
  116MOL    H2327853   0.566   1.744   3.961 -0.3812  0.6077  0.9631
  116MOL    H2427854   0.549   1.557   3.789  2.1015  0.5788 -2.2348
  116MOL    H2527855   0.592   1.453   3.935 -0.9714 -0.3752 -0.6383
  116MOL    O2627856   0.655   1.408   3.633  0.4576  0.3744 -0.2128
  116MOL    C2727857   0.725   1.335   3.534 -0.2378 -0.2675  0.4322
  116MOL    C2827858   0.644   1.211   3.487 -1.0204  0.6005  0.1175
  116MOL    C2927859   0.766   1.441   3.424  0.3094  0.0694  0.0740
  116MOL    C3027860   0.847   1.381   3.301  0.2009  0.0261 -0.1185
  116MOL    O3127861   0.967   1.399   3.281  0.4026 -0.3513  0.1674
  116MOL    H3227862   0.812   1.284   3.576 -0.3512  0.4109  1.5432
  116MOL    H3327863   0.548   1.234   3.441 -1.5433 -1.4881  0.0762
  116MOL    H3427864   0.622   1.149   3.574 -1.2515 -1.8139 -1.5951
  116MOL    H3527865   0.694   1.144   3.417 -2.1686 -1.8661  1.5683
  116MOL    H3627866   0.831   1.514   3.470  0.9273 -0.1529 -0.4370
  116MOL    H3727867   0.676   1.479   3.374  1.2809  1.8357 -0.3723
  116MOL    O3827868   0.768   1.314   3.224  0.2685 -0.3103 -0.0474
  116MOL    C3927869   0.797   1.297   3.092  0.3758  0.2506  1.0109
  116MOL    C4027870   0.739   1.163   3.054 -0.8053 -0.1061  0.1308
  116MOL    C4127871   0.722   1.411   3.013  0.2859 -0.1469  0.9283
  116MOL    C4227872   0.772   1.439   2.868 -0.2619  0.1196  0.2652
  116MOL    O4327873   0.845   1.531   2.832 -0.3229 -0.3345 -0.3908
  116MOL    H4427874   0.903   1.293   3.066  0.0905  1.0319 -0.3502
  116MOL    H4527875   0.776   1.077   3.110 -1.4766  0.3622  1.3129
  116MOL    H4627876   0.757   1.139   2.949 -4.2448  1.2458 -0.8304
  116MOL    H4727877   0.631   1.164   3.066 -0.6441 -1.0909  1.7568
  116MOL    H4827878   0.729   1.511   3.056 -1.2332 -0.7093  2.5565
  116MOL    H4927879   0.617   1.391   2.995  0.0603 -0.5831  2.6788
  116MOL    O5027880   0.729   1.344   2.780 -0.2829  0.3363 -0.4149
  116MOL    C5127881   0.757   1.348   2.638  0.0127  0.2545  0.1014
  116MOL    C5227882   0.805   1.206   2.610 -0.2564 -0.0053 -0.1440
  116MOL    C5327883   0.637   1.388   2.551  0.5185  0.0890  0.3794
  116MOL    C5427884   0.607   1.540   2.557 -0.8077 -0.9226  0.2065
  116MOL    O5527885   0.505   1.581   2.606 -0.0952  0.7287 -0.2715
  116MOL    H5627886   0.846   1.411   2.629  0.6671 -0.7843 -0.7589
  116MOL    H5727887   0.913   1.205   2.628 -0.6013 -0.2643  2.1418
  116MOL    H5827888   0.788   1.170   2.509  0.0840  2.6351 -1.1619
  116MOL    H5927889   0.759   1.133   2.678  0.0963  1.6088  1.8956
  116MOL    H6027890   0.544   1.338   2.578 -1.0495  2.5110 -0.4027
  116MOL    H6127891   0.645   1.366   2.444  1.8729  1.6684  0.1310
  116MOL    O6227892   0.712   1.614   2.506  0.4252 -0.2257  0.0706
  116MOL    C6327893   0.717   1.759   2.499  0.6270  0.9011 -0.8649
  116MOL    C6427894   0.865   1.796   2.516 -0.2655 -0.7137 -0.4625
  116MOL    C6527895   0.659   1.804   2.366  0.1319  0.4663 -0.0736
  116MOL    C6627896   0.638   1.952   2.367 -0.1190  0.0763  0.6533
  116MOL    O6727897   0.721   2.019   2.297 -0.5169  0.7580  0.2483
  116MOL    H6827898   0.659   1.797   2.583 -0.6018 -1.4572 -0.6002
  116MOL    H6927899   0.904   1.764   2.612  2.1347  0.1452 -1.1164
  116MOL    H7027900   0.875   1.905   2.515 -2.2926 -0.4606  1.4996
  116MOL    H7127901   0.927   1.748   2.441 -0.4782 -2.4170  0.4375
  116MOL    H7227902   0.565   1.760   2.333 -0.6879  1.4415  0.8926
  116MOL    H7327903   0.721   1.784   2.279 -0.1693  0.7458 -0.3510
  116MOL    O7427904   0.532   1.995   2.434 -0.2081 -0.2503  0.1136
  116MOL    C7527905   0.491   2.130   2.443 -0.9662  0.8645  0.0284
  116MOL    C7627906   0.368   2.154   2.365 -0.2548 -0.5956  0.1733
  116MOL    C7727907   0.468   2.166   2.591 -0.0564  0.2895 -0.2466
  116MOL    C7827908   0.599   2.149   2.663  0.5934  0.1635  0.5711
  116MOL    O7927909   0.621   2.050   2.728  0.2441 -0.2453 -0.0234
  116MOL    H8027910   0.564   2.201   2.403 -0.1017  0.3847  0.7450
  116MOL    H8127911   0.370   2.099   2.271 -4.8172 -1.4997  0.4929
  116MOL    H8227912   0.350   2.260   2.347  3.8419 -0.0004 -0.8630
  116MOL    H8327913   0.281   2.110   2.415  0.4168 -1.5148  0.5382
  116MOL    H8427914   0.390   2.098   2.625  0.0941  1.0349  1.6966
  116MOL    H8527915   0.435   2.270   2.603  0.2988  0.1893  1.8239
  116MOL    O8627916   0.679   2.254   2.646 -0.0527 -0.2359  0.2015
  116MOL    C8727917   0.808   2.257   2.696 -0.5456  0.1697  0.1790
  116MOL    C8827918   0.900   2.251   2.572  0.3013 -0.2250  0.1859
  116MOL    C8927919   0.829   2.390   2.767  0.3189 -0.5377  0.6146
  116MOL    C9027920   0.960   2.415   2.840 -0.2367 -0.2133 -0.3405
  116MOL    O9127921   0.990   2.520   2.901  0.0590 -0.4087 -0.5383
  116MOL    H9227922   0.825   2.174   2.764 -0.1847 -0.2527 -0.4158
  116MOL    H9327923   0.907   2.341   2.511  0.8899  0.0433  0.6477
  116MOL    H9427924   0.873   2.169   2.505  0.1701 -0.2192  0.2321
  116MOL    H9527925   1.001   2.240   2.613  0.4208  0.5991  0.1222
  116MOL    H9627926   0.753   2.398   2.844  0.1852 -1.6460  0.6019
  116MOL    H9727927   0.806   2.472   2.700  3.3704 -1.0210 -1.1172
  116MOL    O9827928   1.034   2.302   2.851  0.4071 -0.3817  0.4933
  116MOL    C9927929   1.165   2.299   2.907  0.2259  0.5001 -0.5436
  116MOL   C10027930   1.139   2.247   3.049 -0.4344  0.5588  0.3670
  116MOL   C10127931   1.247   2.208   2.810  0.4302  0.1502  0.1776
  116MOL   C10227932   1.391   2.179   2.857 -0.3339 -0.4782  0.4025
  116MOL   O10327933   1.484   2.254   2.825 -0.0819 -0.0256 -0.3940
  116MOL   H10427934   1.204   2.400   2.913 -0.5936  0.7831  0.1979
  116MOL   H10527935   1.222   2.197   3.099 -1.0602 -1.8860 -0.9837
  116MOL   H10627936   1.053   2.180   3.049 -1.0134  1.2876  1.7329
  116MOL   H10727937   1.113   2.330   3.114 -1.4023  0.2095  0.4348
  116MOL   H10827938   1.262   2.258   2.714  1.7199 -1.4667 -0.4929
  116MOL   H10927939   1.192   2.118   2.782  0.7110  0.0412 -0.0296
  116MOL   O11027940   1.399   2.073   2.940 -0.4188  0.0398  0.4082
  116MOL   C11127941   1.518   2.040   3.009 -0.1131  0.1520  0.5223
  116MOL   C11227942   1.502   2.060   3.157  0.6477  0.1547 -0.3256
  116MOL   C11327943   1.566   1.897   2.968  0.7297  0.7232 -0.7056
  116MOL   C11427944   1.704   1.862   3.026  0.1926 -0.5584  0.3563
  116MOL   O11527945   1.805   1.879   2.953  0.1590  0.1245  0.3472
  116MOL   H11627946   1.600   2.106   2.981  0.5815 -1.1113 -0.4467
  116MOL   H11727947   1.593   2.079   3.214 -0.6339 -1.2446  2.3005
  116MOL   H11827948   1.461   1.970   3.202 -2.2723  2.3509  1.6309
  116MOL   H11927949   1.432   2.141   3.180  1.1275  1.4730 -3.3299
  116MOL   H12027950   1.563   1.888   2.860  1.1956 -2.5653 -0.4932
  116MOL   H12127951   1.500   1.818   3.003  0.2977  0.0861 -2.8940
  116MOL   O12227952   1.706   1.815   3.148 -0.1180 -0.5901  0.6361
  116MOL   C12327953   1.826   1.781   3.210  0.0887 -0.0369 -0.3045
  116MOL   C12427954   1.837   1.873   3.336 -0.0995  0.5591  0.8654
  116MOL   C12527955   1.832   1.627   3.218  0.1611  0.4436  0.1247
  116MOL   C12627956   1.967   1.559   3.238  0.5715 -0.0955 -0.1133
  116MOL   O12727957   2.068   1.614   3.275 -0.4935  0.7153 -0.0896
  116MOL   H12827958   1.908   1.794   3.139  0.9320 -0.0404  0.6500
  116MOL   H12927959   1.762   1.847   3.411 -2.0121  2.1861 -0.4368
  116MOL   H13027960   1.829   1.978   3.309 -1.0144 -0.2655 -2.3236
  116MOL   H13127961   1.935   1.855   3.380  0.9238 -1.3629 -2.0737
  116MOL   H13227962   1.783   1.575   3.135 -0.1881  0.2218  0.4693
  116MOL   H13327963   1.777   1.590   3.305  0.4385 -1.7245 -0.5916
  116MOL   O13427964   1.954   1.426   3.237  0.5052 -0.2076 -0.2839
  116MOL   C13527965   2.070   1.349   3.261 -0.2819  0.0706 -0.1209
  116MOL   C13627966   2.037   1.257   3.378  0.3598  0.2994 -1.2795
  116MOL   C13727967   2.111   1.271   3.139 -0.6329  0.0115  0.1748
  116MOL   C13827968   2.163   1.352   3.019  0.2748  0.5996  0.0688
  116MOL   O13927969   2.278   1.323   2.984 -0.3727  0.0422 -0.1245
  116MOL   H14027970   2.163   1.398   3.289 -1.9098  2.5173  1.2540
  116MOL   H14127971   1.990   1.305   3.464 -0.9384 -2.8061 -0.2090
  116MOL   H14227972   2.126   1.206   3.415 -1.2982 -2.2182 -0.6552
  116MOL   H14327973   1.965   1.181   3.348  1.2502 -1.5767  1.2177
  116MOL   H14427974   2.037   1.196   3.108 -0.7249  0.2302 -0.1420
  116MOL   H14527975   2.199   1.219   3.174 -0.2521 -1.0360 -2.2299
  116MOL   O14627976   2.082   1.450   2.969 -0.2131 -0.6403  0.4729
  116MOL   C14727977   2.135   1.526   2.863 -0.0734  0.6888 -0.2343
  116MOL   C14827978   2.109   1.445   2.733  0.5315  0.2404  0.5046
  116MOL   C14927979   2.086   1.670   2.872 -0.5337 -0.8635  0.1734
  116MOL   C15027980   2.146   1.777   2.787  0.3050  0.5905  0.7520
  116MOL   O15127981   2.078   1.847   2.716  0.3180 -0.1051 -0.3754
  116MOL   H15227982   2.242   1.536   2.877  0.0262  0.8688 -1.1032
  116MOL   H15327983   2.171   1.356   2.721  0.1557  0.3181 -2.6852
  116MOL   H15427984   2.144   1.502   2.647  1.4037 -0.5916  0.2995
  116MOL   H15527985   2.004   1.415   2.733  0.3451  0.8152 -1.0007
  116MOL   H15627986   2.106   1.717   2.968 -0.1888 -2.0278  0.6831
  116MOL   H15727987   1.978   1.676   2.856 -0.4967 -1.1951 -0.2345
  116MOL   O15827988   2.287   1.780   2.791  0.3066 -0.0696  0.2115
  116MOL   C15927989   2.368   1.840   2.692  0.3349  0.2512 -0.3904
  116MOL   C16027990   2.441   1.958   2.756 -0.2433  0.2512 -0.3385
  116MOL   C16127991   2.470   1.737   2.641  0.2276  0.1956 -0.2557
  116MOL   C16227992   2.422   1.616   2.556 -0.0815 -0.3763 -0.3311
  116MOL   O16327993   2.311   1.610   2.511  0.2003 -0.0202 -0.1100
  116MOL   H16427994   2.311   1.873   2.604 -1.2563 -0.1448  0.4613
  116MOL   H16527995   2.375   2.045   2.762 -1.2963 -0.4769 -1.1012
  116MOL   H16627996   2.531   1.989   2.703 -0.0248  2.1305  1.0887
  116MOL   H16727997   2.471   1.929   2.857  0.1359 -1.7288 -0.9927
  116MOL   H16827998   2.517   1.689   2.727  0.7352  0.1276 -0.5632
  116MOL   H16927999   2.552   1.785   2.588  0.3682  0.6706  0.3927
  116MOL   O17028000   2.509   1.516   2.542 -0.5578  0.0507  0.1522
  116MOL   C17128001   2.478   1.398   2.455 -0.6312 -0.3754  0.0473
  116MOL   C17228002   2.604   1.376   2.377 -0.1645 -0.0549  0.1870
  116MOL   C17328003   2.447   1.287   2.559 -0.2728 -0.9465  0.8195
  116MOL   C17428004   2.408   1.147   2.498  0.2209 -0.4579  0.4029
  116MOL   O17528005   2.341   1.134   2.391  0.4708 -1.0634  0.2908
  116MOL   H17628006   2.391   1.407   2.390  0.5039  0.1273 -1.4304
  116MOL   H17728007   2.581   1.313   2.292  0.5372 -1.7279  1.2036
  116MOL   H17828008   2.669   1.323   2.447 -1.2900 -1.7686 -0.0466
  116MOL   H17928009   2.638   1.467   2.328  0.1716 -0.0478  0.4294
  116MOL   H18028010   2.366   1.309   2.629  0.3471  1.1480  0.8985
  116MOL   H18128011   2.538   1.263   2.614 -0.6667  0.0350  1.9220
  116MOL   O18228012   2.461   1.044   2.566 -0.5769  0.4754  0.0209
  116MOL   C18328013   2.466   0.920   2.508  0.6117 -0.7991 -1.0537
  116MOL   C18428014   2.606   0.918   2.435  0.8506  0.4738  0.2997
  116MOL   C18528015   2.451   0.822   2.625 -0.0409  0.4675  0.2076
  116MOL   C18628016   2.316   0.807   2.689 -0.4016  0.3887  0.1863
  116MOL   O18728017   2.222   0.754   2.632  0.2636 -0.1540  0.0645
  116MOL   H18828018   2.379   0.906   2.443  0.3755 -1.1002 -0.6763
  116MOL   H18928019   2.596   0.990   2.354 -4.7408  0.2480  0.6388
  116MOL   H19028020   2.623   0.818   2.397  0.7251  0.5831 -0.0430
  116MOL   H19128021   2.691   0.948   2.497  0.9245 -0.5826  0.7254
  116MOL   H19228022   2.503   0.862   2.712 -0.3472  0.2464  0.4955
  116MOL   H19328023   2.476   0.718   2.604 -2.2273  0.0325 -0.3696
  116MOL   O19428024   2.323   0.862   2.811  0.5829  0.2996  0.2622
  116MOL   C19528025   2.202   0.898   2.889 -0.7624  0.1805 -0.6733
  116MOL   C19628026   2.257   0.896   3.034  0.0070  0.0452 -0.2223
  116MOL   C19728027   2.130   1.028   2.852  0.8643 -0.3812  0.8841
  116MOL   C19828028   2.014   1.006   2.747 -0.0837  0.0374  0.1778
  116MOL   O19928029   1.922   0.927   2.763  0.3506  0.5383  0.4140
  116MOL   H20028030   2.135   0.813   2.888 -1.3943  0.6712 -0.0877
  116MOL   H20128031   2.328   0.977   3.049 -0.9568  0.7882  0.3673
  116MOL   H20228032   2.307   0.800   3.047 -2.0545 -1.3044 -1.9472
  116MOL   H20328033   2.182   0.917   3.110  0.5599  0.7069  0.1486
  116MOL   H20428034   2.205   1.099   2.820 -0.9496  0.5942 -1.3671
  116MOL   H20528035   2.078   1.069   2.939 -1.7192 -0.8040 -0.3886
  116MOL   O20628036   2.034   1.074   2.629  0.1012  0.3583  0.2353
  116MOL   C20728037   1.955   1.050   2.514  0.1413  0.0267  0.0449
  116MOL   C20828038   1.973   1.186   2.453  0.3820 -0.6404  1.2610
  116MOL   C20928039   2.018   0.925   2.433 -0.8049 -0.1285 -0.3914
  116MOL   C21028040   1.931   0.872   2.312 -0.2966  0.2830  0.2717
  116MOL   O21128041   1.820   0.919   2.279  0.1627 -0.1850  0.0689
  116MOL   H21228042   1.852   1.029   2.542  1.1089 -3.3349  1.2810
  116MOL   H21328043   2.078   1.214   2.449  1.1177 -3.4553 -0.3305
  116MOL   H21428044   1.921   1.260   2.514  1.1503  1.5776 -0.6886
  116MOL   H21528045   1.929   1.188   2.353  2.5312 -0.3657  0.2960
  116MOL   H21628046   2.016   0.847   2.509 -1.4039  0.4770  0.2329
  116MOL   H21728047   2.122   0.940   2.405 -0.7190  0.0199 -0.0064
  116MOL   O21828048   1.989   0.761   2.261 -0.1649 -0.3387  0.5306
  116MOL   C21928049   1.939   0.692   2.148  0.4363 -0.0127 -0.0617
  116MOL   C22028050   2.009   0.743   2.027 -0.6079  0.5032 -0.2941
  116MOL   C22128051   1.938   0.537   2.185 -0.6192 -0.0165  0.2852
  116MOL   C22228052   1.857   0.497   2.312  0.3934  0.0475  0.0402
  116MOL   O22328053   1.758   0.429   2.304  0.0012 -0.2327 -0.0548
  116MOL   H22428054   1.839   0.729   2.126  1.0806  1.9441  0.1468
  116MOL   H22528055   2.115   0.724   2.043  0.0259  2.9880 -1.2392
  116MOL   H22628056   1.996   0.850   2.009 -0.3982  0.5142 -0.3828
  116MOL   H22728057   1.995   0.684   1.936  1.2434  0.9552 -0.8922
  116MOL   H22828058   2.030   0.478   2.186 -0.7016 -0.2083 -1.2260
  116MOL   H22928059   1.888   0.493   2.098  1.5184 -0.4018 -0.7790
  116MOL   O23028060   1.923   0.522   2.436  0.7812  0.4972 -0.4012
  116MOL   C23128061   1.856   0.479   2.554  0.2382 -0.1010 -0.4441
  116MOL   C23228062   1.908   0.337   2.581  0.0171 -0.0285 -0.2649
  116MOL   C23328063   1.882   0.575   2.669  0.0159 -0.8192  0.5435
  116MOL   C23428064   1.776   0.580   2.779 -0.5632 -0.1349 -0.3408
  116MOL   O23528065   1.718   0.480   2.821  0.8543  0.0980  0.1502
  116MOL   H23628066   1.748   0.480   2.537 -0.0946  1.9414  1.4540
  116MOL   H23728067   2.016   0.336   2.574 -0.0568 -1.2121 -1.5259
  116MOL   H23828068   1.873   0.264   2.508 -0.6989  0.3661 -0.3214
  116MOL   H23928069   1.891   0.299   2.682  0.0187  2.5898  0.7724
  116MOL   H24028070   1.877   0.669   2.614 -3.7061 -0.7424  0.8774
  116MOL   H24128071   1.970   0.557   2.729  0.7191  0.0419 -0.2100
  116MOL   H24228072   1.767   0.673   2.835  1.8488 -0.2887  0.3355
  117MOL     O128073   2.515   4.880   4.104 -0.4643  0.6790  0.1905
  117MOL     C228074   2.501   4.746   4.166 -0.2979 -0.2179  0.0951
  117MOL     C328075   2.362   4.731   4.229  0.1425 -0.2400 -0.3562
  117MOL     C428076   2.527   4.649   4.047 -0.2793  0.0496  0.7965
  117MOL     C528077   2.538   4.502   4.088  1.0341  0.2426 -0.0808
  117MOL     O628078   2.438   4.440   4.127  0.4912 -0.4564 -0.2290
  117MOL     H728079   2.574   4.739   4.247  3.7966 -0.8765 -3.4304
  117MOL     H828080   2.295   4.720   4.144  1.9924  0.9921 -2.0379
  117MOL     H928081   2.340   4.822   4.284  0.7367  0.2806 -0.9557
  117MOL    H1028082   2.354   4.640   4.288 -0.3171 -0.3308 -0.5574
  117MOL    H1128083   2.605   4.673   3.975  1.1039 -1.6919  1.6566
  117MOL    H1228084   2.436   4.651   3.988  0.7435  0.7433 -0.7885
  117MOL    H1328085   2.463   4.885   4.026  0.1754  2.0944 -0.1546
  117MOL    O1428086   2.664   4.447   4.075  0.3438 -0.0739 -0.3331
  117MOL    C1528087   2.701   4.332   4.143  0.1230  0.2653 -0.1968
  117MOL    C1628088   2.811   4.255   4.083  0.5578 -0.2417  1.0826
  117MOL    C1728089   2.725   4.362   4.294 -0.0868  0.0398 -0.7186
  117MOL    C1828090   2.821   4.478   4.327 -0.0658 -0.3934 -0.6337
  117MOL    O1928091   2.796   4.596   4.293 -0.0069  0.3266 -0.1329
  117MOL    H2028092   2.614   4.267   4.138  0.8101 -0.5537 -2.1378
  117MOL    H2128093   2.793   4.246   3.976  0.4393 -1.7199  1.2235
  117MOL    H2228094   2.805   4.150   4.111 -0.4144 -1.0286 -1.9584
  117MOL    H2328095   2.907   4.296   4.118  1.6630 -0.8944 -1.1226
  117MOL    H2428096   2.746   4.270   4.348 -1.5489  0.6939  1.0159
  117MOL    H2528097   2.626   4.375   4.336 -0.6502 -0.5556 -1.8408
  117MOL    O2628098   2.931   4.441   4.401 -0.0043 -0.5011 -0.2558
  117MOL    C2728099   3.035   4.536   4.431 -0.2580 -0.0002 -0.1991
  117MOL    C2828100   3.116   4.487   4.556 -0.2325  0.6151  0.1827
  117MOL    C2928101   3.124   4.573   4.307  0.1331 -0.3412 -0.3430
  117MOL    C3028102   3.229   4.468   4.265  0.0140  0.9799  0.3056
  117MOL    O3128103   3.347   4.505   4.257  0.1182 -1.0650 -0.1881
  117MOL    H3228104   2.984   4.621   4.477 -0.1224  0.3389 -0.6723
  117MOL    H3328105   3.174   4.566   4.603  4.1261 -1.1238 -1.9927
  117MOL    H3428106   3.176   4.400   4.529 -0.5681  0.8262 -1.2638
  117MOL    H3528107   3.044   4.452   4.631 -0.4075  0.5170 -0.0301
  117MOL    H3628108   3.178   4.661   4.342 -0.7755 -0.4571  1.4300
  117MOL    H3728109   3.070   4.591   4.214 -0.9003 -2.0338 -0.0921
  117MOL    O3828110   3.186   4.333   4.246 -0.2950  0.1477 -0.3553
  117MOL    C3928111   3.279   4.231   4.216 -0.5197  0.2908 -0.2881
  117MOL    C4028112   3.316   4.151   4.344  0.0056 -0.1611  0.1384
  117MOL    C4128113   3.229   4.131   4.108 -0.3125  0.0373  0.4568
  117MOL    C4228114   3.244   4.185   3.971  0.3596  0.3485  0.5677
  117MOL    O4328115   3.358   4.211   3.931 -0.1708 -0.3959 -0.0800
  117MOL    H4428116   3.368   4.268   4.165 -0.1414  0.0107  0.1627
  117MOL    H4528117   3.375   4.060   4.335 -1.2090 -0.7728 -2.0737
  117MOL    H4628118   3.219   4.123   4.386  0.5368 -1.5719  0.4357
  117MOL    H4728119   3.356   4.222   4.416 -1.4201 -0.7743  1.5763
  117MOL    H4828120   3.121   4.121   4.123 -0.2868  2.7917  2.7692
  117MOL    H4928121   3.276   4.032   4.110  1.2092  0.7650  1.2073
  117MOL    O5028122   3.136   4.205   3.900 -0.3370 -0.2469  0.1676
  117MOL    C5128123   3.143   4.276   3.776  0.8576 -0.0178 -0.0085
  117MOL    C5228124   3.032   4.233   3.682  0.7655 -0.2995  0.2768
  117MOL    C5328125   3.162   4.427   3.804 -0.1920 -0.0682 -0.3632
  117MOL    C5428126   3.038   4.506   3.850  0.5569 -0.8006  0.3189
  117MOL    O5528127   3.032   4.544   3.967  0.2102 -0.3638 -0.7523
  117MOL    H5628128   3.236   4.238   3.734 -0.5500 -1.1171 -2.2668
  117MOL    H5728129   3.035   4.273   3.581 -0.4825 -0.5913  0.1067
  117MOL    H5828130   2.932   4.247   3.723  0.8202 -0.0034  0.3103
  117MOL    H5928131   3.042   4.125   3.667  0.0825 -0.4212  0.6476
  117MOL    H6028132   3.198   4.473   3.712 -0.8997 -0.8916 -1.0715
  117MOL    H6128133   3.240   4.456   3.874  0.5660  0.9966 -1.6222
  117MOL    O6228134   2.945   4.521   3.754 -0.2487  0.3144 -0.4579
  117MOL    C6328135   2.838   4.611   3.769 -0.4517 -0.1556 -0.0174
  117MOL    C6428136   2.868   4.748   3.709 -0.1052 -0.7184 -0.1163
  117MOL    C6528137   2.713   4.544   3.706  0.3973  0.5035  0.5590
  117MOL    C6628138   2.700   4.544   3.555  0.2239  0.7038 -0.1831
  117MOL    O6728139   2.591   4.567   3.498  0.0946 -0.1064 -0.4062
  117MOL    H6828140   2.823   4.613   3.876  2.2780  2.3730  0.3860
  117MOL    H6928141   2.936   4.793   3.783 -1.5983  0.2431  0.6926
  117MOL    H7028142   2.782   4.815   3.714  0.5471  0.0952  0.4534
  117MOL    H7128143   2.918   4.738   3.613  4.4116  0.3514  1.9506
  117MOL    H7228144   2.628   4.602   3.742 -1.1727 -1.0943 -0.4621
  117MOL    H7328145   2.712   4.441   3.741 -1.3067  0.1038 -0.5969
  117MOL    O7428146   2.806   4.501   3.495  0.4916  0.0586  0.1577
  117MOL    C7528147   2.814   4.516   3.357 -0.1837  1.1272 -0.0857
  117MOL    C7628148   2.858   4.660   3.319 -0.3528 -0.3920  0.7784
  117MOL    C7728149   2.922   4.411   3.320  0.0472  0.5153 -0.9025
  117MOL    C7828150   2.848   4.276   3.303  0.2717 -0.1796  0.0531
  117MOL    O7928151   2.816   4.238   3.189  0.1670 -0.7242  0.6589
  117MOL    H8028152   2.721   4.490   3.305 -0.5324 -1.7775  1.8667
  117MOL    H8128153   2.781   4.730   3.350 -1.5179 -2.3398  2.3829
  117MOL    H8228154   2.871   4.659   3.210 -2.2460 -0.5542  0.5323
  117MOL    H8328155   2.948   4.705   3.361 -0.3175  2.3081 -2.0011
  117MOL    H8428156   2.993   4.400   3.402  0.1293 -0.5685 -1.1202
  117MOL    H8528157   2.965   4.438   3.224 -0.9875  1.6165 -1.0776
  117MOL    O8628158   2.830   4.212   3.418 -0.4141  0.2068 -0.5146
  117MOL    C8728159   2.779   4.077   3.420 -0.1900 -0.5560  0.5990
  117MOL    C8828160   2.902   3.984   3.415 -0.0542 -0.4198  0.0394
  117MOL    C8928161   2.687   4.063   3.551 -0.4398 -0.1009 -0.4176
  117MOL    C9028162   2.611   3.928   3.553 -0.8469 -0.2758 -0.3727
  117MOL    O9128163   2.485   3.918   3.548 -0.0122 -0.2559 -0.1921
  117MOL    H9228164   2.725   4.055   3.327  0.5821  1.3623 -0.3414
  117MOL    H9328165   2.958   3.988   3.508  0.0094 -2.5262  0.1210
  117MOL    H9428166   2.956   4.024   3.329  0.9537 -0.9411  0.4250
  117MOL    H9528167   2.873   3.879   3.404  0.4794 -0.6561  0.8770
  117MOL    H9628168   2.614   4.144   3.553 -0.1410  0.4036 -4.7252
  117MOL    H9728169   2.743   4.084   3.642  1.7024 -1.5323 -1.3608
  117MOL    O9828170   2.693   3.822   3.568 -0.2295  0.3610  0.1212
  117MOL    C9928171   2.653   3.689   3.578  0.1521  0.3695  0.7288
  117MOL   C10028172   2.735   3.599   3.487  0.3699 -0.7234 -0.0630
  117MOL   C10128173   2.665   3.665   3.737  0.0823 -0.1890 -0.1900
  117MOL   C10228174   2.803   3.659   3.800 -0.4932  0.3838  0.2528
  117MOL   O10328175   2.874   3.559   3.781 -0.0155 -0.3019 -0.7173
  117MOL   H10428176   2.548   3.669   3.553  0.6262 -0.6898 -0.5301
  117MOL   H10528177   2.714   3.494   3.505 -2.2489 -0.8005 -3.2482
  117MOL   H10628178   2.843   3.614   3.484  0.4907 -0.4373  3.5288
  117MOL   H10728179   2.702   3.623   3.386  2.9733 -1.4861 -1.1634
  117MOL   H10828180   2.621   3.565   3.747 -1.3257  0.3680 -0.6110
  117MOL   H10928181   2.607   3.739   3.791  0.3535  0.2730 -0.5323
  117MOL   O11028182   2.832   3.766   3.873  0.2728  0.6470  0.1672
  117MOL   C11128183   2.953   3.783   3.946 -0.2143 -0.8132 -0.3053
  117MOL   C11228184   3.031   3.888   3.868 -0.2969 -0.8038  0.0784
  117MOL   C11328185   2.919   3.823   4.087 -0.2282 -0.7039 -0.3901
  117MOL   C11428186   3.033   3.801   4.184 -0.7259 -0.3630  0.3040
  117MOL   O11528187   3.059   3.889   4.266 -0.4747  0.0900 -0.0355
  117MOL   H11628188   3.003   3.686   3.949 -0.4850 -0.9382  0.2658
  117MOL   H11728189   2.991   3.989   3.880 -0.2069 -0.6327 -0.9968
  117MOL   H11828190   3.027   3.862   3.763  1.9792 -1.1369  0.0485
  117MOL   H11928191   3.135   3.890   3.902 -0.4322 -1.2592  0.5243
  117MOL   H12028192   2.834   3.767   4.126  0.5887 -1.0323  0.9828
  117MOL   H12128193   2.892   3.928   4.096  2.2644 -0.0484 -0.0818
  117MOL   O12228194   3.082   3.679   4.187  0.4644 -0.5034  0.2074
  117MOL   C12328195   3.186   3.642   4.277 -0.4455 -0.5140  0.4086
  117MOL   C12428196   3.141   3.626   4.422 -0.6462 -0.0294  0.1660
  117MOL   C12528197   3.252   3.516   4.211  0.2097  0.1397  0.1882
  117MOL   C12628198   3.374   3.450   4.276  0.2444  0.8587  0.0987
  117MOL   O12728199   3.364   3.373   4.374 -0.3761 -0.7623  0.0382
  117MOL   H12828200   3.260   3.721   4.267 -0.7296 -0.2518  0.3769
  117MOL   H12928201   3.108   3.724   4.457  0.4351  0.0986  0.8842
  117MOL   H13028202   3.217   3.607   4.498 -0.8685 -0.6368  0.2408
  117MOL   H13128203   3.059   3.557   4.439  0.1674 -1.1894 -0.5654
  117MOL   H13228204   3.282   3.560   4.116 -1.1506 -0.6641 -0.6424
  117MOL   H13328205   3.175   3.441   4.192 -0.3516  0.3652  1.4779
  117MOL   O13428206   3.488   3.480   4.215 -0.2944 -0.2494 -0.3992
  117MOL   C13528207   3.611   3.415   4.263  0.4919 -0.7122 -0.1210
  117MOL   C13628208   3.627   3.289   4.176  0.5417  0.0508 -0.3586
  117MOL   C13728209   3.721   3.518   4.242  0.2102  0.1926  0.3224
  117MOL   C13828210   3.715   3.634   4.338 -0.4333  0.5012 -0.5847
  117MOL   O13928211   3.620   3.650   4.417  0.0244  0.2045  0.4623
  117MOL   H14028212   3.598   3.388   4.367 -1.0787 -2.0801 -0.6613
  117MOL   H14128213   3.680   3.209   4.229 -0.1565 -0.2214 -0.0717
  117MOL   H14228214   3.673   3.308   4.079 -1.2028 -1.6862 -1.5600
  117MOL   H14328215   3.527   3.249   4.159  0.2384  0.4062  0.5655
  117MOL   H14428216   3.719   3.557   4.140 -0.3405 -3.5469 -1.1583
  117MOL   H14528217   3.818   3.468   4.246  0.0971 -0.1009 -0.4799
  117MOL   O14628218   3.827   3.712   4.325  0.0759 -0.3818 -1.0347
  117MOL   C14728219   3.827   3.840   4.393  1.3064  0.1475  0.6024
  117MOL   C14828220   3.972   3.870   4.454  0.3567 -0.5751 -0.4337
  117MOL   C14928221   3.776   3.960   4.302 -0.2852 -0.5592  0.4799
  117MOL   C15028222   3.861   3.965   4.174 -0.6881 -0.4120 -0.3799
  117MOL   O15128223   3.950   4.041   4.162 -0.2086 -0.3149  0.5019
  117MOL   H15228224   3.759   3.835   4.478  0.6328  0.0466  0.0652
  117MOL   H15328225   3.993   3.974   4.479 -0.3932 -0.6659  0.6036
  117MOL   H15428226   4.046   3.848   4.377 -0.1286 -3.7424 -0.0827
  117MOL   H15528227   4.007   3.804   4.534  0.6192  0.2784  0.1602
  117MOL   H15628228   3.772   4.054   4.358 -2.3040  1.1668 -2.4337
  117MOL   H15728229   3.675   3.932   4.274 -1.0172  1.7099  0.7640
  117MOL   O15828230   3.821   3.889   4.074  0.1794  0.4591 -0.0008
  117MOL   C15928231   3.903   3.864   3.960  0.5518  0.7939  0.2984
  117MOL   C16028232   3.916   3.986   3.863 -0.3291  0.2497  0.3940
  117MOL   C16128233   4.043   3.801   3.984 -0.2443 -0.0439 -0.6806
  117MOL   C16228234   4.032   3.665   4.043 -0.2922  0.0811  0.0018
  117MOL   O16328235   3.933   3.592   4.023 -0.1450 -0.2162  0.1232
  117MOL   H16428236   3.841   3.786   3.916 -1.0931 -0.6063  4.8395
  117MOL   H16528237   3.818   4.034   3.855 -0.6488 -0.1453  1.7037
  117MOL   H16628238   3.961   3.951   3.770 -1.4201  0.5373 -0.2520
  117MOL   H16728239   3.976   4.068   3.902  2.2963 -1.1767 -0.5100
  117MOL   H16828240   4.109   3.862   4.047 -1.3313 -1.4232  1.8608
  117MOL   H16928241   4.087   3.788   3.885  4.8270  0.6289  1.2908
  117MOL   O17028242   4.138   3.629   4.120  0.0934 -0.1032 -0.1242
  117MOL   C17128243   4.153   3.504   4.181  0.4640 -0.3644 -0.3136
  117MOL   C17228244   4.265   3.428   4.112 -0.6038  0.9342 -0.2709
  117MOL   C17328245   4.180   3.535   4.327  0.2473  0.7863  0.0746
  117MOL   C17428246   4.310   3.606   4.366  0.1365  0.2188  0.5292
  117MOL   O17528247   4.318   3.733   4.377 -0.3987 -0.3389  0.6034
  117MOL   H17628248   4.065   3.440   4.177  1.2658 -1.5920  1.3711
  117MOL   H17728249   4.239   3.414   4.007 -1.3141  2.0310 -0.2418
  117MOL   H17828250   4.284   3.333   4.162  3.6182  0.2157 -2.9304
  117MOL   H17928251   4.362   3.478   4.112  0.0143 -0.2286 -0.6140
  117MOL   H18028252   4.191   3.444   4.385 -0.7674  0.3654 -0.3892
  117MOL   H18128253   4.092   3.583   4.372  0.3124  0.2425  0.7806
  117MOL   O18228254   4.408   3.520   4.394 -0.1361  0.0674  0.1317
  117MOL   C18328255   4.528   3.556   4.456  0.0695  0.3998 -0.2287
  117MOL   C18428256   4.614   3.636   4.363  0.3122 -0.2561  0.2325
  117MOL   C18528257   4.517   3.619   4.601 -0.1331 -0.0076  0.4650
  117MOL   C18628258   4.485   3.519   4.704 -0.1049 -0.0570 -0.2522
  117MOL   O18728259   4.538   3.532   4.816 -0.3840  0.1444 -0.3520
  117MOL   H18828260   4.579   3.461   4.471  1.2562  1.3900  2.2739
  117MOL   H18928261   4.581   3.738   4.344  0.0399 -0.3432  0.2384
  117MOL   H19028262   4.635   3.581   4.271  0.4698  1.4829 -0.7845
  117MOL   H19128263   4.706   3.639   4.421  1.4842 -2.1387 -1.4166
  117MOL   H19228264   4.447   3.702   4.597 -0.4045 -0.3077 -1.9640
  117MOL   H19328265   4.613   3.659   4.634 -0.3006  0.8360 -0.0475
  117MOL   O19428266   4.387   3.427   4.670 -0.1154 -0.2428  0.4199
  117MOL   C19528267   4.340   3.339   4.764  0.1040 -0.2357 -0.3717
  117MOL   C19628268   4.192   3.381   4.795  0.1395  0.6832  0.1549
  117MOL   C19728269   4.352   3.195   4.707  0.5619  0.3441 -0.0337
  117MOL   C19828270   4.494   3.142   4.695  0.4526 -0.4079 -0.0766
  117MOL   O19928271   4.519   3.077   4.591  0.3916  0.0108  0.6354
  117MOL   H20028272   4.400   3.340   4.855 -0.3551  0.1310 -0.0727
  117MOL   H20128273   4.136   3.398   4.704  0.6596 -0.6385 -0.4326
  117MOL   H20228274   4.185   3.461   4.869  0.0409 -0.7199  1.6940
  117MOL   H20328275   4.143   3.292   4.835  1.9219  0.5512  2.1455
  117MOL   H20428276   4.296   3.182   4.615 -1.6440  0.3910  1.2546
  117MOL   H20528277   4.305   3.135   4.785 -0.2662 -1.8225 -2.1363
  117MOL   O20628278   4.569   3.162   4.800  0.2628 -0.4884 -0.2796
  117MOL   C20728279   4.695   3.103   4.814  0.0309 -0.7007  0.5785
  117MOL   C20828280   4.787   3.219   4.858 -0.0819 -0.5754  0.0390
  117MOL   C20928281   4.683   2.997   4.920 -0.1367  0.1262 -0.3489
  117MOL   C21028282   4.813   2.920   4.940 -0.0107 -0.0159 -0.2014
  117MOL   O21128283   4.893   2.904   4.854  0.0964  0.7677  0.3377
  117MOL   H21228284   4.734   3.066   4.719  2.3338  1.8541  0.4688
  117MOL   H21328285   4.750   3.257   4.953 -0.0813  0.7873 -0.4958
  117MOL   H21428286   4.767   3.290   4.777 -0.4718 -0.2361  0.4334
  117MOL   H21528287   4.894   3.195   4.855  0.6625  2.5625 -2.0907
  117MOL   H21628288   4.606   2.923   4.896 -1.2721  0.8762  0.8879
  117MOL   H21728289   4.657   3.047   5.013 -0.1255  1.8626 -1.2682
  117MOL   O21828290   4.823   2.881   5.068 -0.2118 -0.2696  0.2280
  117MOL   C21928291   4.945   2.840   5.123 -0.4930  0.5176  0.0893
  117MOL   C22028292   4.973   2.903   5.262 -0.3612 -0.7820  0.0687
  117MOL   C22128293   4.937   2.687   5.136 -0.1532  0.3334 -0.0973
  117MOL   C22228294   4.960   2.604   5.015  0.7395 -0.2036  0.0110
  117MOL   O22328295   4.865   2.525   4.981 -0.6295 -0.2992 -0.2627
  117MOL   H22428296   5.012   2.874   5.044  0.0418 -0.2213  0.2222
  117MOL   H22528297   5.061   2.866   5.315 -0.4340 -0.3036  0.5327
  117MOL   H22628298   4.891   2.888   5.332  0.9010  0.7978  1.9506
  117MOL   H22728299   4.992   3.010   5.263 -0.1643 -0.7401 -3.5945
  117MOL   H22828300   4.861   2.647   5.203 -0.3971 -3.3743 -2.4965
  117MOL   H22928301   5.026   2.671   5.198  0.6759 -1.9046 -1.8121
  117MOL   O23028302   5.087   2.614   4.957  0.4923 -0.1012  0.1259
  117MOL   C23128303   5.120   2.526   4.847  0.0923 -0.1979  0.2737
  117MOL   C23228304   5.215   2.604   4.760  0.4342  0.1948  0.6050
  117MOL   C23328305   5.180   2.400   4.904 -0.1641  0.0656 -0.0483
  117MOL   C23428306   5.086   2.281   4.901  0.4100 -0.9761 -0.1903
  117MOL   O23528307   5.121   2.166   4.929  0.3587 -0.0028 -0.3282
  117MOL   H23628308   5.025   2.506   4.797 -0.4495  1.6508  0.5268
  117MOL   H23728309   5.165   2.696   4.731 -2.8075 -1.1688  1.6368
  117MOL   H23828310   5.248   2.547   4.673 -1.0006 -1.5760  1.1874
  117MOL   H23928311   5.309   2.637   4.804  0.0798 -0.4510  1.8786
  117MOL   H24028312   5.209   2.421   5.007 -0.2126  0.1275 -0.0484
  117MOL   H24128313   5.272   2.364   4.858  0.4035 -0.0563  1.1613
  117MOL   H24228314   4.980   2.305   4.899  0.5278 -0.3305  0.9622
  118MOL     O128315   1.832   0.125   5.165 -0.4125  0.1329 -0.1193
  118MOL     C228316   1.702   0.143   5.122 -0.6106 -0.3626  0.0741
  118MOL     C328317   1.683   0.295   5.125  0.4267 -0.2340  0.8065
  118MOL     C428318   1.677   0.077   4.979  0.1860  0.1105  0.6549
  118MOL     C528319   1.533   0.079   4.937  0.1825  0.2298  0.4009
  118MOL     O628320   1.488   0.172   4.873  0.1830  0.3692 -0.2486
  118MOL     H728321   1.650   0.102   5.209 -2.6804 -1.0185 -1.4368
  118MOL     H828322   1.708   0.331   5.225 -2.2981  0.5704  1.2356
  118MOL     H928323   1.580   0.309   5.092  0.2778 -2.6519  0.1578
  118MOL    H1028324   1.755   0.335   5.054 -2.1896  1.7519 -0.8563
  118MOL    H1128325   1.711   7.954   4.988  0.8803  0.4599  2.1501
  118MOL    H1228326   1.738   0.124   4.902  0.1978  0.3454  0.8069
  118MOL    H1328327   1.843   0.036   5.195 -1.6397  0.0356  0.0627
  118MOL    O1428328   1.461   7.964   4.992  0.5306  0.3083 -0.4247
  118MOL    C1528329   1.336   7.937   4.927  0.7971 -0.3052 -0.7532
  118MOL    C1628330   1.311   7.785   4.944  0.4466 -0.0007  0.8810
  118MOL    C1728331   1.227   0.037   4.994  0.9112 -0.0111  0.6687
  118MOL    C1828332   1.087   0.028   4.946  0.2722  0.1939  0.4155
  118MOL    O1928333   0.997   7.967   5.021  0.2976 -0.5087  0.2800
  118MOL    H2028334   1.328   7.958   4.820  0.2492 -0.1505 -0.6825
  118MOL    H2128335   1.403   7.748   4.899 -2.3838 -2.5152 -3.1906
  118MOL    H2228336   1.226   7.738   4.895  1.2890 -1.3317  0.6703
  118MOL    H2328337   1.319   7.769   5.052 -1.0552  0.5874  1.0936
  118MOL    H2428338   1.259   0.140   4.987  0.8235 -0.1939 -3.1828
  118MOL    H2528339   1.240   0.008   5.099 -0.4881 -0.7928  0.6380
  118MOL    O2628340   1.078   0.047   4.818 -0.0428 -0.5670 -0.5704
  118MOL    C2728341   0.948   0.030   4.752 -0.3446 -0.6455  0.1746
  118MOL    C2828342   0.926   0.152   4.656  0.1052 -0.3757  0.2322
  118MOL    C2928343   0.942   7.881   4.680  0.4166  0.9764 -1.3514
  118MOL    C3028344   0.880   7.763   4.759  0.0474 -0.0393  1.1415
  118MOL    O3128345   0.760   7.752   4.790  0.3522 -0.3935  0.5447
  118MOL    H3228346   0.863   0.029   4.821  0.2789 -0.2728  0.9481
  118MOL    H3328347   1.008   0.176   4.589  0.3663 -1.5493  0.1249
  118MOL    H3428348   0.905   0.241   4.715 -0.5742  0.6004 -1.4492
  118MOL    H3528349   0.840   0.133   4.592  1.5160  1.8870 -2.4256
  118MOL    H3628350   1.043   7.851   4.651  0.6610 -1.7715  2.0029
  118MOL    H3728351   0.885   7.893   4.588  0.0233  0.4781 -1.1742
  118MOL    O3828352   0.965   7.663   4.769 -0.1855 -0.3197  0.1017
  118MOL    C3928353   0.918   7.543   4.826  0.1025 -0.1754 -0.6424
  118MOL    C4028354   0.995   7.432   4.749  0.2325  0.6141 -0.6311
  118MOL    C4128355   0.965   7.543   4.974 -0.7790 -0.0322 -0.8538
  118MOL    C4228356   0.892   7.442   5.063  0.6564 -0.1779 -0.0530
  118MOL    O4328357   0.783   7.390   5.030  0.0614 -0.3707  0.0008
  118MOL    H4428358   0.812   7.522   4.818  0.0119 -0.1303  0.3797
  118MOL    H4528359   0.979   7.330   4.785 -1.8976  0.5973 -1.5459
  118MOL    H4628360   1.100   7.464   4.751  0.7875 -1.1582  0.0645
  118MOL    H4728361   0.968   7.412   4.645 -0.3241  2.3708 -0.8458
  118MOL    H4828362   0.941   7.636   5.026  3.1117  0.3825  0.3997
  118MOL    H4928363   1.072   7.526   4.985 -0.9911 -0.2474  1.0572
  118MOL    O5028364   0.965   7.409   5.166  0.1405  0.0996 -0.5031
  118MOL    C5128365   0.934   7.305   5.260  0.1776 -0.4620  0.1745
  118MOL    C5228366   0.990   7.176   5.204  0.1195  0.0345 -0.0519
  118MOL    C5328367   0.973   7.340   5.412  0.4423  0.3892 -0.3930
  118MOL    C5428368   1.117   7.327   5.440 -0.0775  0.5923 -0.4230
  118MOL    O5528369   1.160   7.276   5.547  0.2809  0.3073  0.3238
  118MOL    H5628370   0.825   7.300   5.250 -0.0913  0.5056  2.2111
  118MOL    H5728371   1.095   7.162   5.231  0.1323  0.4570  0.1179
  118MOL    H5828372   0.984   7.160   5.097 -1.3016  0.2808 -0.0150
  118MOL    H5928373   0.940   7.087   5.243 -0.1003 -0.6661 -1.9272
  118MOL    H6028374   0.915   7.273   5.476 -0.5101  1.4348 -0.1458
  118MOL    H6128375   0.922   7.433   5.437  0.0086  0.4753 -1.5836
  118MOL    O6228376   1.192   7.385   5.343 -0.3527  0.0018 -0.2513
  118MOL    C6328377   1.335   7.406   5.363 -0.1764  0.4489  0.5475
  118MOL    C6428378   1.399   7.387   5.221  0.2034  0.0612  0.5636
  118MOL    C6528379   1.369   7.543   5.420  0.7205  0.2500 -0.6737
  118MOL    C6628380   1.517   7.563   5.448 -0.6001 -1.0103  0.2871
  118MOL    O6728381   1.588   7.470   5.485  0.4141 -0.1225 -0.2134
  118MOL    H6828382   1.369   7.315   5.412  0.5973  0.8695  0.7948
  118MOL    H6928383   1.351   7.302   5.173  1.3477 -1.3845  1.9169
  118MOL    H7028384   1.507   7.368   5.222  0.2434  0.2033  3.0395
  118MOL    H7128385   1.377   7.475   5.159 -1.4695  0.5507  1.8305
  118MOL    H7228386   1.312   7.562   5.511  1.6896 -2.1345  0.4632
  118MOL    H7328387   1.331   7.611   5.344 -3.9734 -2.6181 -1.1306
  118MOL    O7428388   1.546   7.700   5.441 -0.0360  0.2745 -0.1613
  118MOL    C7528389   1.668   7.752   5.484  0.4062  0.3141  0.2208
  118MOL    C7628390   1.702   7.885   5.412  0.5720  0.2846 -0.7553
  118MOL    C7728391   1.651   7.773   5.637 -0.3829 -0.1056 -0.3030
  118MOL    C7828392   1.782   7.782   5.708 -0.8244 -0.7098  0.4873
  118MOL    O7928393   1.890   7.770   5.654  0.6135  0.0049  0.2465
  118MOL    H8028394   1.742   7.675   5.463  0.3915  0.6757 -1.1730
  118MOL    H8128395   1.638   7.972   5.428 -2.2278 -1.3466 -2.6698
  118MOL    H8228396   1.702   7.879   5.303 -1.3475 -0.2074 -0.7465
  118MOL    H8328397   1.806   7.915   5.427  1.1747 -0.9670 -2.3315
  118MOL    H8428398   1.596   7.686   5.673  0.6971  0.5745  3.1731
  118MOL    H8528399   1.591   7.862   5.655  1.2890  0.9096  0.3453
  118MOL    O8628400   1.765   7.798   5.833 -0.0216 -0.2098  0.0520
  118MOL    C8728401   1.882   7.773   5.912 -0.0216 -0.6063 -0.1244
  118MOL    C8828402   1.952   7.910   5.927 -0.3412  0.1250 -0.4715
  118MOL    C8928403   1.848   7.712   6.049 -0.5874  0.4585 -0.2477
  118MOL    C9028404   1.802   7.568   6.046 -0.6314  0.5043  0.5321
  118MOL    O9128405   1.867   7.479   5.992  0.2701 -0.0064  0.1416
  118MOL    H9228406   1.952   7.702   5.868  1.9904 -0.0052  2.0113
  118MOL    H9328407   1.988   7.959   5.837 -0.3191  1.9691  0.5018
  118MOL    H9428408   2.017   7.915   6.015 -0.1495  1.0386 -0.6633
  118MOL    H9528409   1.876   7.979   5.962  0.3916 -0.4745  2.4847
  118MOL    H9628410   1.781   7.779   6.104  0.3037  1.7520 -0.7070
  118MOL    H9728411   1.940   7.713   6.107 -0.2854 -1.5216 -0.6545
  118MOL    O9828412   1.678   7.547   6.101  0.4520 -0.1322 -0.3744
  118MOL    C9928413   1.621   7.411   6.117 -0.0373  0.3543 -0.0825
  118MOL   C10028414   1.614   7.375   6.266  0.4268 -0.4628 -0.3200
  118MOL   C10128415   1.484   7.419   6.052 -0.1699 -0.2388  0.6222
  118MOL   C10228416   1.500   7.403   5.904  0.5982 -0.2769 -0.3575
  118MOL   O10328417   1.468   7.485   5.816 -0.6547 -0.5608 -0.8088
  118MOL   H10428418   1.677   7.332   6.065  0.1030  0.4259 -0.0413
  118MOL   H10528419   1.562   7.460   6.311  0.1969  0.3309 -2.0429
  118MOL   H10628420   1.713   7.386   6.312  0.4392 -1.9617  0.0393
  118MOL   H10728421   1.574   7.278   6.294  1.2397 -1.0770 -1.2586
  118MOL   H10828422   1.444   7.518   6.073  1.4419  0.3609  0.9565
  118MOL   H10928423   1.415   7.345   6.092  0.9673 -0.9176  1.3739
  118MOL   O11028424   1.533   7.272   5.880 -0.7135  0.7400  0.1580
  118MOL   C11128425   1.582   7.225   5.754 -0.1896  0.1394 -0.4900
  118MOL   C11228426   1.662   7.094   5.775 -0.0223  1.0414 -0.1638
  118MOL   C11328427   1.469   7.205   5.653 -0.6403  0.4639 -0.0092
  118MOL   C11428428   1.385   7.075   5.659  0.0175 -0.3126 -0.3752
  118MOL   O11528429   1.382   6.998   5.561 -0.0940 -0.2113  0.1979
  118MOL   H11628430   1.650   7.298   5.710 -1.6655  0.4412 -2.3372
  118MOL   H11728431   1.696   7.051   5.681  2.4683  0.5668  0.9142
  118MOL   H11828432   1.598   7.020   5.822 -2.4218  2.8558 -0.4777
  118MOL   H11928433   1.751   7.104   5.837  0.6736 -0.3598 -0.9144
  118MOL   H12028434   1.512   7.189   5.554 -0.1227  1.2971  0.0819
  118MOL   H12128435   1.413   7.295   5.627  2.7671  2.0593 -2.1618
  118MOL   O12228436   1.321   7.060   5.776 -0.1060  0.4171 -0.0928
  118MOL   C12328437   1.216   6.970   5.792  0.3160 -0.5331 -1.0599
  118MOL   C12428438   1.214   6.917   5.934  0.2940  0.1535  0.3319
  118MOL   C12528439   1.093   7.042   5.745  0.1527 -0.6480  0.3184
  118MOL   C12628440   0.969   6.960   5.712 -0.7713  0.1236  0.5161
  118MOL   O12728441   0.974   6.835   5.706  0.0584 -0.1955 -0.3090
  118MOL   H12828442   1.238   6.881   5.733  1.4214  0.8949 -2.8477
  118MOL   H12928443   1.193   7.005   5.994  1.4236  1.6481 -1.4342
  118MOL   H13028444   1.301   6.858   5.965  1.1279  1.2577  0.1252
  118MOL   H13128445   1.133   6.845   5.948  0.3142  0.0027 -0.3279
  118MOL   H13228446   1.122   7.090   5.652 -1.0380  0.4395  0.4836
  118MOL   H13328447   1.063   7.116   5.820 -1.8965 -1.9810  0.8751
  118MOL   O13428448   0.863   7.035   5.679 -0.6547 -0.0501 -0.2784
  118MOL   C13528449   0.738   6.984   5.640  0.4103  0.2494  0.4285
  118MOL   C13628450   0.643   6.984   5.761 -0.9645  0.6483  0.4080
  118MOL   C13728451   0.684   7.059   5.514 -0.0908  0.3958  0.4114
  118MOL   C13828452   0.647   7.203   5.533 -1.0890 -0.3840 -0.5091
  118MOL   O13928453   0.690   7.259   5.637 -0.6880  0.1795 -0.2525
  118MOL   H14028454   0.736   6.877   5.623 -0.4939  0.3031  0.1795
  118MOL   H14128455   0.645   7.075   5.822  1.0810 -0.1672  1.6140
  118MOL   H14228456   0.685   6.913   5.832  0.9754 -0.4760 -1.8263
  118MOL   H14328457   0.552   6.944   5.716  0.0957 -1.4378  0.0792
  118MOL   H14428458   0.596   7.008   5.473  1.0776 -1.2322 -0.1245
  118MOL   H14528459   0.760   7.048   5.436 -0.5653  1.4672 -0.2174
  118MOL   O14628460   0.590   7.267   5.427  0.8360  0.3005 -0.6081
  118MOL   C14728461   0.535   7.397   5.431 -0.4320 -0.6582 -0.2264
  118MOL   C14828462   0.581   7.467   5.300  0.0944  0.0021 -0.7601
  118MOL   C14928463   0.384   7.375   5.429  0.8115 -0.4105  0.1076
  118MOL   C15028464   0.297   7.495   5.479  0.1840  0.3064 -0.0825
  118MOL   O15128465   0.345   7.605   5.478 -1.0069 -0.3345  0.3311
  118MOL   H15228466   0.561   7.461   5.515 -1.5109  1.4801 -1.4660
  118MOL   H15328467   0.690   7.475   5.294  0.0272  1.2230 -0.5257
  118MOL   H15428468   0.555   7.573   5.299 -0.6706 -0.1666  0.2406
  118MOL   H15528469   0.533   7.432   5.209 -0.3879  2.2180 -1.3961
  118MOL   H15628470   0.376   7.296   5.503 -1.8853 -1.4262 -1.1799
  118MOL   H15728471   0.349   7.327   5.337  1.4835  0.0915 -0.4153
  118MOL   O15828472   0.174   7.459   5.513 -0.3655  0.4065  0.3855
  118MOL   C15928473   0.072   7.548   5.556  0.2398 -0.0118 -0.6983
  118MOL   C16028474   7.920   7.473   5.566 -0.4801 -0.7347  0.7092
  118MOL   C16128475   0.109   7.613   5.699  0.3310 -0.6954  0.4438
  118MOL   C16228476   0.120   7.497   5.806  0.1902  0.1606  0.0713
  118MOL   O16328477   0.029   7.469   5.883 -0.3920 -0.0097  0.0539
  118MOL   H16428478   0.064   7.634   5.490  2.8407 -0.0190 -1.0600
  118MOL   H16528479   7.834   7.538   5.582  1.2042  1.6772  0.3799
  118MOL   H16628480   7.925   7.400   5.646 -0.1619 -1.0306  0.4220
  118MOL   H16728481   7.904   7.419   5.472 -2.0733 -0.6581  0.9204
  118MOL   H16828482   0.034   7.689   5.722 -2.1660 -2.6283 -1.0911
  118MOL   H16928483   0.207   7.661   5.702 -0.3488  0.7307  0.4705
  118MOL   O17028484   0.246   7.442   5.799  0.1692  0.4910 -0.0623
  118MOL   C17128485   0.268   7.317   5.868 -0.1577  0.2846 -0.1266
  118MOL   C17228486   0.333   7.215   5.762 -0.4872  0.4952  0.3126
  118MOL   C17328487   0.349   7.328   6.004 -0.3760 -0.5822 -0.2312
  118MOL   C17428488   0.500   7.356   5.998  0.5953 -0.0826  0.1892
  118MOL   O17528489   0.588   7.278   6.022 -0.3836  0.3899  0.3343
  118MOL   H17628490   0.180   7.270   5.914  0.1424  0.1103  0.2745
  118MOL   H17728491   0.421   7.255   5.712  0.1502  1.0097  1.8082
  118MOL   H17828492   0.271   7.188   5.677 -0.2732 -0.4696  0.4533
  118MOL   H17928493   0.371   7.120   5.801 -1.7046  0.2743  0.9799
  118MOL   H18028494   0.337   7.228   6.046  1.4393 -0.9764 -0.6212
  118MOL   H18128495   0.300   7.400   6.069  2.6983  0.9222  0.5098
  118MOL   O18228496   0.530   7.494   5.981  0.5187  1.0197  0.5156
  118MOL   C18328497   0.662   7.538   5.960 -0.1946 -0.2383  0.5162
  118MOL   C18428498   0.680   7.561   5.805 -0.3908 -0.0532 -0.4352
  118MOL   C18528499   0.700   7.656   6.053  0.2458 -0.2750  0.4387
  118MOL   C18628500   0.714   7.625   6.204  0.2290  0.2499 -0.2893
  118MOL   O18728501   0.645   7.679   6.291  0.1458 -0.2721  0.3648
  118MOL   H18828502   0.729   7.460   5.996  0.8374  0.3415 -0.1280
  118MOL   H18928503   0.779   7.602   5.783 -1.3177  1.2943 -2.2376
  118MOL   H19028504   0.606   7.626   5.760 -0.4170  0.7399  0.7463
  118MOL   H19128505   0.660   7.463   5.761 -1.2945  0.5851 -1.4914
  118MOL   H19228506   0.637   7.743   6.035 -0.9206 -1.0836  0.5444
  118MOL   H19328507   0.796   7.690   6.015 -0.2994 -0.4482 -1.1344
  118MOL   O19428508   0.812   7.528   6.222  0.6258  0.0157  0.7731
  118MOL   C19528509   0.882   7.526   6.343 -0.0148  0.4288 -0.0237
  118MOL   C19628510   0.893   7.377   6.374 -0.3969 -0.2833  0.1788
  118MOL   C19728511   1.017   7.604   6.323 -0.6909 -0.3626  0.1152
  118MOL   C19828512   1.118   7.542   6.229 -0.1974 -0.1027 -0.0776
  118MOL   O19928513   1.235   7.525   6.258 -0.3694 -0.2537  0.1296
  118MOL   H20028514   0.821   7.569   6.423  0.1051 -1.4984  1.1237
  118MOL   H20128515   0.958   7.332   6.299 -1.2976 -1.0349 -0.1722
  118MOL   H20228516   0.793   7.334   6.366 -0.8856  0.5073  1.9246
  118MOL   H20328517   0.933   7.369   6.475  0.2155  0.8605  0.0342
  118MOL   H20428518   1.062   7.605   6.422 -0.4141  1.2355 -0.0133
  118MOL   H20528519   0.995   7.708   6.298 -2.6482 -0.5435  1.0201
  118MOL   O20628520   1.059   7.505   6.111 -0.1193 -0.6156 -0.4305
  118MOL   C20728521   1.131   7.435   6.007  0.5974 -0.7050 -0.1428
  118MOL   C20828522   1.122   7.284   6.038 -0.1138  0.1461  0.0792
  118MOL   C20928523   1.077   7.471   5.864 -0.0846 -0.1940  1.7435
  118MOL   C21028524   1.085   7.620   5.833 -0.4698  0.4910  0.3686
  118MOL   O21128525   0.983   7.694   5.808 -0.4012  0.0077 -0.1212
  118MOL   H21228526   1.235   7.465   6.015  1.2250 -2.1680 -2.4378
  118MOL   H21328527   1.026   7.237   6.019 -0.2890 -0.1886  1.7264
  118MOL   H21428528   1.140   7.262   6.143  0.4787  1.0078  0.1621
  118MOL   H21528529   1.199   7.235   5.977 -1.3378 -0.2478 -1.1968
  118MOL   H21628530   0.971   7.445   5.855 -0.2855  1.0496  0.2121
  118MOL   H21728531   1.127   7.428   5.778 -0.2100  3.0971 -0.0583
  118MOL   O21828532   1.215   7.664   5.829 -0.2023 -0.1816 -0.5679
  118MOL   C21928533   1.250   7.802   5.820 -0.1286  0.2858 -0.4155
  118MOL   C22028534   1.372   7.824   5.907 -0.7701  1.1550 -0.1901
  118MOL   C22128535   1.292   7.833   5.673  0.3238 -0.3505  0.1342
  118MOL   C22228536   1.178   7.886   5.589 -0.3705  0.1278 -0.0968
  118MOL   O22328537   1.163   0.029   5.582 -0.3038  0.3847  0.4774
  118MOL   H22428538   1.175   7.879   5.843 -0.2708  0.1804 -0.5259
  118MOL   H22528539   1.464   7.794   5.857  0.9197  2.2642  2.1832
  118MOL   H22628540   1.372   7.772   6.003  2.1030  2.5613  0.6126
  118MOL   H22728541   1.386   7.930   5.927  3.7890  0.8625 -1.3941
  118MOL   H22828542   1.342   7.741   5.643  1.4547  0.1657  0.4035
  118MOL   H22928543   1.372   7.906   5.662  2.1759 -2.0557  1.8101
  118MOL   O23028544   1.095   7.791   5.533 -0.4692  0.5393  0.2286
  118MOL   C23128545   0.973   7.821   5.461 -0.0381  0.8723  0.9235
  118MOL   C23228546   0.992   7.781   5.318 -0.0871 -0.2363  0.1963
  118MOL   C23328547   0.844   7.751   5.520 -0.5285 -0.5638 -0.2354
  118MOL   C23428548   0.782   7.843   5.623 -0.6410  0.5345 -0.2161
  118MOL   O23528549   0.758   7.958   5.591  0.5591 -0.5879 -0.3055
  118MOL   H23628550   0.966   7.929   5.472  0.3742  1.0925 -0.7561
  118MOL   H23728551   1.046   7.864   5.271  0.2174 -0.6585 -0.2120
  118MOL   H23828552   0.898   7.778   5.262 -0.2151 -1.7401  0.4754
  118MOL   H23928553   1.044   7.685   5.313  1.5586  0.5826  1.0501
  118MOL   H24028554   0.848   7.650   5.562 -0.1505 -0.4806 -0.0715
  118MOL   H24128555   0.772   7.742   5.438 -0.2221  1.5954 -0.7569
  118MOL   H24228556   0.748   7.794   5.715 -0.4252  0.7049 -0.0457
  119MOL     O128557   5.310   7.490   6.609  0.0537  0.3469 -0.2974
  119MOL     C228558   5.293   7.623   6.651 -0.2342 -0.3030  0.7714
  119MOL     C328559   5.347   7.705   6.535  0.0095  0.4367 -0.0177
  119MOL     C428560   5.144   7.646   6.691 -0.6196 -0.2602  0.2002
  119MOL     C528561   5.104   7.778   6.764 -0.0831  1.0291 -0.0192
  119MOL     O628562   5.017   7.775   6.852  0.4001  0.9813  0.1505
  119MOL     H728563   5.361   7.646   6.733 -0.3800 -0.1036  0.8360
  119MOL     H828564   5.456   7.708   6.533  0.0600 -1.2642 -0.4037
  119MOL     H928565   5.311   7.808   6.527 -0.5833  0.1997 -0.4311
  119MOL    H1028566   5.304   7.669   6.441 -0.8792 -1.1310  0.9802
  119MOL    H1128567   5.117   7.559   6.750 -1.8584  0.4405  0.6865
  119MOL    H1228568   5.083   7.637   6.601 -0.2890 -1.0384  0.0587
  119MOL    H1328569   5.277   7.431   6.675  1.6840 -0.0932  0.1531
  119MOL    O1428570   5.166   7.879   6.730  0.1144  0.5367 -0.5015
  119MOL    C1528571   5.142   0.023   6.799  0.1322  0.1343 -0.8875
  119MOL    C1628572   5.275   0.049   6.877  0.7182 -0.1492 -0.5270
  119MOL    C1728573   5.090   0.144   6.714 -0.0939  0.4620  0.1746
  119MOL    C1828574   5.187   0.174   6.598  0.1000 -0.3738  0.5827
  119MOL    O1928575   5.289   0.242   6.612 -0.7868 -0.3572 -0.0534
  119MOL    H2028576   5.067   0.013   6.878  0.7896 -0.9307 -0.3978
  119MOL    H2128577   5.369   0.059   6.822  1.0524 -0.6262 -0.0381
  119MOL    H2228578   5.295   7.958   6.957  1.2208 -0.1431 -0.6424
  119MOL    H2328579   5.259   0.139   6.936  0.2296 -1.7361  1.8112
  119MOL    H2428580   5.074   0.231   6.779 -3.2959  1.5204 -1.8970
  119MOL    H2528581   5.002   0.131   6.651  0.2249  0.0649 -0.1876
  119MOL    O2628582   5.137   0.136   6.480 -0.0327  0.5348  0.6980
  119MOL    C2728583   5.215   0.145   6.364  0.0559  0.0766 -0.5212
  119MOL    C2828584   5.176   0.022   6.281  0.1305  0.9170  0.1102
  119MOL    C2928585   5.201   0.283   6.304  0.4076 -0.0947  0.0001
  119MOL    C3028586   5.063   0.345   6.304 -0.0038  0.3663 -0.2168
  119MOL    O3128587   5.029   0.435   6.373 -0.0293 -0.5028  1.1457
  119MOL    H3228588   5.321   0.136   6.390 -0.6067 -1.3081  1.8464
  119MOL    H3328589   5.073   0.019   6.245 -0.0612  0.2574  0.6891
  119MOL    H3428590   5.186   7.909   6.338 -0.6293 -0.4481 -1.9202
  119MOL    H3528591   5.244   0.018   6.196  0.2996 -0.4089  0.2943
  119MOL    H3628592   5.233   0.257   6.204  1.6932 -1.6957  0.8036
  119MOL    H3728593   5.275   0.348   6.351  0.4180  0.0042 -0.1542
  119MOL    O3828594   4.974   0.274   6.228 -0.5204 -0.1246  0.1449
  119MOL    C3928595   4.848   0.323   6.201 -0.8838 -0.4406  0.5639
  119MOL    C4028596   4.789   0.290   6.060  0.0799 -0.2498 -0.1686
  119MOL    C4128597   4.745   0.282   6.310  0.3293  0.5686 -1.0124
  119MOL    C4228598   4.716   0.130   6.327 -0.5629 -0.3399 -0.2172
  119MOL    O4328599   4.642   0.076   6.248  0.1198 -0.2389  0.5572
  119MOL    H4428600   4.847   0.432   6.207  0.4984 -0.5724  5.2247
  119MOL    H4528601   4.821   0.362   5.985 -2.3606  0.7927 -0.2778
  119MOL    H4628602   4.681   0.303   6.074 -0.1926 -2.6984  0.3339
  119MOL    H4728603   4.802   0.183   6.040 -1.2387 -0.6379  0.9860
  119MOL    H4828604   4.644   0.323   6.301 -0.2595 -0.2634  1.3550
  119MOL    H4928605   4.781   0.324   6.404 -1.3281  1.0398 -0.5714
  119MOL    O5028606   4.762   0.077   6.430 -0.2148 -0.1519 -0.3431
  119MOL    C5128607   4.738   7.915   6.445 -0.5855 -1.0514  0.4492
  119MOL    C5228608   4.844   7.832   6.368  0.4928 -0.3450  0.3421
  119MOL    C5328609   4.758   7.879   6.590 -0.1049 -0.1986  0.1250
  119MOL    C5428610   4.690   7.750   6.638 -0.4819 -0.1522  0.1441
  119MOL    O5528611   4.754   7.656   6.678  0.8463 -0.1917  0.7763
  119MOL    H5628612   4.637   7.884   6.419 -0.3498 -0.0622 -1.7612
  119MOL    H5728613   4.812   7.728   6.381 -3.9478  0.8493 -0.3361
  119MOL    H5828614   4.947   7.844   6.402  0.4741 -2.8854  1.4850
  119MOL    H5928615   4.845   7.845   6.260 -1.6463  2.2094  0.5919
  119MOL    H6028616   4.705   7.948   6.655 -0.6778 -1.1550  0.6735
  119MOL    H6128617   4.865   7.875   6.612 -0.1315 -0.7556  0.1482
  119MOL    O6228618   4.557   7.757   6.620  0.1888 -0.5510  0.4969
  119MOL    C6328619   4.482   7.646   6.663  0.1565  0.0350  0.2174
  119MOL    C6428620   4.374   7.687   6.762 -0.4225 -0.1547 -0.6233
  119MOL    C6528621   4.432   7.559   6.539 -0.2005 -0.2634  0.8553
  119MOL    C6628622   4.330   7.634   6.443 -0.1918  0.1574 -0.6644
  119MOL    O6728623   4.362   7.675   6.330  0.2662 -0.5483  0.3489
  119MOL    H6828624   4.548   7.573   6.710  0.3712  0.4596  0.5809
  119MOL    H6928625   4.314   7.765   6.715  0.1230  0.9410  0.4919
  119MOL    H7028626   4.415   7.724   6.855 -1.0033 -1.0367 -0.0080
  119MOL    H7128627   4.312   7.602   6.791  2.1594 -1.8743 -0.0009
  119MOL    H7228628   4.387   7.474   6.591 -1.1028 -1.3005 -1.5423
  119MOL    H7328629   4.520   7.523   6.486 -1.7695 -1.0384 -1.3162
  119MOL    O7428630   4.208   7.634   6.496  0.1411  0.3472  0.5393
  119MOL    C7528631   4.089   7.673   6.423  0.2448  0.2625  0.5788
  119MOL    C7628632   4.029   7.544   6.354 -0.7025 -0.4715 -0.4397
  119MOL    C7728633   3.991   7.765   6.507 -0.9644  0.4947  0.2430
  119MOL    C7828634   3.965   7.724   6.654 -0.8206 -0.4047 -0.1751
  119MOL    O7928635   3.968   7.802   6.754  0.0340 -0.1585 -0.1761
  119MOL    H8028636   4.120   7.738   6.341 -1.2956  0.0416 -0.2121
  119MOL    H8128637   3.938   7.555   6.294 -2.3114 -2.0222  1.6700
  119MOL    H8228638   3.995   7.473   6.429  0.6492  0.0285  0.6460
  119MOL    H8328639   4.105   7.493   6.295  1.7724  2.5528  0.0108
  119MOL    H8428640   3.906   7.778   6.441  0.4637 -2.9157 -2.4317
  119MOL    H8528641   4.022   7.868   6.527 -0.8239  0.6135 -0.5964
  119MOL    O8628642   3.928   7.591   6.670  0.4565 -0.4822  0.1975
  119MOL    C8728643   3.908   7.532   6.790 -0.2161  0.5770 -0.3286
  119MOL    C8828644   3.769   7.583   6.848  0.4286  0.7450 -0.2604
  119MOL    C8928645   3.917   7.372   6.768 -0.3776 -0.7467 -0.2263
  119MOL    C9028646   3.792   7.311   6.701 -0.1120  0.4992  0.0652
  119MOL    O9128647   3.753   7.206   6.752  0.3716  0.3674  0.0771
  119MOL    H9228648   3.997   7.558   6.847  0.2367 -0.4312 -0.5618
  119MOL    H9328649   3.779   7.681   6.896 -0.2239  0.0904  1.2401
  119MOL    H9428650   3.747   7.507   6.923  3.2778  0.3227  0.2273
  119MOL    H9528651   3.696   7.576   6.768  1.5675 -1.1893 -1.1626
  119MOL    H9628652   3.930   7.336   6.870 -0.4813 -0.3428 -0.0709
  119MOL    H9728653   4.004   7.368   6.703 -0.7879 -0.9458 -0.7722
  119MOL    O9828654   3.740   7.371   6.601  0.2618  0.3479 -0.1871
  119MOL    C9928655   3.618   7.327   6.538 -0.4554  0.1613  1.2791
  119MOL   C10028656   3.510   7.425   6.587  0.2822  0.2636  0.0851
  119MOL   C10128657   3.637   7.334   6.390  0.2805 -0.5855  0.2822
  119MOL   C10228658   3.724   7.215   6.338 -0.0936  0.0496 -0.6055
  119MOL   O10328659   3.682   7.103   6.316 -0.1202  0.1048  0.1838
  119MOL   H10428660   3.598   7.222   6.562  2.0285 -0.5003  0.5784
  119MOL   H10528661   3.516   7.432   6.696  1.7156 -2.1159  0.1885
  119MOL   H10628662   3.421   7.371   6.556  1.2459 -1.4523  0.2663
  119MOL   H10728663   3.502   7.524   6.542  2.3790  1.4895  2.2362
  119MOL   H10828664   3.677   7.433   6.369 -1.8108  0.0193 -1.0296
  119MOL   H10928665   3.541   7.321   6.339  0.6929  0.8310 -0.9069
  119MOL   O11028666   3.855   7.255   6.323  0.2668 -0.3622  0.4864
  119MOL   C11128667   3.958   7.172   6.257 -0.4601 -0.3958  0.2596
  119MOL   C11228668   4.008   7.246   6.120  0.2556 -0.1838 -0.2575
  119MOL   C11328669   4.084   7.160   6.342  0.0669  0.0261  0.2235
  119MOL   C11428670   4.068   7.057   6.460 -0.1393  0.3856  0.2268
  119MOL   O11528671   3.961   6.996   6.488  0.3921  0.0594 -0.0447
  119MOL   H11628672   3.922   7.072   6.234  0.2480 -0.6135  0.0695
  119MOL   H11728673   4.070   7.335   6.130  0.7320 -0.5743  0.3206
  119MOL   H11828674   3.914   7.265   6.069  0.4081  2.0328  0.2479
  119MOL   H11928675   4.066   7.169   6.068 -0.3478 -0.7494 -0.0994
  119MOL   H12028676   4.127   7.255   6.373 -0.7762  0.0815  1.2721
  119MOL   H12128677   4.150   7.111   6.271 -0.2567  0.8605 -0.6531
  119MOL   O12228678   4.186   7.042   6.523 -0.6064 -0.3786  0.1060
  119MOL   C12328679   4.190   6.975   6.645  0.1065  0.7072 -0.6314
  119MOL   C12428680   4.321   6.912   6.678 -0.4724  0.8692 -0.0272
  119MOL   C12528681   4.158   7.064   6.771  0.0900  0.4184  0.2438
  119MOL   C12628682   4.247   7.188   6.787  0.3188 -0.5113  0.5845
  119MOL   O12728683   4.272   7.267   6.696 -0.5994  0.3206 -0.6389
  119MOL   H12828684   4.116   6.895   6.644 -0.1696  0.8287  3.0337
  119MOL   H12928685   4.342   6.831   6.609 -0.3259 -0.6932  1.8408
  119MOL   H13028686   4.328   6.880   6.782  0.8088  0.7226 -0.1490
  119MOL   H13128687   4.393   6.992   6.659  1.2323 -1.1099 -2.1200
  119MOL   H13228688   4.161   7.002   6.860 -1.8598  1.9548  1.4412
  119MOL   H13328689   4.056   7.105   6.769 -1.1973 -2.7014  0.0228
  119MOL   O13428690   4.286   7.191   6.918 -0.1710 -0.3355 -0.3105
  119MOL   C13528691   4.380   7.294   6.959 -0.7231  0.0431 -0.1768
  119MOL   C13628692   4.295   7.374   7.059  0.1354 -0.7248 -0.2048
  119MOL   C13728693   4.491   7.209   7.029  0.5923 -0.3897  0.1791
  119MOL   C13828694   4.594   7.152   6.927  0.3368  0.6356 -0.5420
  119MOL   O13928695   4.608   7.034   6.896 -0.1529 -0.5287 -0.4029
  119MOL   H14028696   4.420   7.360   6.882  0.0184  0.4430  0.5499
  119MOL   H14128697   4.351   7.441   7.124 -1.4284  1.7978 -1.3821
  119MOL   H14228698   4.226   7.312   7.116  1.3840 -0.7857  1.2536
  119MOL   H14328699   4.235   7.441   6.997  0.1418  0.5168  1.0915
  119MOL   H14428700   4.449   7.125   7.085  2.3974 -1.4315  0.0207
  119MOL   H14528701   4.558   7.264   7.095  3.0054 -0.2542 -2.2940
  119MOL   O14628702   4.664   7.249   6.859  0.1320 -0.0476 -0.9946
  119MOL   C14728703   4.775   7.215   6.781 -0.7147  0.0817  0.0431
  119MOL   C14828704   4.768   7.293   6.656 -0.0961 -0.1531 -0.1877
  119MOL   C14928705   4.919   7.200   6.840 -0.3782  0.4895  0.7275
  119MOL   C15028706   4.944   7.068   6.913  0.3540 -0.9978 -0.1873
  119MOL   O15128707   4.998   6.971   6.863 -0.2222  0.1529 -0.4587
  119MOL   H15228708   4.771   7.113   6.742  3.8298  0.2582 -1.0778
  119MOL   H15328709   4.844   7.257   6.586 -0.1960 -0.3509 -0.1942
  119MOL   H15428710   4.813   7.389   6.682  0.4199 -0.1833 -0.9475
  119MOL   H15528711   4.668   7.311   6.617 -0.0256 -2.1780 -1.3713
  119MOL   H15628712   4.940   7.282   6.908 -0.6208 -0.7880  2.3586
  119MOL   H15728713   4.985   7.191   6.754 -0.2388 -0.8584  0.9749
  119MOL   O15828714   4.900   7.069   7.042 -0.2152  0.0758  0.1603
  119MOL   C15928715   4.955   6.970   7.129  0.0443 -0.0255  0.4641
  119MOL   C16028716   5.018   7.053   7.247 -0.3254  0.5640  0.3624
  119MOL   C16128717   4.841   6.862   7.147 -0.7125 -0.1665  0.0704
  119MOL   C16228718   4.709   6.906   7.209 -0.5465 -0.5521  0.0051
  119MOL   O16328719   4.681   7.018   7.243 -0.6441 -0.0532  0.5760
  119MOL   H16428720   5.039   6.919   7.081 -1.0994 -1.0175 -0.4915
  119MOL   H16528721   5.049   7.145   7.197 -0.6180  0.0411 -0.7998
  119MOL   H16628722   5.106   7.017   7.300 -1.0494  1.3251  2.1164
  119MOL   H16728723   4.935   7.075   7.314  0.0624  1.0997  0.6663
  119MOL   H16828724   4.884   6.803   7.228 -3.1859 -0.1421  1.4420
  119MOL   H16928725   4.828   6.814   7.051  0.3097  0.5928 -0.4557
  119MOL   O17028726   4.623   6.797   7.223  0.0009  0.0160  0.8231
  119MOL   C17128727   4.490   6.810   7.283  0.5183  0.0432 -0.0571
  119MOL   C17228728   4.378   6.793   7.183  0.6470  0.1545 -0.0225
  119MOL   C17328729   4.476   6.704   7.397  0.2178 -0.5442 -0.1168
  119MOL   C17428730   4.566   6.716   7.524  0.2584 -0.2183  0.7043
  119MOL   O17528731   4.515   6.746   7.633 -0.2840 -0.5871  0.1858
  119MOL   H17628732   4.486   6.914   7.317 -1.7019 -0.7921  2.4615
  119MOL   H17728733   4.362   6.871   7.110  0.2592  0.1482  0.0536
  119MOL   H17828734   4.281   6.791   7.233  0.0601  0.7633 -1.1313
  119MOL   H17928735   4.388   6.700   7.127  0.9330 -0.8264  1.6152
  119MOL   H18028736   4.493   6.607   7.349 -0.8601 -1.0151  0.4312
  119MOL   H18128737   4.374   6.683   7.430  0.3051 -0.0457  0.4701
  119MOL   O18228738   4.696   6.678   7.504  0.2542 -0.3104 -0.1676
  119MOL   C18328739   4.788   6.691   7.604 -0.2624  0.1848  0.3079
  119MOL   C18428740   4.796   6.568   7.687  0.6926  0.4569  0.1987
  119MOL   C18528741   4.918   6.737   7.543 -0.1711 -0.1192 -0.7370
  119MOL   C18628742   5.000   6.632   7.468  0.5935  0.3177 -0.1514
  119MOL   O18728743   4.956   6.601   7.354 -0.0374  0.4940  0.2632
  119MOL   H18828744   4.764   6.770   7.675  0.7122  0.3732  0.4267
  119MOL   H18928745   4.845   6.487   7.634 -0.2470  1.4383 -2.2653
  119MOL   H19028746   4.695   6.533   7.709  0.7581 -0.1497 -0.4573
  119MOL   H19128747   4.840   6.608   7.779  1.3434  0.4343 -0.1032
  119MOL   H19228748   4.978   6.773   7.626 -0.4424 -1.6465  0.1532
  119MOL   H19328749   4.897   6.814   7.469  0.6257  1.1879  0.3667
  119MOL   O19428750   5.102   6.588   7.538 -0.0386  0.1759 -0.4244
  119MOL   C19528751   5.182   6.482   7.484  0.5999 -0.4541  0.3566
  119MOL   C19628752   5.324   6.494   7.552  0.1959  0.4228 -0.9642
  119MOL   C19728753   5.113   6.356   7.532  0.1003 -0.4911  0.6557
  119MOL   C19828754   5.180   6.215   7.541 -0.0713  0.4940  0.5312
  119MOL   O19928755   5.270   6.171   7.468 -0.1173  0.0738 -0.0760
  119MOL   H20028756   5.196   6.475   7.376  1.6985  2.2411  0.3023
  119MOL   H20128757   5.373   6.583   7.511  0.6623  0.3016 -0.6755
  119MOL   H20228758   5.390   6.414   7.518 -0.4672 -0.8185  0.6233
  119MOL   H20328759   5.315   6.508   7.659  0.0989  1.5429 -1.1091
  119MOL   H20428760   5.029   6.342   7.464  1.5733  1.2030 -1.5624
  119MOL   H20528761   5.083   6.370   7.636  1.8635  2.1845  0.8494
  119MOL   O20628762   5.109   6.135   7.634  0.3574 -0.1519 -0.0705
  119MOL   C20728763   5.146   6.001   7.667  0.0854 -0.3010  0.4612
  119MOL   C20828764   5.252   6.002   7.776  0.6602  1.3202 -0.1135
  119MOL   C20928765   5.028   5.907   7.686  0.3723  0.0581 -0.1342
  119MOL   C21028766   4.941   5.925   7.812 -0.0283 -0.1627 -0.1189
  119MOL   O21128767   4.867   5.838   7.854 -0.4022 -0.1483 -0.3641
  119MOL   H21228768   5.188   5.958   7.576 -0.3458 -1.5351  0.8442
  119MOL   H21328769   5.333   6.065   7.740  1.8194  0.6908  1.3390
  119MOL   H21428770   5.288   5.903   7.804  0.2768  0.7889 -1.4273
  119MOL   H21528771   5.216   6.047   7.868  1.0825  1.0961  0.1614
  119MOL   H21628772   5.060   5.803   7.670  2.8038  0.3975  2.2546
  119MOL   H21728773   4.956   5.931   7.607  1.2678  1.9351 -0.3995
  119MOL   O21828774   4.949   6.047   7.866  0.0406 -0.0135  0.2048
  119MOL   C21928775   4.868   6.098   7.968 -0.5450 -0.6567 -0.2486
  119MOL   C22028776   4.908   6.050   0.123 -0.8358 -1.3391 -0.1016
  119MOL   C22128777   4.860   6.247   7.954 -0.2052  0.2065  0.3504
  119MOL   C22228778   4.720   6.297   7.975  0.8367 -0.1105 -0.0648
  119MOL   O22328779   4.657   6.353   7.885 -0.2786  0.0762  0.2038
  119MOL   H22428780   4.772   6.049   7.953  0.2688 -2.6701  0.9708
  119MOL   H22528781   4.862   6.099   0.209 -1.0264  2.7173 -2.4025
  119MOL   H22628782   5.017   6.057   0.133 -0.8672 -0.4065 -0.4066
  119MOL   H22728783   4.901   5.941   0.125 -0.1872 -1.3967 -0.7811
  119MOL   H22828784   4.883   6.280   7.852 -1.0627 -1.7929 -0.5166
  119MOL   H22928785   4.932   6.293   0.041 -1.8914 -1.0190  3.0717
  119MOL   O23028786   4.673   6.270   0.114  0.3675 -0.5621  0.0531
  119MOL   C23128787   4.536   6.278   0.137  0.5613  0.9506 -0.3834
  119MOL   C23228788   4.471   6.141   0.130  0.3325  0.5979 -0.4599
  119MOL   C23328789   4.518   6.325   0.287 -0.5875  0.1378  0.6750
  119MOL   C23428790   4.492   6.470   0.306 -0.1195  0.1250  0.6628
  119MOL   O23528791   4.584   6.553   0.291 -0.3521  0.1841 -0.2678
  119MOL   H23628792   4.475   6.348   0.080 -2.5609 -0.7234  0.7185
  119MOL   H23728793   4.365   6.142   0.152  0.1951  0.1216 -1.0929
  119MOL   H23828794   4.523   6.069   0.194 -1.6726 -0.0167  0.5045
  119MOL   H23928795   4.481   6.114   0.025 -1.2761  0.5327 -0.6075
  119MOL   H24028796   4.589   6.264   0.343 -0.3488 -0.7456 -0.5665
  119MOL   H24128797   4.426   6.270   0.307 -0.7685 -0.1936 -0.9730
  119MOL   H24228798   4.393   6.508   0.331  0.6550  2.4199  0.3626
  120MOL     O128799   1.873   0.286   3.704 -0.3713  0.5330  0.3196
  120MOL     C228800   1.949   0.388   3.767 -0.2245  0.9602  0.3535
  120MOL     C328801   2.092   0.329   3.784 -0.3705  0.9521 -0.0620
  120MOL     C428802   1.948   0.508   3.668 -0.1037  0.0279 -0.0818
  120MOL     C528803   1.976   0.643   3.733 -0.7623 -0.2696  0.3255
  120MOL     O628804   2.032   0.650   3.843 -0.5591  0.1834 -0.0703
  120MOL     H728805   1.922   0.414   3.869  0.1388 -1.9061  1.2316
  120MOL     H828806   2.101   0.246   3.853 -2.4566 -0.6038 -1.5958
  120MOL     H928807   2.160   0.405   3.822  0.1613  0.2435  0.4091
  120MOL    H1028808   2.133   0.306   3.686  1.7621  2.8326  0.3501
  120MOL    H1128809   1.847   0.527   3.633  0.0730 -0.5332 -0.8919
  120MOL    H1228810   2.014   0.481   3.586 -0.4975  0.3911 -0.5249
  120MOL    H1328811   1.931   0.239   3.647 -1.5680 -1.2239  0.5111
  120MOL    O1428812   1.940   0.751   3.657  0.4441 -0.0523  0.0495
  120MOL    C1528813   1.980   0.876   3.696 -0.9838  0.0379  0.0239
  120MOL    C1628814   2.046   0.956   3.585 -0.4233  0.6497 -0.7624
  120MOL    C1728815   1.865   0.946   3.767 -0.8802 -0.2021 -0.4119
  120MOL    C1828816   1.756   0.995   3.682 -0.8210  0.4029 -1.0580
  120MOL    O1928817   1.727   0.944   3.576  0.0392 -0.2930  0.4005
  120MOL    H2028818   2.066   0.867   3.762 -0.1196  2.1361 -0.7698
  120MOL    H2128819   2.107   1.037   3.624  1.0916 -0.1460 -1.4608
  120MOL    H2228820   1.982   0.985   3.501  0.8011  1.9894 -1.2405
  120MOL    H2328821   2.119   0.901   3.526 -0.1721  1.3646 -1.1124
  120MOL    H2428822   1.912   1.026   3.825  0.7552 -2.1876  1.0654
  120MOL    H2528823   1.826   0.868   3.832  0.8225 -1.4199 -0.8114
  120MOL    O2628824   1.684   1.090   3.743 -0.3926 -0.0102 -0.2762
  120MOL    C2728825   1.573   1.147   3.675  0.2238 -0.2779  0.1154
  120MOL    C2828826   1.483   1.218   3.783  0.2459  0.1870 -0.2617
  120MOL    C2928827   1.628   1.249   3.570  0.4156  0.6952 -1.1833
  120MOL    C3028828   1.533   1.307   3.478  0.1267  0.5696 -0.5890
  120MOL    O3128829   1.501   1.247   3.386  0.1817 -0.1580 -0.1597
  120MOL    H3228830   1.515   1.065   3.633 -2.0381  2.2457 -1.8418
  120MOL    H3328831   1.456   1.131   3.844  0.9873 -0.1004 -0.3370
  120MOL    H3428832   1.388   1.248   3.738  0.2161 -1.1933 -1.1778
  120MOL    H3528833   1.534   1.294   3.841 -1.0701  1.4158 -0.6922
  120MOL    H3628834   1.693   1.188   3.509 -1.5211 -0.2388 -2.3561
  120MOL    H3728835   1.688   1.332   3.607  0.5485  1.1554 -2.4153
  120MOL    O3828836   1.489   1.436   3.510  0.5065  0.4742  0.3431
  120MOL    C3928837   1.403   1.515   3.420  0.3737 -0.5347 -0.3865
  120MOL    C4028838   1.474   1.547   3.287  0.2165 -0.0011  0.1081
  120MOL    C4128839   1.262   1.457   3.397 -0.6597 -0.0840  0.6014
  120MOL    C4228840   1.166   1.468   3.511  0.0683  0.1462 -0.0493
  120MOL    O4328841   1.079   1.557   3.517  0.0965 -0.0955 -0.0133
  120MOL    H4428842   1.390   1.610   3.472  1.3492 -1.2268  1.1628
  120MOL    H4528843   1.459   1.652   3.263  3.6831  0.5569  0.1388
  120MOL    H4628844   1.442   1.481   3.206 -1.1287 -0.0221  0.6513
  120MOL    H4728845   1.578   1.533   3.316  0.2437  1.8477  0.9896
  120MOL    H4828846   1.270   1.354   3.361 -0.7863  0.9101 -2.3588
  120MOL    H4928847   1.216   1.523   3.323  0.2764 -0.9608 -0.7920
  120MOL    O5028848   1.179   1.372   3.602  0.5773 -0.0092  0.3711
  120MOL    C5128849   1.108   1.370   3.728 -0.0647  0.0774 -0.2885
  120MOL    C5228850   1.102   1.227   3.784  0.9518 -0.5030 -0.3873
  120MOL    C5328851   1.186   1.473   3.821  0.0018 -0.4257  0.6304
  120MOL    C5428852   1.122   1.526   3.949 -0.3255  1.1516  0.2572
  120MOL    O5528853   1.017   1.475   4.000 -0.7598 -0.6757  0.2050
  120MOL    H5628854   1.013   1.421   3.715  0.7406  1.6038 -0.3084
  120MOL    H5728855   1.191   1.175   3.821  1.2273 -0.9104 -1.6121
  120MOL    H5828856   1.051   1.168   3.708 -1.6137 -1.4147  1.9367
  120MOL    H5928857   1.041   1.225   3.875  0.5873  0.6314 -0.5990
  120MOL    H6028858   1.207   1.565   3.767 -2.0398 -0.1616  0.2539
  120MOL    H6128859   1.280   1.418   3.829  0.0574 -0.8618 -2.5460
  120MOL    O6228860   1.208   1.616   4.007  0.3708 -0.2755 -0.1528
  120MOL    C6328861   1.171   1.693   4.119 -0.3066 -0.0958 -0.2416
  120MOL    C6428862   1.301   1.745   4.177 -0.5029  0.0458 -0.0344
  120MOL    C6528863   1.062   1.801   4.098  0.5189  0.2197 -0.4032
  120MOL    C6628864   1.102   1.918   3.999  0.2907  0.3703  0.2526
  120MOL    O6728865   1.046   2.028   4.001 -0.0581 -0.2580  0.3437
  120MOL    H6828866   1.142   1.611   4.184 -0.5419  0.4170  0.3059
  120MOL    H6928867   1.347   1.821   4.114  1.6235  0.7424  2.2673
  120MOL    H7028868   1.375   1.665   4.186 -0.5124  0.0132 -0.2354
  120MOL    H7128869   1.301   1.792   4.275  2.0504  2.2148 -1.0266
  120MOL    H7228870   1.022   1.840   4.192  0.9541  0.1837 -0.2060
  120MOL    H7328871   0.969   1.752   4.068  0.2937  1.1242 -1.2334
  120MOL    O7428872   1.210   1.885   3.924 -0.7284  0.0631  0.4633
  120MOL    C7528873   1.260   1.978   3.825 -0.1661 -0.7783  0.2134
  120MOL    C7628874   1.386   2.044   3.885  0.1266  0.0282  0.1867
  120MOL    C7728875   1.295   1.888   3.700  0.1722  0.0429 -0.3278
  120MOL    C7828876   1.352   1.956   3.576 -0.3574 -0.9063 -0.5102
  120MOL    O7928877   1.416   1.901   3.488  0.6266  0.2921  0.2498
  120MOL    H8028878   1.186   2.056   3.808  0.4212  0.0154  1.1963
  120MOL    H8128879   1.449   2.097   3.813  1.2062 -0.1926  0.9466
  120MOL    H8228880   1.455   1.963   3.911  1.0837  0.9764  0.6313
  120MOL    H8328881   1.369   2.093   3.980 -1.6062 -1.8449  0.8619
  120MOL    H8428882   1.211   1.825   3.671 -0.0501  0.8662 -1.5039
  120MOL    H8528883   1.375   1.818   3.726  1.7708  1.6082 -0.9093
  120MOL    O8628884   1.332   2.091   3.576  0.3893  0.5188 -0.0397
  120MOL    C8728885   1.373   2.180   3.476 -0.3180 -0.3120  0.1928
  120MOL    C8828886   1.258   2.197   3.372 -0.3942 -0.2551  0.0369
  120MOL    C8928887   1.398   2.315   3.553  0.0085 -0.1292  0.9175
  120MOL    C9028888   1.457   2.431   3.471  0.0437 -0.0727  0.6501
  120MOL    O9128889   1.433   2.550   3.495 -0.1231  0.3060 -0.4284
  120MOL    H9228890   1.463   2.144   3.426 -1.5880 -1.3739 -1.4093
  120MOL    H9328891   1.223   2.103   3.328 -0.1171  0.4778 -1.7975
  120MOL    H9428892   1.286   2.265   3.291  0.7077  0.1554  0.7618
  120MOL    H9528893   1.168   2.243   3.413  0.4499  1.7623 -0.3172
  120MOL    H9628894   1.460   2.297   3.642 -0.0927  1.1032  1.2422
  120MOL    H9728895   1.305   2.361   3.586 -1.1217 -0.9965 -0.9597
  120MOL    O9828896   1.526   2.399   3.365 -0.5928 -0.0664 -0.1425
  120MOL    C9928897   1.557   2.497   3.264 -0.4641 -0.1043  0.0385
  120MOL   C10028898   1.698   2.549   3.286  0.5195  0.3374 -0.1067
  120MOL   C10128899   1.541   2.437   3.121  0.1983  0.3973  0.8343
  120MOL   C10228900   1.543   2.544   3.010  0.7456  0.0247 -0.0766
  120MOL   O10328901   1.436   2.594   2.971  0.3223 -0.1609 -0.0444
  120MOL   H10428902   1.488   2.580   3.277 -0.5343 -0.2881  0.9335
  120MOL   H10528903   1.734   2.617   3.209  1.1378  0.9452  0.7120
  120MOL   H10628904   1.767   2.465   3.283  1.7528  1.3009  0.7639
  120MOL   H10728905   1.698   2.590   3.387  3.3359 -0.4641  0.2344
  120MOL   H10828906   1.441   2.399   3.141 -0.5910  2.7933  1.6792
  120MOL   H10928907   1.608   2.358   3.088 -0.8048 -1.6569  3.4814
  120MOL   O11028908   1.669   2.563   2.963 -0.0818 -0.2191 -0.0938
  120MOL   C11128909   1.701   2.643   2.848 -0.1052 -0.4740  0.3705
  120MOL   C11228910   1.841   2.707   2.884 -0.0721  0.2443  0.1574
  120MOL   C11328911   1.699   2.568   2.706 -0.0305  0.0419 -0.8040
  120MOL   C11428912   1.818   2.483   2.680 -0.4311  0.0154  0.3389
  120MOL   O11528913   1.898   2.514   2.595 -0.8718 -0.6142 -0.3776
  120MOL   H11628914   1.628   2.722   2.832  1.7627  1.0580 -0.7762
  120MOL   H11728915   1.925   2.639   2.872  0.1334  0.7597 -1.4936
  120MOL   H11828916   1.844   2.745   2.986 -1.8907 -0.2909  0.4154
  120MOL   H11928917   1.853   2.799   2.826 -0.6278  0.0597 -0.2518
  120MOL   H12028918   1.694   2.647   2.630  3.9694  1.2238  0.0575
  120MOL   H12128919   1.611   2.504   2.695 -0.3538  0.1959  0.8662
  120MOL   O12228920   1.829   2.381   2.769 -0.6921 -0.2545 -0.0461
  120MOL   C12328921   1.938   2.293   2.755 -0.2664 -0.0686  0.4755
  120MOL   C12428922   2.048   2.315   2.858  0.3876  0.2862 -0.7876
  120MOL   C12528923   1.883   2.149   2.755  0.3138 -0.9467  0.6934
  120MOL   C12628924   1.827   2.108   2.618  1.6061  0.1381  0.5948
  120MOL   O12728925   1.844   2.165   2.510 -0.1978 -0.6344 -0.9106
  120MOL   H12828926   1.976   2.309   2.654 -3.5270 -1.7524 -1.1040
  120MOL   H12928927   2.012   2.308   2.961  0.4911  1.4271 -0.6684
  120MOL   H13028928   2.070   2.422   2.857  2.2424 -0.0764 -0.0151
  120MOL   H13128929   2.135   2.254   2.836  0.3535  0.2401 -0.7931
  120MOL   H13228930   1.816   2.140   2.840 -0.0639  0.7717  0.6047
  120MOL   H13328931   1.970   2.084   2.769 -0.1871 -1.4954  1.2689
  120MOL   O13428932   1.749   1.999   2.640  0.5161  0.6571  0.0269
  120MOL   C13528933   1.731   1.907   2.530  0.3468 -0.2955  0.2053
  120MOL   C13628934   1.724   1.767   2.593  0.3406  0.4436  0.1631
  120MOL   C13728935   1.620   1.937   2.429 -0.0440 -0.3377 -0.5835
  120MOL   C13828936   1.474   1.944   2.472  0.1605 -0.3322  0.4382
  120MOL   O13928937   1.438   1.968   2.588 -0.2810 -0.3882 -0.2552
  120MOL   H14028938   1.816   1.913   2.461 -0.4404  1.9564 -0.6317
  120MOL   H14128939   1.724   1.683   2.524 -0.3520 -0.2572  1.0046
  120MOL   H14228940   1.629   1.758   2.645 -1.1717  0.6560 -2.4768
  120MOL   H14328941   1.809   1.771   2.662  0.7584  1.5599 -0.4144
  120MOL   H14428942   1.627   1.869   2.344 -1.0821 -1.5595  0.2902
  120MOL   H14528943   1.637   2.040   2.399 -0.5747 -0.5599 -1.6683
  120MOL   O14628944   1.388   1.918   2.375 -0.4906  0.3933  0.1510
  120MOL   C14728945   1.244   1.899   2.390  0.4080 -0.2272 -0.7257
  120MOL   C14828946   1.184   2.039   2.418  0.0414  0.2683 -0.7876
  120MOL   C14928947   1.190   1.831   2.268 -0.2360  0.2796  0.2239
  120MOL   C15028948   1.197   1.680   2.256  0.1275  0.0947 -0.0841
  120MOL   O15128949   1.244   1.625   2.155 -0.4339  0.0772  0.2938
  120MOL   H15228950   1.222   1.836   2.476 -1.3553  2.6071  0.9943
  120MOL   H15328951   1.198   2.109   2.335  0.0595  2.8998  1.3602
  120MOL   H15428952   1.230   2.094   2.500 -0.3464 -0.5314 -0.0265
  120MOL   H15528953   1.078   2.030   2.441 -0.6658  1.5629 -3.3626
  120MOL   H15628954   1.227   1.870   2.173 -0.0790 -0.5665 -0.0713
  120MOL   H15728955   1.085   1.861   2.261 -0.7075 -1.6970 -2.0126
  120MOL   O15828956   1.148   1.618   2.371  0.0602 -0.4880 -0.3865
  120MOL   C15928957   1.138   1.472   2.375 -0.1960 -0.4728 -0.2707
  120MOL   C16028958   1.209   1.434   2.504  0.3329 -0.0156 -0.5063
  120MOL   C16128959   0.984   1.438   2.378  0.3669 -0.9355 -0.5233
  120MOL   C16228960   0.928   1.448   2.241  0.1574  0.4721 -0.8666
  120MOL   O16328961   0.925   1.551   2.174 -0.1404  0.0217  0.2288
  120MOL   H16428962   1.189   1.423   2.292 -2.8808 -0.4050 -2.0344
  120MOL   H16528963   1.164   1.486   2.588  1.3068 -0.3657  0.2389
  120MOL   H16628964   1.310   1.473   2.516  0.4221 -0.5480  0.5577
  120MOL   H16728965   1.218   1.327   2.524  1.9928  0.2918  0.4746
  120MOL   H16828966   0.939   1.515   2.440  0.6088 -1.0060 -0.2560
  120MOL   H16928967   0.967   1.335   2.411  1.3061 -1.9990 -3.2320
  120MOL   O17028968   0.862   1.329   2.211  0.0261 -0.3796  0.3342
  120MOL   C17128969   0.795   1.311   2.084  0.2318 -0.0962 -0.4102
  120MOL   C17228970   0.834   1.182   2.012 -0.6736 -0.2281  0.3241
  120MOL   C17328971   0.649   1.307   2.121 -0.6664  0.7827 -0.2802
  120MOL   C17428972   0.591   1.448   2.132  0.7392  0.6119 -0.6841
  120MOL   O17528973   0.551   1.487   2.242  0.7836 -0.0063  0.1537
  120MOL   H17628974   0.827   1.399   2.028  0.1543  0.5717  0.5806
  120MOL   H17728975   0.942   1.170   2.015 -0.5383  0.7346 -0.4811
  120MOL   H17828976   0.804   1.171   1.907 -0.7746 -1.1536  0.4402
  120MOL   H17928977   0.801   1.089   2.058  0.4044 -1.5739 -1.5150
  120MOL   H18028978   0.646   1.245   2.211  0.8770 -1.5664 -1.7875
  120MOL   H18128979   0.588   1.261   2.043 -0.1578 -0.3552 -0.0080
  120MOL   O18228980   0.579   1.512   2.015  0.0746  0.1288  0.4421
  120MOL   C18328981   0.520   1.641   2.015 -0.5315 -0.5852  0.8159
  120MOL   C18428982   0.573   1.714   1.889  0.2809  0.1312  0.2815
  120MOL   C18528983   0.367   1.650   2.031  0.4741 -0.6752  0.7109
  120MOL   C18628984   0.329   1.787   2.077 -0.4164 -0.8052 -0.3844
  120MOL   O18728985   0.415   1.858   2.139  0.0810 -0.6960  0.6301
  120MOL   H18828986   0.570   1.685   2.101 -0.8243 -0.5879  0.9910
  120MOL   H18928987   0.571   1.823   1.891  0.5334  0.1801 -1.6032
  120MOL   H19028988   0.497   1.696   1.813 -1.3812  0.7249  1.7660
  120MOL   H19128989   0.675   1.686   1.860  0.3127  0.2359  0.2947
  120MOL   H19228990   0.328   1.575   2.101 -3.1585 -0.8362 -1.3736
  120MOL   H19328991   0.317   1.630   1.936  1.6355  0.3081 -0.1162
  120MOL   O19428992   0.203   1.819   2.063 -0.2037 -0.4632  0.4960
  120MOL   C19528993   0.144   1.930   2.132 -0.1244  0.0612  0.1571
  120MOL   C19628994   0.041   2.004   2.043 -0.2539 -0.3452  0.1433
  120MOL   C19728995   0.070   1.869   2.256 -0.3148  0.7296  0.2409
  120MOL   C19828996   0.021   1.971   2.360 -0.3652  0.3968  0.7299
  120MOL   O19928997   0.036   2.094   2.354 -0.5702  0.2388  0.6485
  120MOL   H20028998   0.224   1.998   2.160 -0.3781  1.3080 -1.9976
  120MOL   H20128999   7.966   2.080   2.099 -1.1485 -1.4657  0.8014
  120MOL   H20229000   7.947   1.936   2.001 -0.0729  0.3605 -1.3622
  120MOL   H20329001   0.091   2.054   1.959  0.0717 -0.9946 -0.0502
  120MOL   H20429002   0.143   1.810   2.311  0.0585  0.7563 -0.2217
  120MOL   H20529003   7.966   1.805   2.228  0.7495 -1.6842  2.4175
  120MOL   O20629004   7.942   1.898   2.463  0.3706  1.4931 -0.1011
  120MOL   C20729005   7.912   1.962   2.591  0.1353 -0.2877  0.0707
  120MOL   C20829006   7.788   2.058   2.571  0.2720 -0.3992  0.1950
  120MOL   C20929007   7.915   1.862   2.701 -0.7149 -0.0904 -0.2334
  120MOL   C21029008   7.931   1.909   2.842 -0.0635 -0.3811 -0.5319
  120MOL   O21129009   7.935   2.031   2.873 -0.0479 -0.9695 -0.4940
  120MOL   H21229010   0.011   2.037   2.605 -0.0499 -0.6110  3.2232
  120MOL   H21329011   7.703   1.997   2.542 -0.0424  0.1642 -0.0872
  120MOL   H21429012   7.814   2.137   2.501 -1.5642  1.1077  1.1760
  120MOL   H21529013   7.755   2.104   2.664  0.2044 -0.5286  0.2346
  120MOL   H21629014   0.017   1.791   2.683  0.8647  0.7137  3.4365
  120MOL   H21729015   7.823   1.805   2.692 -0.8034 -0.1605  1.0619
  120MOL   O21829016   7.929   1.801   2.921 -0.0666 -0.0615  0.0766
  120MOL   C21929017   7.944   1.810   3.059  0.0657  0.0888 -0.2873
  120MOL   C22029018   7.803   1.813   3.125  0.3472 -0.0507  0.2237
  120MOL   C22129019   0.061   1.700   3.120 -0.3901 -0.3235 -0.0693
  120MOL   C22229020   0.209   1.733   3.115 -0.7212 -0.1821  0.4459
  120MOL   O22329021   0.269   1.760   3.215 -0.1613 -0.1806 -0.1079
  120MOL   H22429022   0.009   1.907   3.079 -0.0869  0.1214 -0.1091
  120MOL   H22529023   7.754   1.716   3.124  0.3991 -0.0798  0.7391
  120MOL   H22629024   7.737   1.894   3.092 -1.6870 -1.0308  1.7840
  120MOL   H22729025   7.820   1.844   3.228  1.0767 -2.4463  0.8560
  120MOL   H22829026   0.059   1.616   3.051  1.0784 -1.9635  1.8119
  120MOL   H22929027   0.015   1.661   3.212  0.9186 -1.1137  0.2568
  120MOL   O23029028   0.261   1.740   2.989 -0.3849  0.2418  0.2108
  120MOL   C23129029   0.394   1.762   2.949  0.1966 -0.1437 -0.9126
  120MOL   C23229030   0.475   1.638   2.917  0.3767  0.4327 -0.1710
  120MOL   C23329031   0.397   1.864   2.834 -0.5396 -0.1524 -0.0951
  120MOL   C23429032   0.321   1.833   2.698  0.0722  0.3341  0.6655
  120MOL   O23529033   0.252   1.919   2.649  0.3620 -0.3670  0.1480
  120MOL   H23629034   0.441   1.814   3.033 -0.8728 -1.1738  0.3466
  120MOL   H23729035   0.578   1.661   2.892  0.1978  2.7125  1.1216
  120MOL   H23829036   0.419   1.579   2.843 -0.0053  0.3238  0.2038
  120MOL   H23929037   0.472   1.576   3.007  3.3547  0.1894 -0.2039
  120MOL   H24029038   0.495   1.867   2.787 -0.5828 -1.6961 -0.3218
  120MOL   H24129039   0.377   1.965   2.869  1.2552  0.0020  0.5555
  120MOL   H24229040   0.328   1.739   2.644 -2.6481  0.5273 -0.1225
  121MOL     O129041   1.895   2.428   0.343  0.4458 -0.3307  0.2944
  121MOL     C229042   1.969   2.475   0.459  0.0689  0.5844  0.6801
  121MOL     C329043   1.986   2.359   0.559 -0.0726 -0.1961 -0.6389
  121MOL     C429044   2.091   2.551   0.412 -0.5641  0.0570 -0.3826
  121MOL     C529045   2.159   2.633   0.517  0.5966 -0.0680  0.0528
  121MOL     O629046   2.125   2.748   0.544  0.0657  0.0721  0.3214
  121MOL     H729047   1.917   2.550   0.518 -0.6150  1.6558 -1.2310
  121MOL     H829048   2.048   2.394   0.642  0.2412 -2.4609  0.1128
  121MOL     H929049   2.039   2.270   0.525 -0.0275 -0.3500 -0.1748
  121MOL    H1029050   1.890   2.328   0.601 -0.4035  2.4923  0.7181
  121MOL    H1129051   2.066   2.619   0.330 -0.1965 -1.3857 -1.7123
  121MOL    H1229052   2.164   2.482   0.370  1.3672  1.2612  0.9187
  121MOL    H1329053   1.896   2.489   0.270 -0.1884 -0.9541 -0.2511
  121MOL    O1429054   2.264   2.566   0.569 -0.2050 -0.3426  0.5127
  121MOL    C1529055   2.355   2.617   0.661  0.0473 -0.4938 -0.4867
  121MOL    C1629056   2.318   2.550   0.794 -0.3789 -0.0493 -0.1076
  121MOL    C1729057   2.493   2.564   0.623 -0.5405  0.2500 -0.3651
  121MOL    C1829058   2.575   2.647   0.527 -1.4357  0.8461  0.1727
  121MOL    O1929059   2.529   2.699   0.425  0.5118 -0.0691 -0.1532
  121MOL    H2029060   2.349   2.726   0.669  1.4553 -0.3756 -0.8399
  121MOL    H2129061   2.211   2.537   0.811 -0.4333  0.2328 -0.2400
  121MOL    H2229062   2.363   2.605   0.876 -0.0517 -0.0807 -0.2630
  121MOL    H2329063   2.349   2.445   0.793  0.1254  0.0974  0.4598
  121MOL    H2429064   2.494   2.461   0.586  0.8461 -0.3632  1.2612
  121MOL    H2529065   2.563   2.556   0.706  0.0182  1.5211 -0.7023
  121MOL    O2629066   2.712   2.650   0.564 -0.4149  1.0818 -0.6019
  121MOL    C2729067   2.790   2.745   0.496  0.0778 -0.3416  0.3633
  121MOL    C2829068   2.887   2.793   0.614  0.6828  0.5096  0.0770
  121MOL    C2929069   2.868   2.684   0.377 -0.6017 -0.4318  0.2072
  121MOL    C3029070   2.946   2.787   0.298 -0.5472 -0.5013  0.4015
  121MOL    O3129071   3.058   2.770   0.267 -0.2587 -0.1228 -0.0172
  121MOL    H3229072   2.729   2.830   0.466 -1.1177 -0.1348  3.1950
  121MOL    H3329073   2.830   2.833   0.698 -1.7222 -2.1885 -0.1797
  121MOL    H3429074   2.951   2.868   0.569 -0.6423  1.6265  0.0015
  121MOL    H3529075   2.957   2.717   0.646 -1.0258 -1.0479  0.2191
  121MOL    H3629076   2.794   2.636   0.313 -0.0535  1.0846 -1.6484
  121MOL    H3729077   2.933   2.603   0.409  0.6731  0.6808  0.5120
  121MOL    O3829078   2.865   2.882   0.252  0.9067 -0.2207  0.0404
  121MOL    C3929079   2.905   2.990   0.177 -0.0670  0.8628  0.0118
  121MOL    C4029080   2.788   3.056   0.106 -0.8181 -0.6866 -0.0848
  121MOL    C4129081   2.992   3.091   0.258  0.0345  0.0805 -0.6726
  121MOL    C4229082   3.095   3.172   0.176  0.7485 -0.0953 -0.1406
  121MOL    O4329083   3.067   3.242   0.078  0.0874  0.0107 -0.6151
  121MOL    H4429084   2.962   2.959   0.089 -1.8289 -0.4672 -0.6890
  121MOL    H4529085   2.823   3.117   0.023  0.8751 -2.8488 -1.0029
  121MOL    H4629086   2.719   3.114   0.168  0.5318 -1.5430  2.2710
  121MOL    H4729087   2.728   2.978   0.059  0.8268 -0.4906 -2.5798
  121MOL    H4829088   3.060   3.042   0.328 -0.3459  0.3017 -0.1460
  121MOL    H4929089   2.929   3.158   0.317  0.5438 -0.8056  0.9011
  121MOL    O5029090   3.225   3.166   0.231  0.0485  0.4171 -0.0997
  121MOL    C5129091   3.334   3.235   0.171  0.7426 -0.7666  0.5437
  121MOL    C5229092   3.410   3.305   0.287 -0.1444 -0.0913  0.0957
  121MOL    C5329093   3.430   3.134   0.103 -0.3488  1.2145  0.2820
  121MOL    C5429094   3.570   3.180   0.069  0.0913  0.3962 -1.2844
  121MOL    O5529095   3.674   3.128   0.117  0.2060  0.1278 -0.2035
  121MOL    H5629096   3.295   3.306   0.098  2.9775 -1.1816 -1.1336
  121MOL    H5729097   3.340   3.369   0.342  0.0441  1.2478 -1.2058
  121MOL    H5829098   3.493   3.366   0.252  0.0661 -0.0877  0.5904
  121MOL    H5929099   3.444   3.226   0.355  1.9194 -0.7422 -1.6515
  121MOL    H6029100   3.379   3.099   0.013 -0.6445  3.1877 -0.3378
  121MOL    H6129101   3.433   3.047   0.168  1.7805  0.5295 -0.6800
  121MOL    O6229102   3.558   3.270   7.957 -0.6446 -0.1578  0.0808
  121MOL    C6329103   3.678   3.327   7.888 -0.0918  0.6071  0.2033
  121MOL    C6429104   3.642   3.343   7.737 -0.2652 -0.1448  0.5613
  121MOL    C6529105   3.716   3.464   7.959 -0.1568 -0.3944 -1.0072
  121MOL    C6629106   3.864   3.492   7.935  0.1765 -0.4188 -0.3108
  121MOL    O6729107   3.950   3.492   0.041 -0.5407 -0.1477  0.3959
  121MOL    H6829108   3.763   3.260   7.902  0.0952  1.0559  1.2533
  121MOL    H6929109   3.549   3.396   7.721  0.4593  0.6725 -1.0497
  121MOL    H7029110   3.632   3.241   7.699 -1.0587  0.3020 -0.4407
  121MOL    H7129111   3.720   3.389   7.677 -0.5278 -1.1963 -0.6133
  121MOL    H7229112   3.690   3.456   0.084  2.2811 -1.1040 -0.4141
  121MOL    H7329113   3.663   3.551   7.920  0.7456  0.0981 -1.1622
  121MOL    O7429114   3.878   3.531   7.809 -0.4308 -0.0086  0.0951
  121MOL    C7529115   4.011   3.544   7.755 -0.0016  0.2277  0.0469
  121MOL    C7629116   4.036   3.431   7.652  0.2765 -0.6795  0.6536
  121MOL    C7729117   4.030   3.690   7.705 -1.0703 -0.2012 -0.1558
  121MOL    C7829118   4.177   3.721   7.680 -0.6222  0.4327 -0.6056
  121MOL    O7929119   4.250   3.744   7.776  0.2662  0.3754 -0.1796
  121MOL    H8029120   4.087   3.532   7.832  1.6468 -0.1513 -1.6094
  121MOL    H8129121   4.138   3.424   7.612  0.4121  2.9353  0.2133
  121MOL    H8229122   3.972   3.440   7.564  0.9231 -2.2999 -0.0146
  121MOL    H8329123   4.006   3.338   7.701 -2.4716 -1.9827 -3.2534
  121MOL    H8429124   3.995   3.756   7.784  2.4632 -0.6814  1.9337
  121MOL    H8529125   3.971   3.708   7.615  0.3875 -0.6496 -1.2141
  121MOL    O8629126   4.220   3.716   7.549 -0.6181 -0.5658  0.0535
  121MOL    C8729127   4.354   3.721   7.518 -0.2191  0.0469  0.0338
  121MOL    C8829128   4.390   3.572   7.504 -0.3576  0.4195 -0.1839
  121MOL    C8929129   4.369   3.805   7.385  0.3186  0.2648  0.4097
  121MOL    C9029130   4.371   3.957   7.399 -0.0470 -0.3771 -0.6877
  121MOL    O9129131   4.292   4.028   7.339  0.3448  0.2051  0.5483
  121MOL    H9229132   4.411   3.770   7.597  0.0438  0.0215 -0.1418
  121MOL    H9329133   4.496   3.555   7.486 -0.6061  0.9683 -2.4122
  121MOL    H9429134   4.344   3.526   7.416  0.2079 -1.0510  0.2798
  121MOL    H9529135   4.359   3.523   7.596  4.9259  0.1395  1.6076
  121MOL    H9629136   4.284   3.793   7.318 -0.2179  0.6492  1.0173
  121MOL    H9729137   4.456   3.776   7.325  0.9694  2.4374  0.2645
  121MOL    O9829138   4.474   4.000   7.474  0.3868  0.3644 -0.7653
  121MOL    C9929139   4.500   4.132   7.515 -0.2660 -0.3678 -0.2746
  121MOL   C10029140   4.458   4.145   7.662 -0.1319  0.0118  0.2813
  121MOL   C10129141   4.646   4.157   7.481 -0.1515 -0.4651  0.2748
  121MOL   C10229142   4.684   4.308   7.479  0.0176 -0.0328 -0.2763
  121MOL   O10329143   4.611   4.402   7.449  0.3980 -0.0308 -0.2526
  121MOL   H10429144   4.445   4.199   7.448 -0.0552 -0.9017 -0.9936
  121MOL   H10529145   4.521   4.081   7.723 -1.0984  0.2840  1.5797
  121MOL   H10629146   4.353   4.120   7.675 -0.4971  0.9650 -0.6873
  121MOL   H10729147   4.477   4.251   7.683  0.4153 -0.2612  1.1612
  121MOL   H10829148   4.671   4.126   7.380 -0.7229  2.5985 -0.8664
  121MOL   H10929149   4.718   4.109   7.548  0.4176  0.0669  0.0472
  121MOL   O11029150   4.811   4.329   7.518 -1.1106 -0.0567  0.3510
  121MOL   C11129151   4.876   4.458   7.511  0.2549 -0.1388 -0.1575
  121MOL   C11229152   4.879   4.528   7.651  0.2680 -0.2683  0.7394
  121MOL   C11329153   5.028   4.433   7.478  0.1310  0.8363 -0.0751
  121MOL   C11429154   5.106   4.561   7.446  0.3096 -0.1528 -0.0792
  121MOL   O11529155   5.057   4.659   7.397  0.4021 -0.5152  0.0327
  121MOL   H11629156   4.839   4.529   7.438 -0.2975 -0.7903 -0.5190
  121MOL   H11729157   4.909   4.632   7.648 -0.3927 -0.0963 -0.2902
  121MOL   H11829158   4.925   4.481   7.738 -1.3701 -0.2828  1.6241
  121MOL   H11929159   4.775   4.530   7.682 -0.1132  1.6779 -0.5735
  121MOL   H12029160   5.042   4.381   7.383  2.8232  2.9079 -0.8932
  121MOL   H12129161   5.087   4.372   7.547 -0.2207  1.1962  0.5530
  121MOL   O12229162   5.239   4.534   7.472  0.5532 -0.2116  0.5446
  121MOL   C12329163   5.332   4.638   7.436 -0.6662  0.3966 -0.3879
  121MOL   C12429164   5.455   4.642   7.531 -0.3711  0.0202  0.0933
  121MOL   C12529165   5.368   4.633   7.288  0.1196 -0.3823  0.5616
  121MOL   C12629166   5.439   4.508   7.244  0.8903 -0.0422  0.8166
  121MOL   O12729167   5.376   4.425   7.178 -1.0609  0.3304  0.3884
  121MOL   H12829168   5.278   4.733   7.436 -0.0399  0.7529 -1.1747
  121MOL   H12929169   5.423   4.689   7.624 -3.9994 -0.3854 -0.8403
  121MOL   H13029170   5.528   4.716   7.500  2.0300 -1.4529  2.0332
  121MOL   H13129171   5.495   4.541   7.546  1.2878 -0.0006 -3.9040
  121MOL   H13229172   5.434   4.715   7.263  0.1970 -0.7533 -0.4539
  121MOL   H13329173   5.280   4.638   7.224  1.2082  3.2362 -0.7638
  121MOL   O13429174   5.572   4.509   7.291  0.2156  0.1592  0.1891
  121MOL   C13529175   5.651   4.385   7.276  0.5439 -0.5808  0.6570
  121MOL   C13629176   5.775   4.420   7.183  0.0342 -0.2246  0.3758
  121MOL   C13729177   5.698   4.336   7.423 -0.3577  0.1952 -0.1456
  121MOL   C13829178   5.599   4.270   7.508  0.1312 -0.4617 -0.8914
  121MOL   O13929179   5.542   4.167   7.472  0.4886 -0.2288 -0.8884
  121MOL   H14029180   5.589   4.310   7.225  0.7269  0.2050 -0.7318
  121MOL   H14129181   5.845   4.337   7.184 -0.5584 -0.7326  1.3009
  121MOL   H14229182   5.832   4.510   7.206 -0.7472  0.6940 -1.1849
  121MOL   H14329183   5.732   4.430   7.083  1.4619 -0.0764 -0.2354
  121MOL   H14429184   5.729   4.427   7.475 -0.7445  0.4345 -0.3352
  121MOL   H14529185   5.776   4.260   7.430 -2.7825 -2.3422  0.2410
  121MOL   O14629186   5.592   4.321   7.633  0.0460  0.2606  0.1354
  121MOL   C14729187   5.521   4.248   7.735 -0.1333  0.4706  0.0502
  121MOL   C14829188   5.617   4.152   7.797 -0.4402  1.0037 -0.0659
  121MOL   C14929189   5.467   4.337   7.844 -0.3807 -0.8136  0.7433
  121MOL   C15029190   5.335   4.415   7.802 -0.2469  0.5025  0.4219
  121MOL   O15129191   5.284   4.394   7.692  0.2277 -0.6978 -0.2631
  121MOL   H15229192   5.429   4.207   7.692 -0.0913  1.7224 -1.2939
  121MOL   H15329193   5.574   4.099   7.882 -0.6788 -0.5680 -1.1492
  121MOL   H15429194   5.700   4.212   7.834 -0.8551  1.7786 -0.3761
  121MOL   H15529195   5.642   4.080   7.719  0.0325  1.1017 -0.0087
  121MOL   H15629196   5.544   4.406   7.875 -1.5672  0.2228  1.4337
  121MOL   H15729197   5.434   4.276   7.929 -2.2521 -1.0101 -0.0780
  121MOL   O15829198   5.301   4.514   7.891  0.1606 -0.1307  0.1821
  121MOL   C15929199   5.201   4.607   7.861  0.7907  0.3314 -0.5683
  121MOL   C16029200   5.079   4.602   7.959 -0.3688  0.2342  0.0026
  121MOL   C16129201   5.263   4.742   7.852  0.3988 -0.2324 -0.6010
  121MOL   C16229202   5.201   4.832   7.739 -0.3337 -0.1943 -0.7393
  121MOL   O16329203   5.085   4.829   7.708 -0.2080  0.2312 -0.0089
  121MOL   H16429204   5.156   4.580   7.765 -0.7204 -1.0034  0.4788
  121MOL   H16529205   5.105   4.622   0.083 -0.4038  0.8275 -0.1003
  121MOL   H16629206   5.017   4.513   7.961 -0.0543  0.0285  0.5997
  121MOL   H16729207   5.010   4.679   7.926  0.4213  1.5267  1.3249
  121MOL   H16829208   5.369   4.731   7.831  1.2163  0.6324  2.7716
  121MOL   H16929209   5.248   4.795   7.946 -1.3702  1.5099 -1.8156
  121MOL   O17029210   5.288   4.914   7.695  0.1952 -0.0102 -0.0368
  121MOL   C17129211   5.256   5.003   7.582  0.0437  0.3098 -0.2517
  121MOL   C17229212   5.230   5.143   7.644 -0.3004 -0.0468 -0.0010
  121MOL   C17329213   5.378   5.009   7.488 -0.3098  0.0360 -0.3205
  121MOL   C17429214   5.350   5.067   7.351 -1.0547 -0.3929 -1.0322
  121MOL   O17529215   5.395   5.175   7.314 -0.1454 -0.1664 -0.3654
  121MOL   H17629216   5.170   4.963   7.528  0.1549 -1.6156  0.9551
  121MOL   H17729217   5.180   5.210   7.574 -1.4878  0.8977  1.7082
  121MOL   H17829218   5.323   5.194   7.670  0.0797 -0.7577  0.0509
  121MOL   H17929219   5.164   5.136   7.731 -0.2986  1.0118  0.0933
  121MOL   H18029220   5.421   4.909   7.481  1.2947  0.4813  2.4668
  121MOL   H18129221   5.462   5.060   7.536 -0.0211  0.4455 -1.2475
  121MOL   O18229222   5.283   4.989   7.267 -0.3951 -0.0338 -0.2359
  121MOL   C18329223   5.247   5.029   7.131 -0.5724 -0.2041 -0.1797
  121MOL   C18429224   5.364   4.990   7.044  0.2681 -0.0060 -0.2486
  121MOL   C18529225   5.114   4.947   7.105  0.2034  0.2162 -0.2190
  121MOL   C18629226   4.988   4.998   7.173  0.3449 -0.5677 -0.2252
  121MOL   O18729227   4.965   5.117   7.191  0.6784  0.5794 -0.5063
  121MOL   H18829228   5.232   5.137   7.127 -1.0397 -0.3053 -1.6336
  121MOL   H18929229   5.458   5.023   7.087 -0.3826 -0.3082  1.4511
  121MOL   H19029230   5.364   5.040   6.947  0.6114 -1.5687 -1.0869
  121MOL   H19129231   5.373   4.882   7.029  1.0708  0.2974 -2.1880
  121MOL   H19229232   5.129   4.843   7.133 -0.3949 -0.6818 -3.0240
  121MOL   H19329233   5.099   4.960   6.997 -0.8679 -0.2032 -0.1307
  121MOL   O19429234   4.904   4.887   7.211  0.2886 -0.6797 -0.7931
  121MOL   C19529235   4.780   4.919   7.275  0.2229 -0.5549  0.4927
  121MOL   C19629236   4.672   4.955   7.173  0.5056 -0.8858 -0.2276
  121MOL   C19729237   4.743   4.790   7.353  0.0514  1.1308 -0.1960
  121MOL   C19829238   4.615   4.799   7.436 -0.5601  0.0109  0.8822
  121MOL   O19929239   4.566   4.900   7.467 -0.2844 -0.3683  0.1459
  121MOL   H20029240   4.791   5.000   7.348 -2.4419 -1.5244  2.0133
  121MOL   H20129241   4.569   4.963   7.207  0.2485 -0.8186 -1.0034
  121MOL   H20229242   4.686   4.889   7.087  0.5895 -1.2750  0.0797
  121MOL   H20329243   4.686   5.053   7.128 -0.0121 -1.0883 -0.8525
  121MOL   H20429244   4.812   4.765   7.433 -0.3314  0.0204 -0.2094
  121MOL   H20529245   4.737   4.709   7.280 -0.2778  1.2878 -0.3444
  121MOL   O20629246   4.564   4.680   7.457 -0.2690 -0.1019  0.9841
  121MOL   C20729247   4.451   4.671   7.544  0.0590 -0.0210 -0.5795
  121MOL   C20829248   4.328   4.615   7.478 -0.0470  0.3538  0.7058
  121MOL   C20929249   4.486   4.597   7.684  0.0851  0.6400  0.6170
  121MOL   C21029250   4.371   4.594   7.788  0.2622  0.7955 -0.4664
  121MOL   O21129251   4.366   4.665   7.891 -0.8958  0.1391  0.0265
  121MOL   H21229252   4.411   4.771   7.565  0.8349 -0.1190  1.5274
  121MOL   H21329253   4.317   4.649   7.375 -0.2486  1.4741  1.0944
  121MOL   H21429254   4.239   4.649   7.531 -2.3889 -1.4095 -1.9587
  121MOL   H21529255   4.330   4.506   7.470 -2.2342  0.3587 -0.5442
  121MOL   H21629256   4.571   4.649   7.729  0.1917 -0.1950  1.3968
  121MOL   H21729257   4.527   4.499   7.660 -1.7962 -0.2349  0.9235
  121MOL   O21829258   4.275   4.511   7.744 -0.0106 -0.1965  0.3104
  121MOL   C21929259   4.177   4.465   7.835 -0.5425  0.2391  0.3640
  121MOL   C22029260   4.074   4.573   7.874 -0.4969 -0.3793 -0.2849
  121MOL   C22129261   4.122   4.330   7.795  0.7184 -0.8497 -0.1897
  121MOL   C22229262   4.041   4.341   7.660  0.5352 -0.2204 -0.5712
  121MOL   O22329263   4.046   4.443   7.590 -0.5453  0.6004  0.2610
  121MOL   H22429264   4.234   4.432   7.922  1.6994  0.1349 -1.0830
  121MOL   H22529265   4.113   4.645   7.947  0.9125 -2.0573  0.6527
  121MOL   H22629266   3.998   4.522   7.932 -0.3188 -0.5339 -0.1873
  121MOL   H22729267   4.023   4.631   7.797 -0.6626  1.8975  1.4804
  121MOL   H22829268   4.052   4.291   7.870  0.6673 -2.3687 -0.9937
  121MOL   H22929269   4.211   4.267   7.786  1.1668 -0.4868  1.5239
  121MOL   O23029270   3.957   4.234   7.642 -0.4214 -0.0699 -0.2658
  121MOL   C23129271   3.878   4.227   7.529  0.2076  0.0221  0.1274
  121MOL   C23229272   3.945   4.129   7.438 -0.3497  0.0981 -0.2323
  121MOL   C23329273   3.736   4.187   7.574 -0.2077  0.0327  0.5524
  121MOL   C23429274   3.619   4.281   7.544 -0.0831 -0.6892 -0.2986
  121MOL   O23529275   3.642   4.401   7.534 -0.0238  0.3621 -0.6440
  121MOL   H23629276   3.865   4.317   7.469  0.2819 -0.6902 -0.9712
  121MOL   H23729277   4.018   4.190   7.385 -0.2550  0.5072  0.3598
  121MOL   H23829278   3.874   4.091   7.365  0.2719 -1.9806  0.2262
  121MOL   H23929279   3.999   4.044   7.479  3.4171  2.9648  1.0689
  121MOL   H24029280   3.726   4.160   7.679 -3.2611  1.0324  0.5930
  121MOL   H24129281   3.712   4.087   7.537 -0.2562  0.4797 -0.6535
  121MOL   H24229282   3.517   4.243   7.540 -0.5996  0.3956  1.7384
  122MOL     O129283   4.793   7.817   3.329  0.3454 -0.8639 -0.6672
  122MOL     C229284   4.767   7.917   3.227 -0.5829 -0.7359  0.0721
  122MOL     C329285   4.627   7.974   3.249  0.4214  0.5442  0.4946
  122MOL     C429286   4.885   0.045   3.225 -0.4277 -0.5843  0.0312
  122MOL     C529287   4.861   0.160   3.126 -0.7788 -0.1992  1.0088
  122MOL     O629288   4.852   0.281   3.163 -0.0540 -0.0900 -0.9214
  122MOL     H729289   4.765   7.854   3.138  3.1478  1.2062 -1.5237
  122MOL     H829290   4.601   0.068   3.173 -1.9296 -0.7054  0.0494
  122MOL     H929291   4.617   0.044   3.345  0.5787  0.4091  0.5821
  122MOL    H1029292   4.549   7.898   3.252 -0.2406  1.1987  0.0656
  122MOL    H1129293   4.974   7.967   3.197 -0.0445 -1.4130  2.8019
  122MOL    H1229294   4.903   0.094   3.321 -2.1345  1.9537 -0.8907
  122MOL    H1329295   4.887   7.808   3.333  0.4841  0.6234 -0.4075
  122MOL    O1429296   4.841   0.116   3.001  0.6625  0.3699  0.1678
  122MOL    C1529297   4.802   0.193   2.891 -0.4768  0.4880 -0.0592
  122MOL    C1629298   4.922   0.199   2.792  0.4324 -0.5353  0.1672
  122MOL    C1729299   4.671   0.130   2.837 -0.1770 -0.4712  0.4236
  122MOL    C1829300   4.675   7.967   2.790 -0.2662 -0.4460  0.4937
  122MOL    O1929301   4.732   7.925   2.693 -1.3212  0.3621  0.1530
  122MOL    H2029302   4.783   0.294   2.927  0.2468  1.2043 -1.6133
  122MOL    H2129303   4.949   0.103   2.748 -1.0347  0.6416 -3.4399
  122MOL    H2229304   5.016   0.243   2.827  0.8345  1.4969 -3.3081
  122MOL    H2329305   4.887   0.257   2.707  3.6672  3.8453  1.6469
  122MOL    H2429306   4.627   0.190   2.758 -0.4687 -0.9524  0.2173
  122MOL    H2529307   4.613   0.135   2.929 -1.2781 -0.0295 -0.2942
  122MOL    O2629308   4.604   7.885   2.871  0.8631 -0.2668  0.1896
  122MOL    C2729309   4.587   7.741   2.854  0.0219  0.1976 -0.3949
  122MOL    C2829310   4.700   7.669   2.919  0.8577  0.3168 -0.4799
  122MOL    C2929311   4.451   7.695   2.914 -0.1680 -0.6682  0.6454
  122MOL    C3029312   4.408   7.549   2.883 -0.5301 -0.0702  0.1999
  122MOL    O3129313   4.420   7.464   2.970  0.1557 -0.2466 -0.1856
  122MOL    H3229314   4.583   7.717   2.748  0.0839 -1.9908  0.0604
  122MOL    H3329315   4.791   7.728   2.932  0.6114  0.6858 -0.4189
  122MOL    H3429316   4.716   7.571   2.873 -1.8072  0.0411 -0.8664
  122MOL    H3529317   4.679   7.631   3.020 -0.4298  3.1426  0.3616
  122MOL    H3629318   4.381   7.763   2.864  1.0015  1.2291  1.5174
  122MOL    H3729319   4.442   7.711   3.022 -2.5157 -0.2643  0.4076
  122MOL    O3829320   4.358   7.522   2.756 -0.0481  0.2668 -0.6440
  122MOL    C3929321   4.306   7.398   2.726 -1.1062  0.6078 -0.3238
  122MOL    C4029322   4.166   7.406   2.775 -0.2998  0.3262 -0.7799
  122MOL    C4129323   4.310   7.373   2.574  0.1092 -0.7645 -0.5236
  122MOL    C4229324   4.390   7.252   2.534  0.8107  0.4730  0.2200
  122MOL    O4329325   4.499   7.263   2.471 -0.0299 -0.1749 -0.6347
  122MOL    H4429326   4.360   7.314   2.769 -2.5196 -1.0293 -1.6889
  122MOL    H4529327   4.165   7.390   2.883 -0.9049  0.7826 -0.7164
  122MOL    H4629328   4.110   7.326   2.728  2.2518 -2.1241  0.2284
  122MOL    H4729329   4.116   7.503   2.767  0.9430  1.3093  2.2377
  122MOL    H4829330   4.331   7.458   2.508  2.6174  0.5934  1.9486
  122MOL    H4929331   4.212   7.334   2.545 -1.3952  1.3971  1.5538
  122MOL    O5029332   4.323   7.142   2.561  0.3579  0.0421  0.4111
  122MOL    C5129333   4.374   7.010   2.539 -0.0422 -0.0714 -0.0664
  122MOL    C5229334   4.381   6.943   2.670  0.4502  0.2228  0.2037
  122MOL    C5329335   4.285   6.930   2.440  0.2838 -0.1765 -0.4050
  122MOL    C5429336   4.319   6.954   2.295 -0.4748 -0.0043  0.1065
  122MOL    O5529337   4.439   6.964   2.264 -0.2052 -0.6221 -0.0166
  122MOL    H5629338   4.477   7.014   2.503  0.4095  1.8671  1.3815
  122MOL    H5729339   4.415   6.841   2.654  0.9127  0.2540  0.9773
  122MOL    H5829340   4.284   6.928   2.718  1.8548 -1.2155  2.6603
  122MOL    H5929341   4.453   6.988   2.738  0.1116  1.3294 -0.1618
  122MOL    H6029342   4.182   6.964   2.444  1.0221  1.9036  3.4190
  122MOL    H6129343   4.297   6.823   2.456  1.8071  0.0411  0.0488
  122MOL    O6229344   4.214   6.951   2.218 -0.3691  0.4332  0.2404
  122MOL    C6329345   4.231   6.990   2.085  0.7251 -0.5086 -0.1388
  122MOL    C6429346   4.250   6.880   1.986  0.3762  0.1464 -0.0808
  122MOL    C6529347   4.119   7.103   2.040  0.4584  0.3094  0.1887
  122MOL    C6629348   3.977   7.042   2.031  0.9274  0.6246 -0.9195
  122MOL    O6729349   3.952   6.933   2.081  0.6890 -0.1226 -0.0256
  122MOL    H6829350   4.325   7.045   2.077  0.2351  0.3337 -0.1211
  122MOL    H6929351   4.274   6.906   1.883  0.3662 -1.2831 -0.4578
  122MOL    H7029352   4.166   6.811   1.988 -1.8803  2.8481  1.9099
  122MOL    H7129353   4.337   6.833   2.032 -0.1911 -0.7599  0.0646
  122MOL    H7229354   4.137   7.130   1.936  2.9517  0.1525  0.5300
  122MOL    H7329355   4.120   7.186   2.110 -0.2655 -0.7867  1.5237
  122MOL    O7429356   3.884   7.121   1.971 -0.2688 -0.1743 -0.0540
  122MOL    C7529357   3.753   7.062   1.946  0.9989 -0.5187 -0.0113
  122MOL    C7629358   3.654   7.151   2.026 -0.5251 -0.4663  1.2111
  122MOL    C7729359   3.725   7.050   1.791  0.3187  0.0314  0.4773
  122MOL    C7829360   3.735   7.179   1.716  0.1766 -0.5048  0.3753
  122MOL    O7929361   3.638   7.253   1.687 -0.0748  0.3654 -0.3354
  122MOL    H8029362   3.741   6.963   1.991 -3.1525  0.2848  0.8860
  122MOL    H8129363   3.552   7.112   2.020 -1.5449  2.0923  1.0607
  122MOL    H8229364   3.625   7.247   1.983  1.5598  0.1875  1.2095
  122MOL    H8329365   3.695   7.171   2.124  2.1415 -1.8872  0.4367
  122MOL    H8429366   3.621   7.019   1.779  0.9553 -1.4352 -1.5725
  122MOL    H8529367   3.782   6.965   1.753  1.4790 -0.0768  2.4311
  122MOL    O8629368   3.865   7.209   1.680 -0.2343 -0.0905  0.6056
  122MOL    C8729369   3.914   7.340   1.664  0.5710  0.4113  0.4893
  122MOL    C8829370   4.015   7.367   1.785  1.0681  0.2695  0.2627
  122MOL    C8929371   3.972   7.337   1.522  0.6136  0.3000  0.4945
  122MOL    C9029372   4.039   7.465   1.484  0.0760  0.1209 -0.5768
  122MOL    O9129373   3.975   7.563   1.446 -0.3409 -0.4430  0.2494
  122MOL    H9229374   3.840   7.418   1.648  0.5132 -0.0945 -1.8387
  122MOL    H9329375   4.049   7.470   1.779  0.9306  0.2386 -1.1865
  122MOL    H9429376   4.109   7.312   1.778 -0.7106 -2.8969  0.1840
  122MOL    H9529377   3.960   7.355   1.878  0.6201  3.4973  0.4687
  122MOL    H9629378   3.887   7.314   1.459  0.8771 -1.8746  0.8706
  122MOL    H9729379   4.039   7.254   1.500  1.1944  0.6416  0.9591
  122MOL    O9829380   4.176   7.459   1.492 -0.0117  0.4610  0.6564
  122MOL    C9929381   4.253   7.573   1.443  0.6649 -0.2853  0.2865
  122MOL   C10029382   4.306   7.645   1.573 -0.0411  0.1376 -0.0137
  122MOL   C10129383   4.365   7.507   1.352  0.5055 -0.4598 -0.2909
  122MOL   C10229384   4.449   7.598   1.268 -0.4624  0.6904 -0.2384
  122MOL   O10329385   4.570   7.606   1.293 -0.0256 -0.3100 -0.1490
  122MOL   H10429386   4.183   7.633   1.384  1.8491  1.8562  0.9815
  122MOL   H10529387   4.221   7.691   1.624 -2.9897  0.1306 -4.6270
  122MOL   H10629388   4.379   7.721   1.549  0.8553 -1.2088 -1.6503
  122MOL   H10729389   4.359   7.574   1.636  0.0143  1.1369  1.0753
  122MOL   H10829390   4.325   7.438   1.278  2.1575 -0.9232 -0.7826
  122MOL   H10929391   4.420   7.445   1.423 -0.1363 -0.6702  0.0225
  122MOL   O11029392   4.377   7.638   1.161  0.2072  0.7889  0.1346
  122MOL   C11129393   4.433   7.738   1.075  0.3955  0.2869  0.7873
  122MOL   C11229394   4.516   7.667   0.969  0.4120 -0.3243 -0.6095
  122MOL   C11329395   4.315   7.812   1.014  0.1056  0.8348 -0.0640
  122MOL   C11429396   4.262   7.920   1.110  0.1383 -0.2152  0.4507
  122MOL   O11529397   4.316   0.049   1.124 -0.4911 -0.3674  0.0915
  122MOL   H11629398   4.503   7.798   1.133 -0.0048 -0.1476  1.7427
  122MOL   H11729399   4.595   7.602   1.006  0.9283  0.5761 -0.1334
  122MOL   H11829400   4.565   7.747   0.914 -0.7726  2.0504  1.6844
  122MOL   H11929401   4.471   7.620   0.882  1.4318 -0.3039 -1.1453
  122MOL   H12029402   4.229   7.751   0.989 -0.0084  0.8929  0.1767
  122MOL   H12129403   4.350   7.857   0.921 -1.9777 -0.0794 -1.3286
  122MOL   O12229404   4.144   7.892   1.176 -0.4577  0.4048  0.1313
  122MOL   C12329405   4.084   0.002   1.274 -0.1236  0.2167 -0.1993
  122MOL   C12429406   3.930   0.012   1.251  0.4715 -0.2240 -0.3641
  122MOL   C12529407   4.120   7.928   1.416 -0.6997 -0.3882 -0.3419
  122MOL   C12629408   4.087   0.045   1.529  0.8235 -0.4562  0.3294
  122MOL   O12729409   4.145   0.151   1.521 -0.3662 -0.3016  0.3507
  122MOL   H12829410   4.129   0.099   1.255  3.4845 -0.9395  2.0051
  122MOL   H12929411   3.880   7.895   1.242 -0.5970  0.4028 -1.1970
  122MOL   H13029412   3.913   0.064   1.157  1.8118  0.8136 -0.0519
  122MOL   H13129413   3.891   0.076   1.330 -0.3925 -1.2823  0.0805
  122MOL   H13229414   4.227   7.915   1.433 -1.2029 -1.5738  2.2508
  122MOL   H13329415   4.069   7.833   1.435 -1.3772 -0.0268 -0.3336
  122MOL   O13429416   3.989   0.001   1.608  0.2366  0.2664 -0.3417
  122MOL   C13529417   3.935   0.088   1.712  0.0179 -0.3352 -0.1055
  122MOL   C13629418   3.810   0.165   1.666 -0.1299  0.2816 -0.6372
  122MOL   C13729419   3.925   0.014   1.845  0.8872  0.2035 -0.4893
  122MOL   C13829420   4.050   7.924   1.899  0.0884  0.6710  0.4380
  122MOL   O13929421   4.037   7.827   1.969 -0.4412 -0.4755  0.4242
  122MOL   H14029422   4.005   0.172   1.717 -1.3463  0.8440 -0.4362
  122MOL   H14129423   3.777   0.250   1.725 -1.5271  0.9150 -2.2789
  122MOL   H14229424   3.726   0.094   1.666  2.7760 -3.3378  0.4422
  122MOL   H14329425   3.812   0.202   1.563 -0.9129  2.6927  0.2034
  122MOL   H14429426   3.845   7.921   1.834  2.8755 -2.0427 -0.4324
  122MOL   H14529427   3.885   0.083   1.920  0.2789 -0.3790 -0.2722
  122MOL   O14629428   4.168   0.001   1.854  0.4263  0.1486 -0.5181
  122MOL   C14729429   4.290   7.931   1.905 -0.2312  0.0929 -0.0843
  122MOL   C14829430   4.396   7.964   1.800  0.5518  0.4454 -0.4099
  122MOL   C14929431   4.316   0.021   2.045 -0.4360 -0.2129 -0.6530
  122MOL   C15029432   4.401   7.921   2.143 -0.2563  0.2040 -0.1123
  122MOL   O15129433   4.438   7.803   2.126  0.0245  0.0514  0.2184
  122MOL   H15229434   4.286   7.822   1.915 -1.0367  0.2975  2.0455
  122MOL   H15329435   4.501   7.964   1.829 -0.1245  2.7890  2.2667
  122MOL   H15429436   4.370   0.088   1.779 -2.1927  0.5207  2.9584
  122MOL   H15529437   4.381   7.920   1.701  1.3947 -1.8999  0.4806
  122MOL   H15629438   4.218   0.025   2.093  0.3041 -1.2442  0.9752
  122MOL   H15729439   4.349   0.124   2.035 -0.3199 -0.0512  1.1047
  122MOL   O15829440   4.432   0.016   2.249 -0.3931 -0.4584 -0.1605
  122MOL   C15929441   4.519   7.940   2.348 -0.4762  0.0216  0.2363
  122MOL   C16029442   4.646   0.043   2.346 -0.5502 -0.7046  0.1360
  122MOL   C16129443   4.453   7.947   2.491 -0.1417  0.3937 -0.0320
  122MOL   C16229444   4.366   7.832   2.524  0.3962 -0.9769  0.1648
  122MOL   O16329445   4.416   7.716   2.520  0.2475 -0.1119  0.0479
  122MOL   H16429446   4.554   7.839   2.326 -2.4191 -0.2641 -1.7126
  122MOL   H16529447   4.687   0.043   2.245 -0.6368  2.0990  0.0662
  122MOL   H16629448   4.716   0.017   2.425 -0.0672  0.6877  0.1831
  122MOL   H16729449   4.635   0.148   2.372 -0.0845 -0.8909  1.0908
  122MOL   H16829450   4.403   0.062   2.513 -0.8446  0.0980 -0.3539
  122MOL   H16929451   4.540   7.936   2.557 -0.8152 -0.6225  0.7061
  122MOL   O17029452   4.234   7.860   2.542 -0.2592 -0.2291 -0.4198
  122MOL   C17129453   4.141   7.748   2.550  0.1711  0.2233 -0.2165
  122MOL   C17229454   4.075   7.766   2.689  0.0785  0.0663  0.1412
  122MOL   C17329455   4.046   7.734   2.424 -0.1229 -0.2601 -0.3764
  122MOL   C17429456   4.092   7.608   2.341 -0.4399  0.9029  0.1947
  122MOL   O17529457   4.018   7.510   2.355 -0.7923  0.0052 -0.0683
  122MOL   H17629458   4.205   7.661   2.562  0.1072 -0.6915 -5.1873
  122MOL   H17729459   4.017   7.858   2.690 -0.2616 -0.1155 -1.3679
  122MOL   H17829460   4.146   7.762   2.772 -0.1017 -0.7937  0.2538
  122MOL   H17929461   4.011   7.679   2.701  0.8600 -0.2670  2.1791
  122MOL   H18029462   4.045   7.819   2.357  0.9422  1.0137  1.1855
  122MOL   H18129463   3.942   7.716   2.452  0.3346 -1.7053  0.4931
  122MOL   O18229464   4.209   7.619   2.265  0.1457  0.1460 -0.1686
  122MOL   C18329465   4.243   7.511   2.187 -0.0663  0.1536  0.5335
  122MOL   C18429466   4.189   7.527   2.048 -0.3457  0.9840  0.4463
  122MOL   C18529467   4.391   7.481   2.200 -0.2303 -0.5193  0.6380
  122MOL   C18629468   4.437   7.342   2.146 -0.3616 -0.5411  0.0934
  122MOL   O18729469   4.361   7.252   2.104 -0.4620  0.0143  0.3998
  122MOL   H18829470   4.195   7.421   2.226 -0.8328 -0.9123 -2.6863
  122MOL   H18929471   4.197   7.435   1.990 -0.9748  1.7443 -0.8709
  122MOL   H19029472   4.244   7.609   2.000  0.5413 -0.3409 -0.8642
  122MOL   H19129473   4.084   7.554   2.040  0.2097  2.3444 -4.1775
  122MOL   H19229474   4.427   7.476   2.303  0.1304 -4.3050  0.4153
  122MOL   H19329475   4.455   7.562   2.166 -0.1794 -0.5217  0.7268
  122MOL   O19429476   4.572   7.327   2.150 -0.2252  0.3373  0.0546
  122MOL   C19529477   4.631   7.201   2.128 -0.1406 -0.2669  0.5590
  122MOL   C19629478   4.698   7.201   1.987  0.4439  0.9415  0.2307
  122MOL   C19729479   4.721   7.153   2.240  0.7605  0.2976  0.0575
  122MOL   C19829480   4.770   7.004   2.248  0.0038  0.6112  0.1017
  122MOL   O19929481   4.755   6.929   2.153 -0.0522 -0.2717  0.5452
  122MOL   H20029482   4.555   7.124   2.117 -0.4229  0.2380 -1.1737
  122MOL   H20129483   4.753   7.111   1.963 -3.4926 -1.1879 -1.2198
  122MOL   H20229484   4.771   7.282   1.977  0.5093  0.7013 -1.3801
  122MOL   H20329485   4.619   7.224   1.916 -1.2704 -0.5603  1.6235
  122MOL   H20429486   4.669   7.169   2.335 -0.2570 -0.3758 -0.3749
  122MOL   H20529487   4.804   7.223   2.243  2.5794 -1.8317  0.7559
  122MOL   O20629488   4.826   6.975   2.367  0.7570 -0.2075  0.8947
  122MOL   C20729489   4.887   6.854   2.388 -0.3102  0.3213 -0.4196
  122MOL   C20829490   5.019   6.893   2.462 -0.5806  0.1931 -0.2010
  122MOL   C20929491   4.810   6.757   2.481 -0.6486 -0.6957  0.4306
  122MOL   C21029492   4.665   6.726   2.421  0.7937  0.6269  1.1111
  122MOL   O21129493   4.560   6.772   2.474 -0.3614  0.0208 -0.3158
  122MOL   H21229494   4.915   6.797   2.300 -1.3685  0.5214 -0.8928
  122MOL   H21329495   5.007   6.966   2.542  0.5763  0.9871 -0.7373
  122MOL   H21429496   5.080   6.958   2.400  0.1848  0.6989  1.0690
  122MOL   H21529497   5.080   6.807   2.491  2.5667  2.3647 -0.1983
  122MOL   H21629498   4.801   6.806   2.578  1.4309  0.3475  0.1197
  122MOL   H21729499   4.858   6.661   2.497  1.6458  0.2855 -0.3510
  122MOL   O21829500   4.665   6.664   2.302  0.0769 -0.0691 -0.4782
  122MOL   C21929501   4.547   6.626   2.241  0.0939  0.0047  0.3170
  122MOL   C22029502   4.585   6.649   2.093 -0.4341  0.1037  0.5227
  122MOL   C22129503   4.511   6.483   2.278 -0.7736  0.1246  0.1574
  122MOL   C22229504   4.389   6.424   2.218 -0.0528  0.4318  0.6720
  122MOL   O22329505   4.324   6.486   2.133  0.1016 -0.2679 -0.5612
  122MOL   H22429506   4.462   6.682   2.279 -1.0283 -1.0406 -0.6303
  122MOL   H22529507   4.660   6.584   2.049 -0.3712  1.4075 -1.3314
  122MOL   H22629508   4.622   6.751   2.082 -1.9258  0.9663  3.0036
  122MOL   H22729509   4.502   6.655   2.022  2.0218  1.0179 -2.3471
  122MOL   H22829510   4.493   6.478   2.385  0.5263 -1.3360  0.3248
  122MOL   H22929511   4.592   6.414   2.256 -1.6348 -0.9471  0.3010
  122MOL   O23029512   4.370   6.291   2.238  0.3397  0.0952 -0.4222
  122MOL   C23129513   4.261   6.216   2.176  0.2812  0.1490  0.2673
  122MOL   C23229514   4.313   6.085   2.109 -0.3307 -0.2313 -1.0260
  122MOL   C23329515   4.162   6.193   2.288  0.6286  0.5909 -0.5942
  122MOL   C23429516   4.044   6.109   2.252 -0.3453 -0.1826 -0.2350
  122MOL   O23529517   3.935   6.152   2.224  0.0359 -0.1698 -0.2372
  122MOL   H23629518   4.214   6.275   2.098 -0.4958  0.2196  0.7759
  122MOL   H23729519   4.346   6.013   2.185  2.2647  0.5569 -1.3565
  122MOL   H23829520   4.389   6.108   2.034  0.9272 -1.3059 -0.1207
  122MOL   H23929521   4.230   6.035   2.059 -1.4252 -0.8196  1.3007
  122MOL   H24029522   4.131   6.288   2.332  3.2030  0.5950  1.3046
  122MOL   H24129523   4.213   6.134   2.363 -3.3542 -1.8156  0.3682
  122MOL   H24229524   4.057   6.003   2.227  0.3042 -0.2133  0.2184
  123MOL     O129525   1.789   4.742   0.212 -0.3731  0.7074 -0.0631
  123MOL     C229526   1.921   4.719   0.261  0.7453 -0.6976  1.0640
  123MOL     C329527   1.925   4.733   0.412  0.5429  0.2884  0.0265
  123MOL     C429528   1.965   4.573   0.215  0.2407  0.7446 -0.0636
  123MOL     C529529   2.116   4.561   0.239  0.6647 -1.4174 -0.2985
  123MOL     O629530   2.201   4.608   0.168 -0.2770  0.2586  0.2912
  123MOL     H729531   1.996   4.785   0.218 -0.1531 -0.3879 -0.0549
  123MOL     H829532   2.007   4.677   0.457  1.1987  1.2422  0.0184
  123MOL     H929533   1.831   4.694   0.450 -0.3069  0.3614 -1.9029
  123MOL    H1029534   1.936   4.837   0.441  1.5229  0.4070 -0.7132
  123MOL    H1129535   1.939   4.550   0.112 -1.0053  1.9630 -0.0423
  123MOL    H1229536   1.905   4.506   0.277  0.0470 -0.2917 -1.3589
  123MOL    H1329537   1.771   4.830   0.183 -1.7280  0.4813  0.0561
  123MOL    O1429538   2.139   4.504   0.357 -0.4707 -0.1800 -0.1734
  123MOL    C1529539   2.271   4.490   0.408 -0.7029 -0.3385 -0.0511
  123MOL    C1629540   2.266   4.501   0.563 -0.0245  0.7281  0.3849
  123MOL    C1729541   2.331   4.361   0.349  0.0465  0.3470 -0.5529
  123MOL    C1829542   2.480   4.363   0.376 -0.9154  0.2083 -0.5349
  123MOL    O1929543   2.528   4.327   0.483 -0.3448 -0.4018 -0.0270
  123MOL    H2029544   2.330   4.576   0.376 -0.6949 -0.3423 -0.0456
  123MOL    H2129545   2.196   4.421   0.590 -0.1287  0.3514 -0.9359
  123MOL    H2229546   2.242   4.601   0.598 -0.8128  1.0128 -0.8976
  123MOL    H2329547   2.362   4.479   0.609  0.0273 -0.4960 -0.2717
  123MOL    H2429548   2.319   4.355   0.241 -1.5505 -0.6069 -0.3385
  123MOL    H2529549   2.293   4.271   0.398 -3.2384  2.0796  0.2397
  123MOL    O2629550   2.551   4.396   0.269  0.9284  0.5664 -0.1770
  123MOL    C2729551   2.694   4.397   0.262  0.0959  0.1993  0.0373
  123MOL    C2829552   2.733   4.339   0.131 -0.3298  0.0572 -0.3432
  123MOL    C2929553   2.741   4.540   0.288  0.3938  0.2212  0.3296
  123MOL    C3029554   2.896   4.556   0.283  0.0038 -0.3786 -0.3018
  123MOL    O3129555   2.970   4.466   0.312  0.4856  0.3914 -0.1085
  123MOL    H3229556   2.730   4.324   0.334  0.6365  0.6157  0.1904
  123MOL    H3329557   2.702   4.403   0.048  2.7538  0.3964 -1.2972
  123MOL    H3429558   2.696   4.238   0.115  2.4702 -0.7759 -1.8078
  123MOL    H3529559   2.839   4.327   0.112 -0.9181 -1.3765 -3.0945
  123MOL    H3629560   2.699   4.571   0.383 -0.2113 -1.5451  0.6704
  123MOL    H3729561   2.698   4.621   0.229  0.7331  0.0622 -0.1443
  123MOL    O3829562   2.935   4.678   0.233 -0.0772 -0.6875 -0.8731
  123MOL    C3929563   3.072   4.720   0.215 -0.2773  0.0935  0.8569
  123MOL    C4029564   3.057   4.838   0.121 -0.0527 -0.2537  0.3080
  123MOL    C4129565   3.157   4.732   0.343  0.0870 -0.3588  0.1164
  123MOL    C4229566   3.308   4.750   0.322 -0.2976  0.1109 -0.1109
  123MOL    O4329567   3.390   4.655   0.334  0.4522 -0.3152 -0.1195
  123MOL    H4429568   3.127   4.649   0.152 -2.3444 -0.0694 -0.8188
  123MOL    H4529569   3.021   4.931   0.165  1.3859 -0.6190  2.3523
  123MOL    H4629570   2.993   4.822   0.034  2.3360  1.5411 -1.8623
  123MOL    H4729571   3.155   4.861   0.077  0.3324 -1.3588  0.5859
  123MOL    H4829572   3.154   4.641   0.402 -0.4224 -0.9509 -0.8093
  123MOL    H4929573   3.123   4.810   0.411 -1.0701 -1.6223  0.9979
  123MOL    O5029574   3.339   4.874   0.272  0.0707  0.1016 -0.5952
  123MOL    C5129575   3.472   4.897   0.234  0.6376  0.4071 -0.6788
  123MOL    C5229576   3.451   5.013   0.130 -0.0839  0.6280 -0.1437
  123MOL    C5329577   3.562   4.941   0.350  0.1537  1.0705 -0.0997
  123MOL    C5429578   3.717   4.955   0.334  0.5189 -0.3767 -0.4102
  123MOL    O5529579   3.785   5.049   0.382  0.9685  0.4525  0.0635
  123MOL    H5629580   3.514   4.810   0.184 -1.0035 -0.0661 -1.2660
  123MOL    H5729581   3.372   4.985   0.060 -1.2942 -1.0474  1.8347
  123MOL    H5829582   3.539   5.027   0.066  0.2141  1.5039  0.4402
  123MOL    H5929583   3.418   5.105   0.178 -0.1822  1.1464 -1.1843
  123MOL    H6029584   3.543   4.876   0.436  2.2834  1.0214  0.3492
  123MOL    H6129585   3.528   5.037   0.391  2.3383  1.5230  0.7069
  123MOL    O6229586   3.767   4.860   0.260 -0.4855  0.2096  0.3464
  123MOL    C6329587   3.911   4.847   0.236 -0.0628 -0.3076  0.1983
  123MOL    C6429588   3.947   4.694   0.239 -0.5485  0.1912  0.1061
  123MOL    C6529589   3.951   4.917   0.102 -0.2266 -0.4465 -0.2851
  123MOL    C6629590   4.097   4.959   0.080  0.6705 -0.0550 -0.4618
  123MOL    O6729591   4.179   4.930   0.169 -0.7412 -0.8480 -0.1527
  123MOL    H6829592   3.971   4.890   0.315 -1.6569  0.4220  1.0377
  123MOL    H6929593   3.922   4.652   0.337 -0.9055  2.2488  0.9304
  123MOL    H7029594   4.055   4.693   0.224 -0.6663  0.5987 -0.8244
  123MOL    H7129595   3.887   4.643   0.163 -0.1736  0.2521 -0.2323
  123MOL    H7229596   3.889   5.006   0.101  0.1998 -0.1585 -2.5601
  123MOL    H7329597   3.933   4.851   0.017  1.9712 -2.2013  0.5500
  123MOL    O7429598   4.121   5.028   7.948  0.0828 -0.1379  0.0543
  123MOL    C7529599   4.254   5.053   7.907 -0.1576  0.2897  0.3773
  123MOL    C7629600   4.261   4.971   7.774 -0.0005 -0.0361 -0.1992
  123MOL    C7729601   4.266   5.202   7.888 -0.2381  0.1905 -0.1949
  123MOL    C7829602   4.297   5.274   0.042 -0.2281 -0.0016 -0.1349
  123MOL    O7929603   4.230   5.371   0.075  0.0720  0.7206  0.5053
  123MOL    H8029604   4.328   5.011   7.976 -0.3656 -0.6227  0.0532
  123MOL    H8129605   4.365   4.950   7.749  0.8459  2.1592  1.4373
  123MOL    H8229606   4.221   5.027   7.689  0.7896 -0.0693 -0.5950
  123MOL    H8329607   4.204   4.878   7.783 -0.4866  0.0063 -2.4363
  123MOL    H8429608   4.170   5.239   7.852 -0.1671  1.5850  1.0207
  123MOL    H8529609   4.339   5.231   7.813 -0.6119 -1.4256 -1.2171
  123MOL    O8629610   4.407   5.216   0.106 -0.2987 -0.2680 -0.6581
  123MOL    C8729611   4.434   5.258   0.241 -1.1947  0.2066 -0.4640
  123MOL    C8829612   4.365   5.148   0.330  0.3656 -0.0877  0.5776
  123MOL    C8929613   4.588   5.277   0.263  0.0583 -0.0484 -0.0374
  123MOL    C9029614   4.663   5.381   0.176 -0.0658 -0.5523  0.3214
  123MOL    O9129615   4.767   5.358   0.116  0.2209 -0.3728 -0.4177
  123MOL    H9229616   4.379   5.348   0.268 -2.1027 -1.3553  3.2342
  123MOL    H9329617   4.256   5.157   0.327  0.3783  0.0151  0.4051
  123MOL    H9429618   4.390   5.175   0.433 -3.2348  2.1611  0.9389
  123MOL    H9529619   4.402   5.051   0.296 -2.2544 -1.3152  1.0617
  123MOL    H9629620   4.631   5.180   0.236 -0.2639 -0.1354 -0.2452
  123MOL    H9729621   4.603   5.318   0.362  1.5187 -0.4219 -0.0847
  123MOL    O9829622   4.604   5.504   0.171 -0.4608  0.1246 -0.4341
  123MOL    C9929623   4.672   5.620   0.132 -0.4165  0.6227 -0.1711
  123MOL   C10029624   4.590   5.679   0.012  0.2090  0.2690 -0.3911
  123MOL   C10129625   4.703   5.706   0.250  0.0082 -0.4869  0.5445
  123MOL   C10229626   4.581   5.760   0.320  0.4039  0.2305 -0.0268
  123MOL   O10329627   4.588   5.858   0.394  0.3651  0.1178 -0.3591
  123MOL   H10429628   4.763   5.594   0.078 -0.1496  0.8149  0.1848
  123MOL   H10529629   4.522   5.600   7.961  0.8525 -0.2081 -0.6031
  123MOL   H10629630   4.649   5.708   7.904 -1.1203  0.1713 -1.3337
  123MOL   H10729631   4.522   5.758   0.045 -2.5005 -1.8647 -0.7227
  123MOL   H10829632   4.767   5.789   0.218  0.8332 -1.0543  0.7144
  123MOL   H10929633   4.757   5.646   0.323 -1.0602 -3.3645 -0.9464
  123MOL   O11029634   4.471   5.686   0.308  0.3251 -0.5009  0.4700
  123MOL   C11129635   4.348   5.723   0.374  0.3810 -0.3087  0.1962
  123MOL   C11229636   4.248   5.771   0.271 -0.6306 -0.0280  0.6182
  123MOL   C11329637   4.290   5.598   0.446  0.5095  0.0319 -0.8955
  123MOL   C11429638   4.383   5.537   0.554 -0.2345  0.1013 -0.6084
  123MOL   O11529639   4.407   5.414   0.562 -0.2327 -0.3359 -0.3591
  123MOL   H11629640   4.355   5.794   0.456 -2.3667  1.2122 -0.8252
  123MOL   H11729641   4.160   5.815   0.318 -0.7963  2.4938 -1.8631
  123MOL   H11829642   4.223   5.689   0.203  0.0213  0.5341 -0.3201
  123MOL   H11929643   4.295   5.849   0.211 -2.7033  2.4026  2.0661
  123MOL   H12029644   4.276   5.517   0.375 -1.5095 -0.1428 -0.3315
  123MOL   H12129645   4.191   5.621   0.487  1.8754  1.7283  1.6291
  123MOL   O12229646   4.422   5.636   0.644 -0.2250 -0.5050  0.4739
  123MOL   C12329647   4.521   5.608   0.743  0.4001 -0.3212 -0.4305
  123MOL   C12429648   4.667   5.613   0.683  0.0828 -0.3074  0.2607
  123MOL   C12529649   4.502   5.704   0.872  0.0885 -0.2837 -0.4352
  123MOL   C12629650   4.588   5.680   0.997 -0.1861  0.3676  0.4289
  123MOL   O12729651   4.631   5.772   1.062  0.5013 -0.7117  0.0850
  123MOL   H12829652   4.496   5.510   0.785  0.8821 -0.6703 -0.9540
  123MOL   H12929653   4.674   5.539   0.604  0.1515 -1.0945  1.0034
  123MOL   H13029654   4.741   5.593   0.761  1.9877 -0.5448 -1.5544
  123MOL   H13129655   4.705   5.711   0.652  1.8813 -1.1168 -0.1678
  123MOL   H13229656   4.398   5.714   0.905  0.8000  0.5666  1.6029
  123MOL   H13329657   4.523   5.804   0.836 -1.7979  1.0277  1.9292
  123MOL   O13429658   4.599   5.551   1.018  0.0165 -0.5464  0.7109
  123MOL   C13529659   4.695   5.506   1.119 -0.2649 -0.3499  1.0972
  123MOL   C13629660   4.636   5.422   1.226 -0.2568 -0.5712 -0.3183
  123MOL   C13729661   4.815   5.443   1.044  0.2435  0.2563  0.6482
  123MOL   C13829662   4.804   5.306   0.968 -0.1715  0.5276  1.0062
  123MOL   O13929663   4.833   5.202   1.015  0.5711  0.4384  0.5523
  123MOL   H14029664   4.726   5.597   1.170 -0.7516 -0.1614  1.0617
  123MOL   H14129665   4.581   5.337   1.187  0.6520 -0.4749 -1.8514
  123MOL   H14229666   4.581   5.492   1.290  1.0457  0.1420  0.0467
  123MOL   H14329667   4.706   5.378   1.297  1.4530  1.7277 -0.5322
  123MOL   H14429668   4.893   5.421   1.117  0.3336 -0.5490  0.3167
  123MOL   H14529669   4.855   5.518   0.975  2.2826 -0.0745  1.4344
  123MOL   O14629670   4.751   5.318   0.846 -0.1096  0.5480 -0.4247
  123MOL   C14729671   4.750   5.207   0.758  0.2427 -0.0338 -0.3183
  123MOL   C14829672   4.599   5.162   0.743  0.2574 -0.0381 -0.4663
  123MOL   C14929673   4.823   5.228   0.616 -0.3419 -0.0722  0.0027
  123MOL   C15029674   4.842   5.088   0.558  0.2633  0.4970  0.2559
  123MOL   O15129675   4.902   4.997   0.617  0.3776 -0.5337  0.2192
  123MOL   H15229676   4.805   5.128   0.808 -3.2248 -2.8740 -0.7461
  123MOL   H15329677   4.543   5.220   0.670 -0.7166 -0.2136  0.1344
  123MOL   H15429678   4.547   5.162   0.839  1.0956 -0.2213 -0.0053
  123MOL   H15529679   4.587   5.055   0.724 -0.6590  0.0891 -0.6012
  123MOL   H15629680   4.922   5.274   0.624  1.2764 -3.3646 -0.2418
  123MOL   H15729681   4.761   5.284   0.547 -2.5799 -1.1239  1.1031
  123MOL   O15829682   4.790   5.081   0.434  0.2246 -0.0009 -0.1257
  123MOL   C15929683   4.794   4.965   0.351  0.3556 -0.0020 -0.4111
  123MOL   C16029684   4.658   4.899   0.358 -0.2926 -0.6756  0.0938
  123MOL   C16129685   4.838   4.989   0.199 -0.3378 -0.0033 -0.6073
  123MOL   C16229686   4.993   4.989   0.172  0.0958  0.7061 -0.3424
  123MOL   O16329687   5.039   4.987   0.060 -0.0494 -0.3022 -0.0168
  123MOL   H16429688   4.857   4.894   0.405 -1.6776 -1.7792 -0.2986
  123MOL   H16529689   4.607   4.919   0.452  2.1711  0.2283  1.3044
  123MOL   H16629690   4.659   4.792   0.340 -0.7884 -0.6011 -0.3797
  123MOL   H16729691   4.604   4.949   0.278 -0.8342 -1.4394 -0.0160
  123MOL   H16829692   4.798   5.081   0.159  0.2922  0.4222 -0.2619
  123MOL   H16929693   4.804   4.903   0.140  0.7433 -0.2755 -0.8468
  123MOL   O17029694   5.061   4.977   0.291  0.1301 -0.2823 -0.5853
  123MOL   C17129695   5.198   4.969   0.301 -0.6697  0.0672  0.6008
  123MOL   C17229696   5.242   5.024   0.439  0.3460 -0.0942 -0.8473
  123MOL   C17329697   5.245   4.822   0.279  0.0457  0.4982 -0.6125
  123MOL   C17429698   5.208   4.728   0.392  0.1155  0.7617 -0.2352
  123MOL   O17529699   5.279   4.700   0.488 -0.3752 -0.1038  0.2478
  123MOL   H17629700   5.241   5.034   0.225 -0.3863 -0.6369  0.1526
  123MOL   H17729701   5.194   4.958   0.511  2.8151 -1.8221 -0.7181
  123MOL   H17829702   5.208   5.127   0.446 -0.3891 -0.2486 -1.9305
  123MOL   H17929703   5.351   5.025   0.451  0.0628  1.2926  1.9582
  123MOL   H18029704   5.352   4.813   0.267  0.4377  1.0418  2.0134
  123MOL   H18129705   5.212   4.776   0.186  1.8392 -2.0767 -0.0251
  123MOL   O18229706   5.086   4.685   0.366  0.8103 -0.1352  0.4033
  123MOL   C18329707   5.021   4.588   0.443 -0.0548  0.0001 -0.2427
  123MOL   C18429708   4.886   4.630   0.497  0.1371  0.1759 -0.5196
  123MOL   C18529709   5.027   4.462   0.359 -0.1895 -0.3806  0.0900
  123MOL   C18629710   4.982   4.327   0.416  0.8760  0.0834 -0.5521
  123MOL   O18729711   4.888   4.262   0.369 -0.1094 -0.4490  0.2763
  123MOL   H18829712   5.085   4.576   0.531  0.8178 -0.9525 -0.9934
  123MOL   H18929713   4.840   4.545   0.546  0.7611  0.4987  0.6654
  123MOL   H19029714   4.826   4.661   0.412 -0.3975  0.8890  0.1099
  123MOL   H19129715   4.897   4.709   0.572 -0.6383 -2.3190  2.2840
  123MOL   H19229716   5.127   4.468   0.317  0.3113 -0.0268  1.3144
  123MOL   H19329717   4.964   4.486   0.274  1.4934  1.0796 -0.7900
  123MOL   O19429718   5.058   4.286   0.517 -0.3002 -0.2688  0.1251
  123MOL   C19529719   5.049   4.156   0.581  1.5291  0.4066  0.5634
  123MOL   C19629720   5.184   4.092   0.599  0.2182 -0.2899  0.2091
  123MOL   C19729721   4.956   4.167   0.709  0.5914 -0.2207 -0.2459
  123MOL   C19829722   5.014   4.225   0.838  0.1527 -0.5354 -1.1937
  123MOL   O19929723   5.051   4.154   0.935  0.6150  0.6198 -0.2323
  123MOL   H20029724   4.997   4.092   0.509  1.2300 -0.9518  1.9510
  123MOL   H20129725   5.182   3.994   0.646  2.6513 -0.3240  0.2604
  123MOL   H20229726   5.247   4.159   0.658 -1.0949 -0.1934  1.5364
  123MOL   H20329727   5.226   4.084   0.499  1.2613 -0.4355  0.6521
  123MOL   H20429728   4.904   4.072   0.718  0.1847 -0.1131 -1.3723
  123MOL   H20529729   4.866   4.222   0.679 -0.7813 -1.8637  0.7671
  123MOL   O20629730   5.024   4.367   0.836  0.1862  0.5762 -0.1848
  123MOL   C20729731   5.097   4.442   0.937  0.6684  0.1757 -0.3580
  123MOL   C20829732   5.225   4.495   0.881 -1.0033  0.2542  0.0279
  123MOL   C20929733   4.988   4.533   0.995 -0.1858 -0.4821 -0.3551
  123MOL   C21029734   5.030   4.632   1.102  0.5073  0.0436  0.4130
  123MOL   O21129735   5.015   4.756   1.082 -0.6899  0.0909  0.4472
  123MOL   H21229736   5.123   4.366   1.011  0.9083 -0.3898 -1.0164
  123MOL   H21329737   5.209   4.551   0.789  1.9339  2.1101  0.5755
  123MOL   H21429738   5.300   4.421   0.854 -2.7028 -1.5913  0.2421
  123MOL   H21529739   5.278   4.564   0.947  0.6488  0.9260 -1.9860
  123MOL   H21629740   4.901   4.478   1.032 -1.9534  1.2350 -1.8374
  123MOL   H21729741   4.955   4.600   0.915  0.5509  0.4941  0.1425
  123MOL   O21829742   5.082   4.576   1.218 -0.4339 -0.1545  0.4753
  123MOL   C21929743   5.134   4.655   1.322  0.0342 -0.1920  0.1191
  123MOL   C22029744   5.025   4.696   1.422 -0.1497  0.2159 -0.5698
  123MOL   C22129745   5.238   4.557   1.377  0.4321  0.4535  0.3732
  123MOL   C22229746   5.353   4.617   1.464 -0.4779  0.3370 -0.0361
  123MOL   O22329747   5.351   4.736   1.492  0.1623  0.5553 -0.2881
  123MOL   H22429748   5.192   4.741   1.289 -1.4483  1.5254  1.8238
  123MOL   H22529749   4.930   4.730   1.381 -1.3315 -2.3830 -0.0976
  123MOL   H22629750   5.068   4.782   1.473  2.4641 -2.0829  1.3095
  123MOL   H22729751   4.999   4.614   1.489 -1.7674  1.2959  0.1596
  123MOL   H22829752   5.294   4.503   1.300 -0.2237 -0.1193  0.2945
  123MOL   H22929753   5.191   4.475   1.431  0.3267 -0.7960 -1.5462
  123MOL   O23029754   5.442   4.530   1.514 -0.2062 -0.4028  0.3855
  123MOL   C23129755   5.523   4.566   1.623  0.2119  0.0876 -0.2059
  123MOL   C23229756   5.469   4.491   1.748  0.0746  0.6545 -0.3854
  123MOL   C23329757   5.657   4.505   1.577 -0.2081 -0.4601  0.1571
  123MOL   C23429758   5.742   4.603   1.491 -0.0922  0.1858  0.0077
  123MOL   O23529759   5.707   4.652   1.380 -0.6324 -0.0076 -0.5291
  123MOL   H23629760   5.521   4.670   1.654  0.2811 -0.2709  1.0246
  123MOL   H23729761   5.477   4.555   1.836 -0.7488  0.5703 -0.2434
  123MOL   H23829762   5.522   4.397   1.761  0.5107  0.7421 -1.4399
  123MOL   H23929763   5.367   4.454   1.745 -0.3098  1.5140  1.4092
  123MOL   H24029764   5.645   4.419   1.511 -2.0086  0.9450 -1.4164
  123MOL   H24129765   5.722   4.464   1.654  1.5139 -1.3467 -1.6939
  123MOL   H24229766   5.840   4.623   1.535  0.5547 -3.4222  0.3594
  124MOL     O129767   2.666   1.779   2.376  0.0591 -0.3637  0.0072
  124MOL     C229768   2.794   1.817   2.414  0.1248  0.0440 -0.3782
  124MOL     C329769   2.791   1.970   2.436  0.0345  0.5980  0.0570
  124MOL     C429770   2.828   1.736   2.543 -0.5186 -0.2904 -0.1129
  124MOL     C529771   2.971   1.747   2.576  0.2135 -0.5487 -0.8270
  124MOL     O629772   3.054   1.674   2.516 -0.2880  0.3224  0.0425
  124MOL     H729773   2.858   1.777   2.336  2.4451  1.6308  0.6632
  124MOL     H829774   2.882   2.015   2.475  0.5335 -2.1789  2.3080
  124MOL     H929775   2.712   2.002   2.505  0.7633  0.0946  1.1490
  124MOL    H1029776   2.766   2.022   2.344 -0.1072 -0.6823 -0.6463
  124MOL    H1129777   2.796   1.632   2.545  0.9872 -0.7613  0.2327
  124MOL    H1229778   2.785   1.789   2.628 -0.8535 -2.0510  0.8269
  124MOL    H1329779   2.663   1.786   2.282  1.6571 -0.5463 -0.0760
  124MOL    O1429780   2.998   1.831   2.680  0.1302  0.6772 -0.4394
  124MOL    C1529781   3.133   1.857   2.721  0.4363  0.9951  0.1586
  124MOL    C1629782   3.178   1.992   2.659  0.0985  0.2296  0.2215
  124MOL    C1729783   3.149   1.847   2.875 -0.3937 -0.6999  0.0683
  124MOL    C1829784   3.296   1.844   2.912 -0.3029 -0.2352 -0.1258
  124MOL    O1929785   3.356   1.734   2.914 -0.1753 -0.5134 -0.2580
  124MOL    H2029786   3.198   1.779   2.683  0.1479  0.6978  0.2687
  124MOL    H2129787   3.164   1.994   2.551  1.6921  0.5386  0.0145
  124MOL    H2229788   3.284   2.005   2.679 -0.1131  2.2137  0.1919
  124MOL    H2329789   3.125   2.075   2.705 -0.2388 -0.6583  1.4625
  124MOL    H2429790   3.088   1.764   2.910 -1.7366 -0.3062 -1.2710
  124MOL    H2529791   3.099   1.930   2.926 -1.9943 -1.1537 -0.7121
  124MOL    O2629792   3.343   1.970   2.936  0.0860  0.2369 -0.0275
  124MOL    C2729793   3.479   1.982   2.963  0.1744 -0.4793  0.1685
  124MOL    C2829794   3.525   2.106   2.881  1.0856 -0.8932 -0.0625
  124MOL    C2929795   3.520   1.994   3.103  0.3301 -0.1412 -0.4990
  124MOL    C3029796   3.670   1.976   3.125 -0.5572 -0.3763 -1.0255
  124MOL    O3129797   3.726   1.876   3.090 -0.1832  0.5906  0.3984
  124MOL    H3229798   3.530   1.893   2.927  0.1858 -1.6650  2.9954
  124MOL    H3329799   3.475   2.200   2.905  0.5704 -1.5669  1.5929
  124MOL    H3429800   3.484   2.094   2.781  0.4669  2.2337 -0.2182
  124MOL    H3529801   3.633   2.120   2.873  1.1046 -1.9056 -1.6979
  124MOL    H3629802   3.471   1.917   3.163 -0.4213  1.0969  0.4936
  124MOL    H3729803   3.470   2.072   3.159 -0.0347 -0.3791 -0.4891
  124MOL    O3829804   3.734   2.091   3.177 -0.7195 -0.2145 -0.2861
  124MOL    C3929805   3.877   2.092   3.203  0.2704  0.3243  0.2801
  124MOL    C4029806   3.946   2.141   3.077 -0.9559 -0.0566  0.0357
  124MOL    C4129807   3.899   2.196   3.320 -0.2070  0.4174  0.3227
  124MOL    C4229808   4.045   2.198   3.366 -0.0062  0.4953 -0.2791
  124MOL    O4329809   4.103   2.303   3.379 -0.2313  0.1319  0.3049
  124MOL    H4429810   3.909   1.991   3.226  0.7125  0.5524  0.6795
  124MOL    H4529811   3.936   2.076   2.991 -0.6312 -0.6057  0.4060
  124MOL    H4629812   4.054   2.148   3.096 -0.6701 -3.7984  0.0830
  124MOL    H4729813   3.918   2.245   3.058 -0.4987 -0.0080 -0.3885
  124MOL    H4829814   3.839   2.163   3.404 -0.0464  1.4213  0.8369
  124MOL    H4929815   3.875   2.298   3.288 -0.8255  0.7796  1.9219
  124MOL    O5029816   4.087   2.076   3.410 -0.2491 -0.4850 -0.5718
  124MOL    C5129817   4.209   2.066   3.489 -0.3720  0.0030  0.1701
  124MOL    C5229818   4.177   1.976   3.616 -0.4175  0.5563 -0.2545
  124MOL    C5329819   4.324   2.007   3.406  0.8013 -0.2493 -0.5036
  124MOL    C5429820   4.459   2.035   3.468  0.4013 -0.7037 -0.1547
  124MOL    O5529821   4.523   2.137   3.440  0.1396  0.6178 -0.3476
  124MOL    H5629822   4.234   2.161   3.535 -2.9561 -0.1524  2.0155
  124MOL    H5729823   4.101   2.026   3.676 -0.2004  0.1036  0.4016
  124MOL    H5829824   4.257   1.972   3.689 -0.3817 -1.9300 -0.3802
  124MOL    H5929825   4.151   1.876   3.581 -0.0191  0.8085 -1.2956
  124MOL    H6029826   4.323   2.049   3.305 -2.8764 -0.4313 -0.6255
  124MOL    H6129827   4.311   1.899   3.394 -0.8845 -0.1701  0.4733
  124MOL    O6229828   4.503   1.940   3.548  0.2850 -0.0560  0.3758
  124MOL    C6329829   4.628   1.962   3.610 -0.2495  0.2300  0.3205
  124MOL    C6429830   4.614   2.057   3.730  0.1150  0.0825  0.2107
  124MOL    C6529831   4.666   1.823   3.663  0.4612 -0.1004  0.3259
  124MOL    C6629832   4.801   1.809   3.722 -0.6699  0.7302  0.0856
  124MOL    O6729833   4.900   1.829   3.650  0.0451 -0.6265 -0.2450
  124MOL    H6829834   4.709   1.993   3.543 -2.5511  2.7341 -1.4240
  124MOL    H6929835   4.704   2.075   3.788  1.9319 -0.7675 -2.2915
  124MOL    H7029836   4.540   2.029   3.806  0.0944  0.6158  0.3882
  124MOL    H7129837   4.591   2.154   3.687  0.5280  0.4009  0.7027
  124MOL    H7229838   4.648   1.756   3.579  0.1428  0.0966  0.2384
  124MOL    H7329839   4.603   1.794   3.747 -0.4275 -2.1856 -1.0261
  124MOL    O7429840   4.796   1.775   3.853 -0.2946  0.2501  0.0347
  124MOL    C7529841   4.924   1.762   3.919 -0.5720  0.3148  0.7507
  124MOL    C7629842   4.923   1.836   4.053 -0.1535 -0.0748 -0.2836
  124MOL    C7729843   4.950   1.612   3.922 -0.2109  0.8668  0.1257
  124MOL    C7829844   5.093   1.577   3.961 -0.2241  0.3614  0.4229
  124MOL    O7929845   5.177   1.543   3.875  0.2623 -1.0304 -0.4631
  124MOL    H8029846   5.002   1.806   3.856 -1.1277 -1.3691 -1.1790
  124MOL    H8129847   4.839   1.803   4.114  0.9788  0.1793  1.4632
  124MOL    H8229848   4.906   1.943   4.047  0.8129  0.3729  3.5663
  124MOL    H8329849   5.012   1.815   4.113 -1.0504  0.1890  1.1504
  124MOL    H8429850   4.922   1.571   3.826 -0.6455  3.1089 -0.7368
  124MOL    H8529851   4.885   1.564   3.995  0.9218  0.0687  0.6298
  124MOL    O8629852   5.113   1.582   4.093 -0.1629  0.2132  0.1561
  124MOL    C8729853   5.239   1.547   4.150  0.1032 -0.1722  0.3046
  124MOL    C8829854   5.233   1.606   4.295  0.4150 -0.1445  0.1467
  124MOL    C8929855   5.263   1.393   4.161 -0.1912 -0.3306  0.5905
  124MOL    C9029856   5.409   1.364   4.136 -0.3830 -0.0977 -0.3126
  124MOL    O9129857   5.448   1.339   4.024 -0.6359  1.0505  0.4032
  124MOL    H9229858   5.325   1.587   4.096 -1.2251  0.8668 -1.0857
  124MOL    H9329859   5.312   1.592   4.368 -0.5759  1.2496  1.5187
  124MOL    H9429860   5.153   1.561   4.355 -0.6462 -0.3791 -1.4279
  124MOL    H9529861   5.201   1.710   4.296 -1.6871 -0.7502 -0.3474
  124MOL    H9629862   5.207   1.345   4.082 -1.0499 -0.4274  1.2490
  124MOL    H9729863   5.226   1.352   4.255 -1.0474  4.0148  2.2546
  124MOL    O9829864   5.493   1.383   4.238 -0.3409 -0.0623  0.2463
  124MOL    C9929865   5.640   1.379   4.232 -0.2988 -0.4369  0.3716
  124MOL   C10029866   5.684   1.433   4.370 -0.3207 -0.6895 -0.5035
  124MOL   C10129867   5.693   1.240   4.193 -0.9084 -0.0725  0.3052
  124MOL   C10229868   5.655   1.118   4.286  0.2752 -0.5063  0.7715
  124MOL   O10329869   5.586   1.134   4.391 -0.5825 -0.2290  0.2980
  124MOL   H10429870   5.687   1.450   4.164 -1.6037 -0.1202 -0.2118
  124MOL   H10529871   5.654   1.538   4.364 -0.1928 -0.5544  1.1714
  124MOL   H10629872   5.792   1.433   4.388 -0.2314  0.3589 -0.9844
  124MOL   H10729873   5.647   1.385   4.460 -0.8774  3.3388  1.5256
  124MOL   H10829874   5.802   1.241   4.195 -0.9078 -0.2795  0.5644
  124MOL   H10929875   5.649   1.223   4.095  1.5584  0.0695 -0.8678
  124MOL   O11029876   5.698   1.007   4.226  0.1111  0.2292 -0.7350
  124MOL   C11129877   5.655   0.879   4.278 -0.3967  0.3085 -0.0818
  124MOL   C11229878   5.567   0.816   4.172 -0.0540  0.6701 -0.1157
  124MOL   C11329879   5.787   0.788   4.287  0.7209 -0.1172  0.1649
  124MOL   C11429880   5.868   0.832   4.414 -0.2462 -0.2168 -0.4411
  124MOL   O11529881   5.886   0.761   4.515  0.2504 -0.0295  0.4696
  124MOL   H11629882   5.600   0.877   4.372 -2.8369  0.9330 -1.4501
  124MOL   H11729883   5.617   0.804   4.076  0.5213 -1.3954  0.4078
  124MOL   H11829884   5.472   0.867   4.161 -1.7941 -2.0549  1.7089
  124MOL   H11929885   5.549   0.717   4.216 -0.7753  1.3498  1.1344
  124MOL   H12029886   5.861   0.799   4.207  0.4146 -1.4289 -0.3210
  124MOL   H12129887   5.763   0.682   4.294  0.8469 -0.1100  0.6896
  124MOL   O12229888   5.929   0.955   4.404  0.3152  0.3799 -0.2155
  124MOL   C12329889   5.998   1.013   4.519  0.3635  0.0048 -0.3018
  124MOL   C12429890   6.147   0.976   4.519 -0.4893 -0.1742 -0.2504
  124MOL   C12529891   5.970   1.160   4.508 -0.2305  0.7189  0.6073
  124MOL   C12629892   6.063   1.242   4.415  0.0225 -0.1077  0.6288
  124MOL   O12729893   6.156   1.313   4.459 -0.0308 -0.1266  0.3066
  124MOL   H12829894   5.948   0.977   4.609  0.0829  2.1158  0.4319
  124MOL   H12929895   6.151   0.868   4.537 -1.2008 -0.4909 -1.9346
  124MOL   H13029896   6.206   1.019   4.600  0.9660 -1.2356 -0.7454
  124MOL   H13129897   6.197   0.999   4.426 -2.1193 -1.2929 -1.4310
  124MOL   H13229898   5.961   1.203   4.607  2.6270 -1.4409  1.8616
  124MOL   H13329899   5.874   1.172   4.457 -0.2240  1.2692  0.7210
  124MOL   O13429900   6.034   1.234   4.285 -0.6473 -0.4439 -0.6111
  124MOL   C13529901   6.114   1.305   4.187  0.2306 -0.5266  0.5581
  124MOL   C13629902   6.064   1.236   4.062 -0.6940  0.0352 -0.3343
  124MOL   C13729903   6.061   1.448   4.162 -0.3663  0.3637  0.0231
  124MOL   C13829904   6.126   1.560   4.235  0.5040 -0.5606 -0.1916
  124MOL   O13929905   6.069   1.663   4.259 -0.4831 -0.5219  0.4347
  124MOL   H14029906   6.221   1.283   4.180 -0.0052 -1.9717  1.4838
  124MOL   H14129907   6.101   1.284   3.971  0.7556 -1.4754 -0.5643
  124MOL   H14229908   5.956   1.223   4.055 -0.5895 -1.1803  0.1597
  124MOL   H14329909   6.110   1.137   4.064 -1.3571 -0.3847 -3.1084
  124MOL   H14429910   5.954   1.464   4.167  0.0278  2.7599  1.3252
  124MOL   H14529911   6.080   1.476   4.058 -0.3043 -0.1858 -0.1148
  124MOL   O14629912   6.262   1.541   4.263  0.0144  0.0620  0.5451
  124MOL   C14729913   6.337   1.629   4.344  0.3587  0.2548  0.2139
  124MOL   C14829914   6.269   1.630   4.482  0.3287 -0.5708 -0.8399
  124MOL   C14929915   6.485   1.578   4.334  0.0105  0.1219  0.6942
  124MOL   C15029916   6.551   1.602   4.196  0.4215 -0.5818 -0.1479
  124MOL   O15129917   6.595   1.718   4.170  0.0702  0.1460  0.0571
  124MOL   H15229918   6.327   1.728   4.298 -0.0455 -0.0893 -0.4568
  124MOL   H15329919   6.261   1.532   4.528 -0.8535  0.9361  2.3407
  124MOL   H15429920   6.168   1.670   4.488 -0.0185 -1.6706  1.0392
  124MOL   H15529921   6.326   1.694   4.549  0.8683 -0.6358 -1.2329
  124MOL   H15629922   6.481   1.473   4.365  1.4146 -0.4491 -0.9583
  124MOL   H15729923   6.546   1.627   4.409 -0.0900  2.1996 -0.5214
  124MOL   O15829924   6.553   1.500   4.117  0.0377  0.1840 -0.0401
  124MOL   C15929925   6.608   1.505   3.986  0.0303  0.0319  0.2018
  124MOL   C16029926   6.756   1.518   3.979 -0.1016 -0.3546 -0.2219
  124MOL   C16129927   6.555   1.388   3.905 -0.4375 -0.0570 -0.4614
  124MOL   C16229928   6.590   1.251   3.955 -0.2978 -0.5039 -0.5769
  124MOL   O16329929   6.674   1.183   3.894 -0.4779 -0.6178  0.3392
  124MOL   H16429930   6.564   1.592   3.937 -1.2999 -0.2849  0.8106
  124MOL   H16529931   6.786   1.587   4.058 -0.1244 -1.9108  1.1741
  124MOL   H16629932   6.793   1.551   3.882  1.6322 -0.8821  0.2503
  124MOL   H16729933   6.791   1.417   4.001 -1.3040 -0.3335  1.9638
  124MOL   H16829934   6.586   1.399   3.801  0.6810  0.9630 -0.0289
  124MOL   H16929935   6.446   1.397   3.912 -0.3054  0.0058  1.7791
  124MOL   O17029936   6.501   1.210   4.058  0.0767  0.3171  0.1634
  124MOL   C17129937   6.525   1.081   4.114  0.3661 -0.0648  0.3675
  124MOL   C17229938   6.578   1.104   4.257 -0.2481  0.5334  0.7929
  124MOL   C17329939   6.390   1.010   4.097  0.6184  0.7269 -0.7058
  124MOL   C17429940   6.396   0.858   4.139  0.0910  0.3230 -0.3330
  124MOL   O17529941   6.504   0.801   4.143  0.1023 -0.0826  0.1805
  124MOL   H17629942   6.606   1.028   4.063 -0.5264  0.0696 -1.2331
  124MOL   H17729943   6.562   1.018   4.323 -0.3897 -0.5532 -0.6472
  124MOL   H17829944   6.508   1.179   4.294 -2.0091  0.5508 -2.4713
  124MOL   H17929945   6.678   1.148   4.261 -0.0787  0.3440 -1.2074
  124MOL   H18029946   6.348   1.004   3.997 -2.3598 -1.2214  0.5987
  124MOL   H18129947   6.307   1.061   4.146  0.0845  0.1968 -1.0529
  124MOL   O18229948   6.276   0.797   4.158 -0.8895  0.2812  0.2316
  124MOL   C18329949   6.265   0.652   4.177  0.0679  0.2834  0.5225
  124MOL   C18429950   6.167   0.621   4.292  0.0940 -0.7158 -0.8923
  124MOL   C18529951   6.209   0.579   4.056  0.2570 -0.5565 -0.0150
  124MOL   C18629952   6.313   0.543   3.945 -0.3836  0.1051 -0.0247
  124MOL   O18729953   6.340   0.430   3.915 -0.1237  0.4606 -0.1955
  124MOL   H18829954   6.360   0.603   4.201 -0.2275 -0.7494 -0.3733
  124MOL   H18929955   6.167   0.521   4.334 -1.7430  0.0772  1.0645
  124MOL   H19029956   6.068   0.650   4.257 -0.0428  0.3949  0.3547
  124MOL   H19129957   6.188   0.688   4.376  1.0441  0.0222 -1.7033
  124MOL   H19229958   6.127   0.635   4.010 -0.0339  0.1636  1.3496
  124MOL   H19329959   6.163   0.486   4.090 -1.3930  0.2945  0.1481
  124MOL   O19429960   6.363   0.653   3.892  0.7536 -0.0343 -0.1989
  124MOL   C19529961   6.457   0.641   3.787  0.2135  0.0276 -0.5120
  124MOL   C19629962   6.374   0.680   3.659  0.1317 -0.7599 -0.3572
  124MOL   C19729963   6.581   0.735   3.821  0.4178  0.1686 -0.5107
  124MOL   C19829964   6.702   0.708   3.733 -0.1175 -0.5467  0.3487
  124MOL   O19929965   6.701   0.630   3.637 -0.6778 -0.8337 -0.1474
  124MOL   H20029966   6.485   0.539   3.761  0.9707  0.0166  0.3450
  124MOL   H20129967   6.442   0.687   3.574 -0.6090 -0.2671 -0.9148
  124MOL   H20229968   6.331   0.780   3.667 -0.2061 -0.8451 -1.1099
  124MOL   H20329969   6.286   0.619   3.642  0.1623 -0.5356 -1.3690
  124MOL   H20429970   6.615   0.722   3.924  1.2656  0.9357 -0.6962
  124MOL   H20529971   6.551   0.839   3.816 -0.4989  0.0976  2.4339
  124MOL   O20629972   6.806   0.784   3.776 -0.0975  0.0674 -0.1676
  124MOL   C20729973   6.934   0.776   3.715  0.4792  0.0722 -0.1571
  124MOL   C20829974   6.992   0.915   3.738 -0.2605 -0.3681  0.5370
  124MOL   C20929975   7.020   0.668   3.784 -0.5610 -0.6841 -0.2009
  124MOL   C21029976   7.147   0.635   3.703 -0.1280  0.0577 -1.0101
  124MOL   O21129977   7.138   0.596   3.586  0.4886  0.0678 -0.7111
  124MOL   H21229978   6.930   0.763   3.607  0.1959 -2.9248  0.1909
  124MOL   H21329979   7.100   0.925   3.727 -0.5314  2.1916 -0.1856
  124MOL   H21429980   6.970   0.954   3.838  1.5832  1.0803  0.4261
  124MOL   H21529981   6.947   0.980   3.664 -2.1161 -1.3232  0.8165
  124MOL   H21629982   6.974   0.569   3.780  3.5669 -2.6478 -1.4848
  124MOL   H21729983   7.034   0.685   3.890 -0.9106 -1.8349  0.0444
  124MOL   O21829984   7.267   0.662   3.770  0.3527 -0.0099 -0.1684
  124MOL   C21929985   7.388   0.656   3.702  0.5755 -0.1085  0.3332
  124MOL   C22029986   7.404   0.795   3.644  1.4547  0.5794 -0.2367
  124MOL   C22129987   7.490   0.613   3.804  0.5619  0.1150 -0.3505
  124MOL   C22229988   7.620   0.563   3.741  0.2454 -1.0978 -0.0485
  124MOL   O22329989   7.643   0.447   3.717 -0.2962 -0.0189 -0.1638
  124MOL   H22429990   7.385   0.582   3.622  0.0506 -2.2433  2.2881
  124MOL   H22529991   7.368   0.818   3.543 -0.1514  0.6614  0.3478
  124MOL   H22629992   7.511   0.810   3.628  1.5740  1.1031  0.9884
  124MOL   H22729993   7.367   0.871   3.713  1.7468  0.3546  0.1651
  124MOL   H22829994   7.457   0.525   3.860 -1.5661  0.2536 -1.3312
  124MOL   H22929995   7.509   0.694   3.876 -0.7714  1.3592 -1.3674
  124MOL   O23029996   7.702   0.665   3.725 -0.3790  0.6361 -0.6129
  124MOL   C23129997   7.836   0.653   3.670  0.1522  0.2255 -0.2922
  124MOL   C23229998   7.868   0.752   3.551 -0.3583 -0.6525  0.7923
  124MOL   C23329999   7.932   0.663   3.793 -0.2894 -1.0910  0.0260
  124MOL   C23430000   7.954   0.807   3.844  0.3646  0.4323 -0.5219
  124MOL   O23530001   0.089   0.850   3.861 -0.0329 -0.4149 -0.7690
  124MOL   H23630002   7.852   0.553   3.631 -1.0777 -0.6846  1.4939
  124MOL   H23730003   7.868   0.858   3.577  1.0861 -0.6433  0.7710
  124MOL   H23830004   7.799   0.742   3.467 -0.2059 -1.2439  0.7348
  124MOL   H23930005   7.968   0.727   3.516  0.7230  0.9901  2.6349
  124MOL   H24030006   0.053   0.626   3.773  0.2924 -1.4696  3.3324
  124MOL   H24130007   7.898   0.598   3.874  0.8833 -0.3911  1.1084
  124MOL   H24230008   7.857   0.849   3.871  0.4437  1.0325 -1.1580
  125MOL     O130009   0.496   7.269   3.697  0.3432 -0.3158 -0.2976
  125MOL     C230010   0.516   7.135   3.651 -0.3073 -0.1231  0.0748
  125MOL     C330011   0.462   7.038   3.756  0.1658 -0.4777 -0.9074
  125MOL     C430012   0.450   7.115   3.515 -0.2612 -0.5312 -0.2562
  125MOL     C530013   0.507   6.984   3.442 -0.1234 -0.7239  0.7005
  125MOL     O630014   0.586   6.912   3.501  0.5112 -0.3814  0.0023
  125MOL     H730015   0.623   7.118   3.640 -0.7968 -3.2343 -0.2469
  125MOL     H830016   0.354   7.032   3.749 -0.0344  0.6775  1.0137
  125MOL     H930017   0.496   7.057   3.858  1.9192 -0.8018 -1.4170
  125MOL    H1030018   0.496   6.936   3.734  2.0192  0.1105 -0.8832
  125MOL    H1130019   0.471   7.208   3.461 -4.0507  0.7357  0.2844
  125MOL    H1230020   0.342   7.104   3.520 -0.1877 -0.4602  2.3423
  125MOL    H1330021   0.568   7.300   3.751  0.0410 -0.0494 -0.0452
  125MOL    O1430022   0.465   6.982   3.313  0.0233 -0.3866  0.4051
  125MOL    C1530023   0.513   6.882   3.218  0.1275 -0.1600  0.5369
  125MOL    C1630024   0.403   6.782   3.184 -0.1624 -0.3709  0.0132
  125MOL    C1730025   0.550   6.950   3.085 -0.5415  0.2006 -0.4424
  125MOL    C1830026   0.672   7.034   3.083  0.8868  0.0260  0.1920
  125MOL    O1930027   0.758   7.029   3.170  0.1130 -0.3754  0.3084
  125MOL    H2030028   0.599   6.825   3.253 -0.2811 -2.2236 -1.6581
  125MOL    H2130029   0.311   6.827   3.148  0.2859  1.8668  1.4924
  125MOL    H2230030   0.370   6.735   3.277 -0.1188 -0.7087 -0.1425
  125MOL    H2330031   0.429   6.712   3.105 -0.4164  0.4299 -0.7840
  125MOL    H2430032   0.474   7.028   3.074 -1.2765 -0.4679 -0.1308
  125MOL    H2530033   0.553   6.888   2.996 -1.7472 -0.1892 -0.2239
  125MOL    O2630034   0.668   7.112   2.973 -0.4150  0.7177 -0.6791
  125MOL    C2730035   0.769   7.205   2.924  0.9224  0.2567 -0.0081
  125MOL    C2830036   0.862   7.135   2.827 -0.6057  0.2959 -0.0084
  125MOL    C2930037   0.691   7.313   2.844  0.6365 -0.0819 -0.3304
  125MOL    C3030038   0.618   7.404   2.940 -0.1803  0.7077  0.8149
  125MOL    O3130039   0.659   7.519   2.963 -0.0962 -0.2769 -0.0712
  125MOL    H3230040   0.812   7.258   3.008  0.1164 -0.9719  1.2104
  125MOL    H3330041   0.804   7.084   2.749  0.5626 -0.5880 -0.3225
  125MOL    H3430042   0.925   7.067   2.884  2.6719  2.0003 -1.4305
  125MOL    H3530043   0.937   7.194   2.773 -0.3455  0.6585  0.7535
  125MOL    H3630044   0.619   7.264   2.779  0.3332  0.3501 -0.3245
  125MOL    H3730045   0.754   7.377   2.783  0.1104  1.1539  0.3930
  125MOL    O3830046   0.497   7.357   2.985  0.4342 -0.2043  0.1175
  125MOL    C3930047   0.408   7.440   3.061 -0.2510 -0.3742 -0.1116
  125MOL    C4030048   0.277   7.448   2.984 -0.7554 -0.6005 -0.0252
  125MOL    C4130049   0.395   7.390   3.209 -0.0031 -0.5447 -0.3751
  125MOL    C4230050   0.518   7.426   3.289  0.1914  0.8543  0.4507
  125MOL    O4330051   0.529   7.532   3.350 -0.1229 -0.3505  0.5070
  125MOL    H4430052   0.444   7.543   3.065 -0.3396 -0.3859  1.4515
  125MOL    H4530053   0.220   7.358   3.007 -0.5968 -0.6015  0.3601
  125MOL    H4630054   0.287   7.447   2.875  2.1974  1.4262  0.1820
  125MOL    H4730055   0.205   7.526   3.010 -1.6931 -1.0460 -1.1961
  125MOL    H4830056   0.366   7.285   3.215  1.5479 -0.9172  1.2532
  125MOL    H4930057   0.315   7.448   3.254 -0.1954 -0.2876 -1.0558
  125MOL    O5030058   0.620   7.339   3.270  0.4722  0.5102  0.8701
  125MOL    C5130059   0.753   7.346   3.326 -0.0015  0.1181 -0.3403
  125MOL    C5230060   0.830   7.470   3.271  0.1047 -0.2593 -0.7383
  125MOL    C5330061   0.738   7.338   3.482  0.1802  0.1789 -0.4314
  125MOL    C5430062   0.864   7.288   3.560  0.1305 -0.7677  0.5780
  125MOL    O5530063   0.964   7.237   3.508  0.5980 -0.5431 -0.2012
  125MOL    H5630064   0.807   7.262   3.283  0.0740 -1.2023  2.2415
  125MOL    H5730065   0.917   7.487   3.334  1.3424 -0.7690 -2.2901
  125MOL    H5830066   0.766   7.558   3.276  0.0703 -0.2749 -0.8982
  125MOL    H5930067   0.847   7.447   3.166  1.7296 -3.2189  0.0996
  125MOL    H6030068   0.657   7.267   3.501 -0.4023  0.4262 -1.8990
  125MOL    H6130069   0.724   7.438   3.523 -0.6351 -0.1189  0.0357
  125MOL    O6230070   0.840   7.302   3.691  0.0143 -0.0837  0.2949
  125MOL    C6330071   0.923   7.253   3.789  0.1241 -0.4760  0.1008
  125MOL    C6430072   1.028   7.357   3.825  0.8265 -0.0597  0.3326
  125MOL    C6530073   0.840   7.196   3.903  0.1850  0.6813  0.6046
  125MOL    C6630074   0.772   7.300   3.989  0.1278 -0.3396  0.2825
  125MOL    O6730075   0.804   7.314   4.104 -0.1087 -0.1204  0.3894
  125MOL    H6830076   0.978   7.168   3.749  1.5573 -0.0846  1.2123
  125MOL    H6930077   0.987   7.458   3.832 -0.0411 -0.4609  1.3093
  125MOL    H7030078   1.119   7.343   3.768  0.6152 -0.5974  0.1267
  125MOL    H7130079   1.064   7.326   3.923  0.0021  0.4950  0.8135
  125MOL    H7230080   0.903   7.134   3.967 -0.6829 -0.4314  0.4007
  125MOL    H7330081   0.764   7.125   3.869  1.1196 -0.4647  0.8758
  125MOL    O7430082   0.675   7.370   3.927 -0.1830 -0.1581 -0.0716
  125MOL    C7530083   0.595   7.451   4.002  0.5334  0.6109 -0.3485
  125MOL    C7630084   0.567   7.581   3.920 -0.1824 -0.5376  0.5081
  125MOL    C7730085   0.473   7.374   4.046 -0.1387 -0.1233  0.5583
  125MOL    C7830086   0.405   7.427   4.172  0.5367 -0.6446  0.0714
  125MOL    O7930087   0.443   7.391   4.283 -0.5331  0.2360 -0.2846
  125MOL    H8030088   0.648   7.488   4.089  0.3194  1.0416 -0.4015
  125MOL    H8130089   0.656   7.639   3.897  0.2571 -1.6953 -0.7776
  125MOL    H8230090   0.513   7.652   3.983  0.4836  0.3876  0.0411
  125MOL    H8330091   0.515   7.571   3.825  1.3673  1.3472 -0.5723
  125MOL    H8430092   0.485   7.266   4.053  0.8529 -0.1920 -1.6253
  125MOL    H8530093   0.395   7.384   3.971  1.0627 -0.1655 -0.7107
  125MOL    O8630094   0.307   7.515   4.154  0.2332 -0.2787 -0.0757
  125MOL    C8730095   0.218   7.555   4.256 -0.5939 -0.3173  0.1642
  125MOL    C8830096   0.261   7.703   4.306  0.3285  0.4384 -0.7730
  125MOL    C8930097   0.069   7.555   4.218 -2.0019 -0.1364  0.5782
  125MOL    C9030098   0.009   7.411   4.206  0.9308 -0.0242  0.4416
  125MOL    O9130099   7.878   7.380   4.251 -0.0374 -0.1455  0.4009
  125MOL    H9230100   0.222   7.484   4.339  0.3706 -0.2934  0.1430
  125MOL    H9330101   0.190   7.744   4.379  0.1538  0.6861 -1.0816
  125MOL    H9430102   0.278   7.762   4.216  1.5653  0.4748 -0.5185
  125MOL    H9530103   0.360   7.706   4.351  0.2104  3.4017 -0.6365
  125MOL    H9630104   0.073   7.603   4.120 -0.4077 -0.0916  0.6510
  125MOL    H9730105   0.019   7.627   4.282  0.7427  0.9313  1.6118
  125MOL    O9830106   0.085   7.335   4.128  0.3026 -1.0566  0.1822
  125MOL    C9930107   0.039   7.217   4.067  0.0974 -0.0686 -0.3206
  125MOL   C10030108   7.899   7.241   3.966 -0.6238 -0.1239 -0.0043
  125MOL   C10130109   0.152   7.138   3.999 -0.0915  0.8386  0.7256
  125MOL   C10230110   0.235   7.044   4.080  0.4666  0.8236 -0.4973
  125MOL   O10330111   0.217   6.925   4.076 -0.0601 -0.0738  0.3627
  125MOL   H10430112   7.976   7.151   4.141  2.8741  1.2709  2.6050
  125MOL   H10530113   7.936   7.267   3.867  2.2293 -0.7427  0.8498
  125MOL   H10630114   7.834   7.323   3.996 -1.2438 -0.2538 -0.9577
  125MOL   H10730115   7.837   7.152   3.956  0.8187 -1.0257 -1.2324
  125MOL   H10830116   0.220   7.220   3.974  0.9329 -0.4058 -0.6088
  125MOL   H10930117   0.127   7.099   3.901 -0.3531 -0.1046  1.1572
  125MOL   O11030118   0.335   7.105   4.153  0.4601 -0.0299  0.7181
  125MOL   C11130119   0.421   7.021   4.237 -0.3565 -0.2663 -0.2822
  125MOL   C11230120   0.514   6.937   4.144 -0.6302 -0.1458 -0.0235
  125MOL   C11330121   0.510   7.092   4.345 -0.1964 -0.0970  0.4199
  125MOL   C11430122   0.433   7.134   4.461  0.2474 -0.4045 -0.1525
  125MOL   O11530123   0.316   7.102   4.480 -0.2490 -0.3026  0.7160
  125MOL   H11630124   0.360   6.950   4.292 -0.3138 -0.1272 -0.0554
  125MOL   H11730125   0.588   6.879   4.198  0.8263  1.2571 -0.4773
  125MOL   H11830126   0.560   7.014   4.082  0.2009  0.4954  1.3739
  125MOL   H11930127   0.452   6.862   4.094  0.3789 -1.0067 -0.0071
  125MOL   H12030128   0.543   7.190   4.309  0.4601  1.0845  4.0225
  125MOL   H12130129   0.589   7.032   4.388  1.6388  2.3862  0.6002
  125MOL   O12230130   0.509   7.195   4.555 -0.3515 -0.4677 -0.4063
  125MOL   C12330131   0.468   7.209   4.691  0.0383 -0.6850 -0.5147
  125MOL   C12430132   0.587   7.159   4.775 -0.2724  0.2955  0.2058
  125MOL   C12530133   0.450   7.363   4.713  0.1489  0.4160 -0.0499
  125MOL   C12630134   0.422   7.416   4.855  0.3383 -0.5515  0.6405
  125MOL   O12730135   0.399   7.336   4.941  0.7567 -0.2315  0.2682
  125MOL   H12830136   0.374   7.155   4.704 -0.3252 -0.2228 -1.1805
  125MOL   H12930137   0.625   7.066   4.733  2.0471 -0.2466  3.3992
  125MOL   H13030138   0.571   7.128   4.878 -2.0631 -0.0953 -0.1582
  125MOL   H13130139   0.681   7.211   4.758  0.1344 -0.6473 -0.4839
  125MOL   H13230140   0.374   7.392   4.640 -2.1928 -1.1743  1.6492
  125MOL   H13330141   0.543   7.404   4.675  1.2812 -2.3606 -0.3550
  125MOL   O13430142   0.420   7.553   4.867 -0.2672  0.4749  0.5273
  125MOL   C13530143   0.394   7.604   4.991 -0.4848  0.3595 -0.8589
  125MOL   C13630144   0.512   7.701   5.016  0.4762  0.0421  0.0594
  125MOL   C13730145   0.255   7.671   4.974  0.2977  0.1000  0.0268
  125MOL   C13830146   0.208   7.725   5.111 -0.2508 -0.6446  0.2432
  125MOL   O13930147   0.152   7.643   5.192 -0.0778 -0.1156  0.2015
  125MOL   H14030148   0.390   7.526   5.067  0.4019 -0.5370 -1.7142
  125MOL   H14130149   0.517   7.784   4.946  1.5049  1.4602  1.7921
  125MOL   H14230150   0.605   7.652   4.989  0.8580 -0.1509  1.6668
  125MOL   H14330151   0.507   7.738   5.118  1.1582 -1.3398  0.6120
  125MOL   H14430152   0.185   7.596   4.936 -0.5350 -0.5532  2.7198
  125MOL   H14530153   0.257   7.753   4.903  0.9398  0.3733  0.3561
  125MOL   O14630154   0.221   7.863   5.126 -0.5594 -0.4152 -0.1977
  125MOL   C14730155   0.142   7.923   5.233  0.2832 -0.1026  0.2620
  125MOL   C14830156   0.202   7.922   5.373 -0.2635 -0.0746 -0.2280
  125MOL   C14930157   0.108   0.082   5.195  0.4932 -0.3985  0.8198
  125MOL   C15030158   7.976   0.086   5.087  0.2581  0.3038 -0.0568
  125MOL   O15130159   0.022   0.115   4.973 -0.0225 -0.2002  0.4469
  125MOL   H15230160   0.051   7.863   5.232  0.2128 -0.0262  1.3523
  125MOL   H15330161   0.235   7.828   5.418 -0.0074  0.1584  0.0789
  125MOL   H15430162   0.139   7.972   5.446  0.7431 -0.6741  1.0927
  125MOL   H15530163   0.293   0.003   5.368  0.5924 -1.3267 -0.1983
  125MOL   H15630164   0.196   0.136   5.161  1.0473 -2.2329 -0.7487
  125MOL   H15730165   0.070   0.142   5.278 -2.1407 -0.0675 -0.5653
  125MOL   O15830166   7.856   0.050   5.131 -0.2636  0.4941 -0.4881
  125MOL   C15930167   7.742   0.070   5.047  0.0458 -0.0941  0.0323
  125MOL   C16030168   7.629   7.936   5.075  0.1001 -0.9134 -0.1670
  125MOL   C16130169   7.687   0.215   5.047 -0.2634  0.5072  0.3066
  125MOL   C16230170   7.569   0.229   4.949 -0.6659 -0.0049  0.6461
  125MOL   O16330171   7.456   0.223   4.989 -0.0882  0.0454 -0.5809
  125MOL   H16430172   7.780   0.036   4.950 -0.8850  0.3314 -0.4918
  125MOL   H16530173   7.546   7.944   5.005 -0.6405  1.8705  0.9585
  125MOL   H16630174   7.599   7.948   5.179  0.8462 -0.6400  0.0203
  125MOL   H16730175   7.675   7.837   5.070  0.0318 -1.0578  1.7379
  125MOL   H16830176   7.763   0.278   5.001 -0.6671  0.6849 -0.1188
  125MOL   H16930177   7.660   0.249   5.147 -1.0499  1.0748 -0.0958
  125MOL   O17030178   7.604   0.268   4.826 -0.5871 -0.5233 -0.4343
  125MOL   C17130179   7.512   0.287   4.721  0.3866 -0.6886 -0.1788
  125MOL   C17230180   7.499   0.434   4.700  0.3433 -0.1593 -0.1181
  125MOL   C17330181   7.569   0.210   4.597 -0.2670 -0.3939 -0.1274
  125MOL   C17430182   7.470   0.203   4.480 -0.4701 -0.0793 -0.9508
  125MOL   O17530183   7.492   0.273   4.387 -0.7584 -0.1923  0.6853
  125MOL   H17630184   7.414   0.244   4.741  0.2804 -0.7223 -0.7586
  125MOL   H17730185   7.461   0.479   4.791  1.3160  0.5456 -0.0554
  125MOL   H17830186   7.427   0.452   4.621  3.2354  0.7017 -2.6656
  125MOL   H17930187   7.595   0.479   4.675 -0.3440  0.5138 -1.5891
  125MOL   H18030188   7.580   0.106   4.626 -0.6865 -1.0574 -2.2553
  125MOL   H18130189   7.667   0.253   4.572 -1.0275 -0.4238 -3.3645
  125MOL   O18230190   7.377   0.102   4.479  0.0598 -0.6725 -0.5696
  125MOL   C18330191   7.294   0.083   4.368  0.6042  0.9197  0.8025
  125MOL   C18430192   7.246   7.914   4.368  0.1982 -0.2718 -0.2198
  125MOL   C18530193   7.176   0.175   4.393 -0.3545  0.2074  0.1432
  125MOL   C18630194   7.073   0.168   4.282  0.6695 -0.3906  0.4797
  125MOL   O18730195   6.957   0.130   4.303 -0.2016 -1.2763 -0.4326
  125MOL   H18830196   7.343   0.111   4.274  1.4734 -0.1385  0.9264
  125MOL   H18930197   7.324   7.838   4.377 -0.9464 -1.6074 -1.3978
  125MOL   H19030198   7.195   7.880   4.278  0.4668 -0.9772 -0.1121
  125MOL   H19130199   7.178   7.898   4.452 -0.6590 -0.1199 -0.8865
  125MOL   H19230200   7.204   0.279   4.409  0.8328  0.0559 -0.8028
  125MOL   H19330201   7.128   0.138   4.484 -1.4022 -0.4932 -0.6905
  125MOL   O19430202   7.117   0.206   4.163 -0.2355  0.1171 -0.4837
  125MOL   C19530203   7.037   0.199   4.049  0.6042  0.7688  0.2980
  125MOL   C19630204   6.971   0.342   4.038 -0.3290 -0.6474 -0.3748
  125MOL   C19730205   7.114   0.150   3.924 -0.3258 -0.0374  0.0780
  125MOL   C19830206   7.249   0.225   3.892 -0.0848 -0.3831  0.2931
  125MOL   O19930207   7.248   0.344   3.868  0.3593  0.3289 -0.1838
  125MOL   H20030208   6.944   0.143   4.055  0.2207  0.6844 -4.2795
  125MOL   H20130209   7.050   0.414   4.015 -1.5937  0.6347 -0.7899
  125MOL   H20230210   6.920   0.375   4.129  0.4936  2.3145 -0.9157
  125MOL   H20330211   6.918   0.358   3.944 -0.4852 -0.1155 -0.2003
  125MOL   H20430212   7.056   0.155   3.833 -0.4162 -0.3550  0.1185
  125MOL   H20530213   7.132   0.042   3.925 -2.6083 -0.4396  1.7974
  125MOL   O20630214   7.361   0.152   3.909  0.1157 -0.2319  0.8929
  125MOL   C20730215   7.494   0.202   3.872 -0.6667 -0.0174 -0.5571
  125MOL   C20830216   7.583   0.219   3.999 -0.5166  0.8689 -0.1462
  125MOL   C20930217   7.561   0.098   3.773 -0.3922 -0.6171  0.2740
  125MOL   C21030218   7.506   0.107   3.629 -0.3628  0.3495 -0.4186
  125MOL   O21130219   7.527   0.020   3.545  0.6072 -0.5595 -0.5571
  125MOL   H21230220   7.476   0.299   3.825  0.9958 -0.3166 -1.8774
  125MOL   H21330221   7.610   0.129   4.054 -3.4865  0.4279  0.6994
  125MOL   H21430222   7.535   0.285   4.071 -1.2049 -0.8657  1.0253
  125MOL   H21530223   7.671   0.280   3.979  1.0692 -1.0310  0.8486
  125MOL   H21630224   7.588   0.002   3.815 -0.0966  0.4556  2.6453
  125MOL   H21730225   7.663   0.127   3.750 -0.9412  1.0545 -0.1536
  125MOL   O21830226   7.448   0.229   3.602  0.0533  0.2737  0.9035
  125MOL   C21930227   7.377   0.241   3.482  0.4167 -0.0107  0.4734
  125MOL   C22030228   7.231   0.271   3.537 -0.5893 -0.7661 -0.6500
  125MOL   C22130229   7.417   0.350   3.385 -0.5781 -0.4133 -0.5389
  125MOL   C22230230   7.542   0.311   3.308 -0.6041  0.2887  0.6108
  125MOL   O22330231   7.634   0.390   3.308 -0.0252 -0.2295  0.1820
  125MOL   H22430232   7.377   0.142   3.437  0.8366  0.5415 -0.7754
  125MOL   H22530233   7.218   0.209   3.625  0.4500 -0.8554 -0.5483
  125MOL   H22630234   7.154   0.271   3.460 -0.5002  0.9678 -0.7471
  125MOL   H22730235   7.221   0.373   3.575 -1.0012 -0.8951 -0.4170
  125MOL   H22830236   7.439   0.440   3.443  2.0638 -1.3780  0.0142
  125MOL   H22930237   7.346   0.374   3.306 -1.0217 -3.0788 -0.9951
  125MOL   O23030238   7.534   0.202   3.239 -0.0934  0.3153 -0.3515
  125MOL   C23130239   7.640   0.158   3.159 -0.2417 -0.1744 -0.6879
  125MOL   C23230240   7.658   0.009   3.201  0.2854  0.3359 -0.4151
  125MOL   C23330241   7.608   0.182   3.012  0.2519  0.2104 -0.3388
  125MOL   C23430242   7.643   0.330   2.977  0.8282  0.0949  0.3733
  125MOL   O23530243   7.739   0.347   2.902  0.2278 -0.1183  0.2063
  125MOL   H23630244   7.731   0.208   3.193 -1.3138  2.2108 -1.2854
  125MOL   H23730245   7.731   7.930   3.146  1.1940  0.1135  0.9903
  125MOL   H23830246   7.561   7.939   3.202  0.7184 -0.4996  0.9407
  125MOL   H23930247   7.697   7.974   3.302 -0.1419  0.2118 -0.2680
  125MOL   H24030248   7.506   0.148   2.997  0.9443 -2.8684  1.3824
  125MOL   H24130249   7.662   0.112   2.949  1.3230  0.4470  0.2882
  125MOL   H24230250   7.575   0.402   3.022  0.0089 -0.8797  0.7166
  126MOL     O130251   6.521   1.514   5.144  0.1102 -0.1806 -0.1126
  126MOL     C230252   6.642   1.500   5.076  0.5456  0.4125  0.5375
  126MOL     C330253   6.732   1.600   5.139  0.0505  0.3181 -0.2067
  126MOL     C430254   6.686   1.354   5.114  0.4438  0.0694  0.0127
  126MOL     C530255   6.814   1.312   5.049 -0.4681  0.5107  0.1449
  126MOL     O630256   6.815   1.275   4.934 -0.0044 -0.2216  0.1880
  126MOL     H730257   6.626   1.498   4.968 -1.7420 -2.3997  0.8683
  126MOL     H830258   6.717   1.700   5.098 -1.1643  0.2060 -0.0578
  126MOL     H930259   6.838   1.576   5.127 -0.1221 -1.0518  0.9986
  126MOL    H1030260   6.708   1.603   5.245 -2.6150 -0.0525 -0.7652
  126MOL    H1130261   6.606   1.288   5.079 -1.6109  2.3936  0.1368
  126MOL    H1230262   6.692   1.346   5.222 -1.6860 -1.8960  0.0536
  126MOL    H1330263   6.497   1.605   5.155  1.2590  0.0795  0.3392
  126MOL    O1430264   6.916   1.317   5.136  0.2491  0.4857 -0.0441
  126MOL    C1530265   7.049   1.339   5.098 -0.1925 -0.1328 -0.3024
  126MOL    C1630266   7.119   1.440   5.191 -0.5653  0.5113  0.8837
  126MOL    C1730267   7.113   1.201   5.096 -0.1988 -0.2851 -0.3417
  126MOL    C1830268   7.254   1.188   5.038  0.3647  0.8777  0.3367
  126MOL    O1930269   7.272   1.159   4.918  0.1779  0.1980 -0.3323
  126MOL    H2030270   7.054   1.392   5.003 -1.1733  1.5597  0.5671
  126MOL    H2130271   7.214   1.463   5.143 -0.5491 -1.3450 -0.0292
  126MOL    H2230272   7.140   1.399   5.289  2.7074 -0.5553 -0.2091
  126MOL    H2330273   7.064   1.533   5.203 -0.1898  1.0621 -1.3891
  126MOL    H2430274   7.042   1.149   5.032 -0.9596 -0.3522  0.5494
  126MOL    H2530275   7.104   1.135   5.183 -0.9321 -2.4691 -2.0365
  126MOL    O2630276   7.340   1.201   5.136 -0.4831  0.3325  0.3277
  126MOL    C2730277   7.480   1.204   5.108 -0.2718 -0.9221  0.6785
  126MOL    C2830278   7.522   1.350   5.067  0.4122  0.3081  0.0373
  126MOL    C2930279   7.577   1.140   5.218 -0.1578  0.2547 -0.7983
  126MOL    C3030280   7.538   1.179   5.359 -0.1142 -0.2766 -0.3545
  126MOL    O3130281   7.579   1.288   5.414 -0.0893  0.2445 -0.1779
  126MOL    H3230282   7.498   1.153   5.013 -0.4484 -0.2828  0.2976
  126MOL    H3330283   7.501   1.353   4.960  1.2370 -1.3484 -0.1882
  126MOL    H3430284   7.625   1.380   5.088  0.0964  1.9162 -0.6102
  126MOL    H3530285   7.462   1.419   5.127 -0.9878 -2.5462  2.0372
  126MOL    H3630286   7.678   1.169   5.191 -0.5280  1.7772 -0.6250
  126MOL    H3730287   7.576   1.032   5.206 -2.0778  0.2605 -0.8227
  126MOL    O3830288   7.446   1.106   5.423 -0.2878  0.7988 -0.4193
  126MOL    C3930289   7.380   1.137   5.545 -0.4434 -0.3734 -0.0351
  126MOL    C4030290   7.249   1.208   5.502  0.5833 -0.1006 -0.6456
  126MOL    C4130291   7.363   1.004   5.622 -0.3723 -0.9466 -0.0988
  126MOL    C4230292   7.278   1.033   5.746 -0.6148  0.7066  0.1176
  126MOL    O4330293   7.158   1.039   5.744 -0.4089  0.4655 -0.4360
  126MOL    H4430294   7.432   1.219   5.594 -1.2504 -0.9831  1.8956
  126MOL    H4530295   7.192   1.158   5.424  0.5123 -0.3825 -0.4141
  126MOL    H4630296   7.273   1.300   5.449 -1.2320 -0.3706 -1.9897
  126MOL    H4730297   7.175   1.238   5.576 -1.6069  1.2514 -3.2872
  126MOL    H4830298   7.463   0.967   5.646 -0.8405 -1.8711  0.4482
  126MOL    H4930299   7.314   0.923   5.568  0.2077 -1.2090 -0.2344
  126MOL    O5030300   7.356   1.046   5.856 -0.6835 -0.2045  0.0759
  126MOL    C5130301   7.303   1.087   5.979  0.4607  0.8572  0.3680
  126MOL    C5230302   7.353   0.981   6.080  0.4054 -0.9856  0.4597
  126MOL    C5330303   7.355   1.224   6.006 -0.3909  0.0766  0.3298
  126MOL    C5430304   7.310   1.335   5.915  0.6639  0.2790  0.6327
  126MOL    O5530305   7.189   1.361   5.898  0.6236  0.1900  0.7960
  126MOL    H5630306   7.195   1.087   5.966  0.4162  0.0703  0.7085
  126MOL    H5730307   7.331   0.878   6.052 -0.8333 -0.9897  1.4198
  126MOL    H5830308   7.303   1.002   6.174  2.6110  1.5073  1.1442
  126MOL    H5930309   7.458   0.991   6.107  0.8037  1.2335 -1.7455
  126MOL    H6030310   7.463   1.218   6.001 -0.4169  0.4341 -0.7284
  126MOL    H6130311   7.328   1.250   6.108 -1.1027 -2.2163  0.7623
  126MOL    O6230312   7.411   1.406   5.866 -0.0383  0.2491  0.2831
  126MOL    C6330313   7.386   1.520   5.789  0.2433 -0.2041 -0.3920
  126MOL    C6430314   7.440   1.640   5.868 -0.4552  0.1038  0.5011
  126MOL    C6530315   7.466   1.498   5.664 -0.3322  0.8010  0.3427
  126MOL    C6630316   7.470   1.621   5.568 -0.1615 -0.1195 -0.3085
  126MOL    O6730317   7.384   1.637   5.484 -0.5297 -0.0262  0.5068
  126MOL    H6830318   7.282   1.531   5.760 -0.7485 -0.4483  2.8266
  126MOL    H6930319   7.385   1.643   5.962 -0.5535  1.6586  0.4092
  126MOL    H7030320   7.419   1.736   5.821 -0.3192  0.0619  0.3555
  126MOL    H7130321   7.548   1.638   5.884 -0.3404  2.9650  0.3391
  126MOL    H7230322   7.420   1.411   5.618  0.5560  0.5716 -0.1268
  126MOL    H7330323   7.569   1.463   5.675 -1.2024 -1.9082  0.2575
  126MOL    O7430324   7.590   1.689   5.583  0.4896 -0.4517 -0.3108
  126MOL    C7530325   7.621   1.795   5.499  0.1006  0.3120 -0.1920
  126MOL    C7630326   7.691   1.902   5.584 -0.2023  0.0724  0.6551
  126MOL    C7730327   7.706   1.735   5.383 -0.4908 -0.1817 -0.0216
  126MOL    C7830328   7.703   1.810   5.257  0.1573 -0.4465 -0.6645
  126MOL    O7930329   7.724   1.933   5.259  0.0416 -0.2986  0.8482
  126MOL    H8030330   7.526   1.843   5.476 -1.4878 -1.9440  1.4419
  126MOL    H8130331   7.660   2.004   5.562  0.6333  0.3160  0.6027
  126MOL    H8230332   7.799   1.889   5.586 -0.1214  0.5737 -0.3574
  126MOL    H8330333   7.650   1.897   5.685 -1.8275  3.0803  0.1970
  126MOL    H8430334   7.657   1.642   5.356  0.1998 -0.1319 -1.4786
  126MOL    H8530335   7.805   1.715   5.423  0.2558  1.5441 -0.9595
  126MOL    O8630336   7.684   1.728   5.147 -0.4632 -0.2768  0.0563
  126MOL    C8730337   7.671   1.792   5.021  0.5406 -0.1636  0.6342
  126MOL    C8830338   7.736   1.721   4.899  0.0105 -0.0374  0.0684
  126MOL    C8930339   7.524   1.804   4.996  0.3428  0.7440 -0.0203
  126MOL    C9030340   7.482   1.898   4.893  0.3734 -0.6130  0.6761
  126MOL    O9130341   7.439   1.860   4.785 -0.0269  0.4069 -0.2792
  126MOL    H9230342   7.714   1.892   5.026  2.2716 -0.8437 -0.4208
  126MOL    H9330343   7.843   1.709   4.913 -0.1161  0.5705  1.6799
  126MOL    H9430344   7.722   1.776   4.806  2.6726  1.6170  0.5836
  126MOL    H9530345   7.685   1.626   4.884 -1.8445  0.4542  2.8925
  126MOL    H9630346   7.460   1.823   5.081  0.2638 -3.4625  0.9588
  126MOL    H9730347   7.487   1.706   4.967  2.2429 -0.2708  0.8713
  126MOL    O9830348   7.509   2.028   4.929  0.3483 -0.2382  0.4466
  126MOL    C9930349   7.500   2.140   4.844  0.1973  0.3048  0.6793
  126MOL   C10030350   7.351   2.150   4.795 -0.3559  0.1281 -0.3378
  126MOL   C10130351   7.542   2.273   4.915 -0.3099 -0.9335  0.1473
  126MOL   C10230352   7.694   2.292   4.908 -0.0553  0.3225 -0.1645
  126MOL   O10330353   7.745   2.403   4.888  0.3043  0.6898  0.1100
  126MOL   H10430354   7.558   2.131   4.752 -3.1637  1.5260 -1.6878
  126MOL   H10530355   7.319   2.056   4.750 -1.0480  1.1862 -2.1175
  126MOL   H10630356   7.331   2.227   4.721 -3.7305 -1.1933 -0.8638
  126MOL   H10730357   7.278   2.161   4.875  0.9923  0.7201  0.8389
  126MOL   H10830358   7.525   2.270   5.023  0.6578 -0.9388  0.3034
  126MOL   H10930359   7.484   2.362   4.890  0.0919 -1.0881 -1.3709
  126MOL   O11030360   7.762   2.178   4.916  0.2143 -0.2296 -0.1456
  126MOL   C11130361   7.904   2.175   4.903  0.4629 -1.1931 -0.3752
  126MOL   C11230362   7.962   2.237   5.034 -0.0409 -0.1655 -0.6227
  126MOL   C11330363   7.944   2.027   4.883  0.2848 -0.0390  0.1880
  126MOL   C11430364   7.944   1.977   4.741 -0.5376 -0.6499 -0.6799
  126MOL   O11530365   0.066   1.940   4.682  0.0804 -0.1220 -0.0160
  126MOL   H11630366   7.942   2.233   4.819 -1.2830  0.7983  0.1553
  126MOL   H11730367   7.960   2.346   5.035  0.0842 -0.1633 -0.6350
  126MOL   H11830368   0.089   2.227   5.016 -0.2075 -0.4797 -1.4800
  126MOL   H11930369   7.942   2.186   5.128 -0.6885  1.8494  0.3627
  126MOL   H12030370   7.875   1.964   4.938 -1.0122 -0.1489 -1.5233
  126MOL   H12130371   0.065   2.017   4.925  0.7434 -3.3694 -1.5527
  126MOL   O12230372   7.819   2.006   4.686 -0.1245  0.4446 -0.0049
  126MOL   C12330373   7.784   1.961   4.551  0.1842 -0.2390  0.2424
  126MOL   C12430374   7.792   1.812   4.535  0.4961 -0.4815  0.0807
  126MOL   C12530375   7.647   2.011   4.514 -0.0603  1.1776 -0.4674
  126MOL   C12630376   7.627   2.159   4.490 -0.3674 -0.4346  0.2137
  126MOL   O12730377   7.679   2.249   4.556  0.7733 -0.0331 -0.2743
  126MOL   H12830378   7.850   2.007   4.478  0.2435 -1.6482 -0.6168
  126MOL   H12930379   7.768   1.770   4.438  2.8306  0.9043 -1.1337
  126MOL   H13030380   7.734   1.746   4.599  0.1121  0.4388  0.6938
  126MOL   H13130381   7.897   1.785   4.539  0.3613 -0.8184  1.8931
  126MOL   H13230382   7.584   1.989   4.600 -0.3070  1.1862 -0.6456
  126MOL   H13330383   7.598   1.956   4.435 -2.4197  0.8761  1.1772
  126MOL   O13430384   7.523   2.179   4.395  0.2716 -0.6005  0.0559
  126MOL   C13530385   7.483   2.314   4.358 -0.2744  0.1835 -0.4131
  126MOL   C13630386   7.457   2.307   4.208 -0.2482  0.1741 -0.2975
  126MOL   C13730387   7.359   2.366   4.435 -0.2198  0.2307 -0.2009
  126MOL   C13830388   7.331   2.515   4.413  0.8355 -0.1562  0.5058
  126MOL   O13930389   7.396   2.593   4.342 -0.2029  0.1083 -0.6097
  126MOL   H14030390   7.568   2.381   4.372 -0.2794 -0.4773  3.3211
  126MOL   H14130391   7.545   2.265   4.159 -1.7306 -2.2929 -0.9384
  126MOL   H14230392   7.436   2.407   4.171  0.2059  0.9016  1.3599
  126MOL   H14330393   7.370   2.243   4.191  0.0943 -0.9066  1.7697
  126MOL   H14430394   7.369   2.358   4.544  3.3743 -0.1124 -0.4871
  126MOL   H14530395   7.276   2.303   4.406 -0.9583 -0.1093  2.5189
  126MOL   O14630396   7.207   2.542   4.454  0.4127 -0.0236  0.3461
  126MOL   C14730397   7.170   2.680   4.489  0.2758 -0.2939  0.1454
  126MOL   C14830398   7.019   2.681   4.468 -0.0849  0.0945 -0.2224
  126MOL   C14930399   7.222   2.714   4.629 -0.0470 -0.5673 -0.3244
  126MOL   C15030400   7.139   2.649   4.733 -0.1517  0.1469  0.3376
  126MOL   O15130401   7.030   2.693   4.768 -0.5370  0.4373 -0.3965
  126MOL   H15230402   7.218   2.755   4.425  0.9761 -0.2485  0.7197
  126MOL   H15330403   6.988   2.780   4.501 -1.1548 -1.0485  2.2792
  126MOL   H15430404   6.971   2.593   4.511  2.8917 -1.5624 -0.1171
  126MOL   H15530405   7.003   2.687   4.360 -0.7801 -0.1297 -0.1322
  126MOL   H15630406   7.201   2.820   4.643 -1.8232 -0.7573 -1.4127
  126MOL   H15730407   7.328   2.694   4.646  0.1436  0.8767  0.2630
  126MOL   O15830408   7.195   2.544   4.787  0.3287 -0.1865  0.3281
  126MOL   C15930409   7.134   2.497   4.908  0.7700 -0.4900 -0.2738
  126MOL   C16030410   7.050   2.372   4.864 -0.6276 -0.8128 -0.3891
  126MOL   C16130411   7.236   2.469   5.021 -0.0827 -0.5633 -0.5831
  126MOL   C16230412   7.308   2.601   5.060 -0.0390  0.3227 -0.3319
  126MOL   O16330413   7.273   2.688   5.143  0.1200 -0.3958 -0.5183
  126MOL   H16430414   7.076   2.570   4.964  1.3666  0.2146 -0.5696
  126MOL   H16530415   7.095   2.293   4.804  0.2663  1.5655 -2.9487
  126MOL   H16630416   6.968   2.414   4.807 -1.0066 -0.7640  0.1856
  126MOL   H16730417   7.008   2.330   4.956 -1.3607  2.0679  0.6290
  126MOL   H16830418   7.306   2.394   4.983 -2.4309 -2.7665 -0.7249
  126MOL   H16930419   7.195   2.425   5.112  3.0511 -2.5783 -0.0500
  126MOL   O17030420   7.436   2.600   4.996  0.5426 -0.5246 -0.2117
  126MOL   C17130421   7.519   2.712   5.008 -0.3766  0.5858 -0.0633
  126MOL   C17230422   7.628   2.697   5.115  0.5411  0.0096 -0.8036
  126MOL   C17330423   7.585   2.730   4.869  0.0221 -0.2108  0.1228
  126MOL   C17430424   7.603   2.876   4.839 -0.0485  0.5834  0.0709
  126MOL   O17530425   7.500   2.948   4.802  0.2287  0.2088  1.0797
  126MOL   H17630426   7.462   2.802   5.031  1.0179  1.0212  1.7897
  126MOL   H17730427   7.703   2.773   5.093  2.1382 -0.4358  2.6671
  126MOL   H17830428   7.681   2.604   5.096 -1.0017 -0.5829 -2.3200
  126MOL   H17930429   7.586   2.691   5.216  1.6496 -1.8929 -0.4329
  126MOL   H18030430   7.535   2.672   4.791  0.6698  0.5995 -0.8937
  126MOL   H18130431   7.690   2.701   4.870 -0.0190 -0.3362  1.7341
  126MOL   O18230432   7.741   2.914   4.844 -0.2574  0.5906 -0.6113
  126MOL   C18330433   7.788   3.048   4.816 -0.4873  0.1307  0.0170
  126MOL   C18430434   7.855   3.084   4.954 -0.3031 -0.3706 -0.3731
  126MOL   C18530435   7.882   3.050   4.686 -0.2641 -0.0943  0.6757
  126MOL   C18630436   7.801   3.025   4.557 -0.8222  0.0915 -0.6649
  126MOL   O18730437   7.836   2.936   4.478  0.8683  0.0064 -0.5118
  126MOL   H18830438   7.705   3.116   4.799 -0.7908 -0.0089  0.9278
  126MOL   H18930439   7.794   3.053   5.039 -0.4495  1.6599  0.2880
  126MOL   H19030440   7.879   3.191   4.956  1.2348 -0.6457 -2.5919
  126MOL   H19130441   7.949   3.030   4.965  0.1915 -0.2028 -3.2764
  126MOL   H19230442   7.956   2.971   4.697  1.9241  1.5020 -2.0772
  126MOL   H19330443   7.933   3.146   4.679 -1.2665  0.3101 -1.5157
  126MOL   O19430444   7.692   3.099   4.545 -0.5109 -0.4612 -0.1064
  126MOL   C19530445   7.591   3.074   4.452  0.4125  0.3535 -0.8978
  126MOL   C19630446   7.464   3.017   4.513 -0.2307 -0.0452 -0.2852
  126MOL   C19730447   7.562   3.193   4.373  0.1350  0.0559  0.1266
  126MOL   C19830448   7.684   3.244   4.284  0.4395  0.7204  0.1223
  126MOL   O19930449   7.685   3.361   4.242  0.2686  0.1031  0.4502
  126MOL   H20030450   7.630   3.014   4.369  2.7715 -1.8063  1.6930
  126MOL   H20130451   7.409   3.087   4.574 -2.9217 -1.0045 -1.5291
  126MOL   H20230452   7.481   2.925   4.569  0.0853 -0.7719 -1.5477
  126MOL   H20330453   7.388   2.995   4.438 -1.9674 -1.1849  1.7690
  126MOL   H20430454   7.513   3.274   4.427 -0.4064 -0.3757  0.2858
  126MOL   H20530455   7.487   3.158   4.302  0.2875 -1.8898  0.8806
  126MOL   O20630456   7.780   3.146   4.258 -0.0748 -0.4648  0.0489
  126MOL   C20730457   7.901   3.179   4.192  0.2718  0.2610 -0.0182
  126MOL   C20830458   0.003   3.259   4.291 -0.2088 -0.6962 -0.3284
  126MOL   C20930459   7.975   3.052   4.134  0.6678  0.6716  0.3028
  126MOL   C21030460   7.889   2.983   4.026  0.5084 -0.0929 -0.4252
  126MOL   O21130461   7.879   3.024   3.912 -0.1138  0.2614  0.0972
  126MOL   H21230462   7.872   3.240   4.106 -1.4540  0.8420  0.9649
  126MOL   H21330463   0.106   3.264   4.258  0.1612 -0.5901  0.8368
  126MOL   H21430464   7.978   3.203   4.384  2.0338  0.2340  0.3711
  126MOL   H21530465   7.952   3.363   4.303  0.1665 -0.8318  1.9405
  126MOL   H21630466   0.015   2.989   4.220  1.1842 -0.0253 -0.3267
  126MOL   H21730467   0.088   3.087   4.090  0.6626  0.4229  0.0947
  126MOL   O21830468   7.843   2.861   4.058 -0.6679  0.0084  0.0870
  126MOL   C21930469   7.766   2.789   3.966 -0.2260 -0.3716 -0.4595
  126MOL   C22030470   7.862   2.708   3.870 -0.3972  0.1014 -0.1572
  126MOL   C22130471   7.687   2.690   4.051  0.4736 -0.3604  0.6188
  126MOL   C22230472   7.568   2.772   4.116 -0.3173  0.6002  0.1127
  126MOL   O22330473   7.572   2.804   4.233 -0.3497 -0.0807  0.1613
  126MOL   H22430474   7.696   2.845   3.904 -0.4263 -0.9781 -0.7836
  126MOL   H22530475   7.915   2.778   3.806  0.8029  1.7788  2.6005
  126MOL   H22630476   7.799   2.645   3.807  1.1208 -1.1972 -0.3854
  126MOL   H22730477   7.916   2.645   3.940  0.1022  2.1409  1.3581
  126MOL   H22830478   7.748   2.635   4.123 -1.6974 -1.0725  1.9640
  126MOL   H22930479   7.632   2.613   3.998  0.0386 -1.2026  2.2463
  126MOL   O23030480   7.473   2.803   4.023 -0.2138 -0.7327 -0.3973
  126MOL   C23130481   7.367   2.897   4.056 -0.0917  0.3605 -0.3006
  126MOL   C23230482   7.321   2.966   3.925 -0.3583  0.3240 -0.2767
  126MOL   C23330483   7.245   2.812   4.100 -0.0990  0.1565 -0.0685
  126MOL   C23430484   7.140   2.889   4.178 -0.1948 -0.5558 -0.6946
  126MOL   O23530485   7.166   2.986   4.251 -0.2216  0.8824  0.1022
  126MOL   H23630486   7.398   2.972   4.129 -0.1735 -2.3157  2.6009
  126MOL   H23730487   7.232   3.029   3.931  0.1693  1.1120 -0.6795
  126MOL   H23830488   7.286   2.886   3.861 -2.6035  0.9043  0.1826
  126MOL   H23930489   7.404   3.020   3.879 -0.7200  0.2721 -0.9894
  126MOL   H24030490   7.273   2.727   4.163 -0.8349  0.2949  0.4532
  126MOL   H24130491   7.189   2.770   4.017 -0.4276 -0.3896  0.4266
  126MOL   H24230492   7.035   2.858   4.173  0.1760 -2.1303  0.9926
  127MOL     O130493   2.920   4.941   2.899 -0.1694 -0.2606  0.2043
  127MOL     C230494   2.823   4.865   2.834  0.4793  0.4967 -0.0761
  127MOL     C330495   2.829   4.725   2.887  0.3105  0.2951  0.8149
  127MOL     C430496   2.688   4.939   2.852 -0.7225 -0.1310 -0.6305
  127MOL     C530497   2.564   4.870   2.788 -0.5447 -0.2972 -0.0242
  127MOL     O630498   2.531   4.897   2.672  0.1648  0.2316  0.0651
  127MOL     H730499   2.851   4.869   2.729  1.0456  2.3977  0.1211
  127MOL     H830500   2.746   4.665   2.850  3.0799 -1.3058 -3.1347
  127MOL     H930501   2.803   4.726   2.993 -1.4168  0.8430  0.3929
  127MOL    H1030502   2.930   4.688   2.868  0.5697  2.3070 -2.0405
  127MOL    H1130503   2.697   5.041   2.814 -2.7467  1.4219  2.8273
  127MOL    H1230504   2.670   4.967   2.956 -0.1622  0.1834 -0.6214
  127MOL    H1330505   2.996   4.946   2.844  0.7029  0.1280  1.4188
  127MOL    O1430506   2.503   4.778   2.867  0.4033 -0.3311  0.2603
  127MOL    C1530507   2.410   4.685   2.816 -0.5289  0.4848 -0.0205
  127MOL    C1630508   2.464   4.574   2.721 -0.3499 -0.5452  0.0061
  127MOL    C1730509   2.333   4.629   2.934  0.4783 -0.9011  0.5825
  127MOL    C1830510   2.399   4.525   3.025 -0.0679 -0.2063 -0.2073
  127MOL    O1930511   2.527   4.528   3.030 -0.4731  0.9093 -0.3820
  127MOL    H2030512   2.324   4.726   2.762 -2.6805 -3.1147  0.4387
  127MOL    H2130513   2.560   4.540   2.760 -0.3514 -0.6672 -0.0972
  127MOL    H2230514   2.469   4.623   2.624  1.2357 -0.0013  0.3445
  127MOL    H2330515   2.394   4.495   2.695 -1.0479 -0.0192  0.2745
  127MOL    H2430516   2.239   4.595   2.890 -0.1967  1.8806 -0.2733
  127MOL    H2530517   2.303   4.714   2.996  1.6464  1.2091 -1.6432
  127MOL    O2630518   2.312   4.439   3.080  0.3755  0.4792  0.2662
  127MOL    C2730519   2.367   4.330   3.164 -0.4686  0.3596 -0.4963
  127MOL    C2830520   2.391   4.403   3.306  0.6852 -0.1961  0.1551
  127MOL    C2930521   2.262   4.216   3.179  0.3752 -0.8353  0.1022
  127MOL    C3030522   2.237   4.134   3.043  0.2953 -0.1347  0.2118
  127MOL    O3130523   2.133   4.070   3.031 -0.0963  0.3618  0.1924
  127MOL    H3230524   2.463   4.298   3.124 -0.6058  0.6026 -1.0318
  127MOL    H3330525   2.297   4.410   3.361  0.3742  0.7555 -0.4861
  127MOL    H3430526   2.433   4.503   3.302 -0.0156  0.0558 -2.1667
  127MOL    H3530527   2.456   4.333   3.358  1.0816 -0.2822 -0.4503
  127MOL    H3630528   2.162   4.258   3.192  0.4530 -1.7272  4.3474
  127MOL    H3730529   2.285   4.149   3.262  0.7576  1.9710  2.3529
  127MOL    O3830530   2.330   4.141   2.953  0.4267  0.1622 -0.1943
  127MOL    C3930531   2.319   4.075   2.831 -0.4627  0.0993 -0.1378
  127MOL    C4030532   2.232   4.159   2.737  0.7715  0.1029  0.5937
  127MOL    C4130533   2.461   4.060   2.775 -0.0019 -0.0233  0.7874
  127MOL    C4230534   2.550   3.945   2.840 -0.2938 -0.3889  0.2726
  127MOL    O4330535   2.585   3.853   2.767 -0.2676  0.7397 -0.7269
  127MOL    H4430536   2.270   3.979   2.848 -0.6662  0.1652 -0.3481
  127MOL    H4530537   2.211   4.101   2.648 -1.5995  1.6534  0.0989
  127MOL    H4630538   2.287   4.245   2.702  0.5241  0.0594  0.0988
  127MOL    H4730539   2.130   4.190   2.761  0.2701 -1.1320  0.1136
  127MOL    H4830540   2.520   4.151   2.786 -1.6752  1.2311 -0.3115
  127MOL    H4930541   2.460   4.050   2.666  1.6196  0.5998  0.6989
  127MOL    O5030542   2.591   3.967   2.971 -0.3274  0.0239  0.5558
  127MOL    C5130543   2.650   3.862   3.041 -0.2231 -0.2359  0.6196
  127MOL    C5230544   2.794   3.913   3.065  0.0289  0.1346  0.4785
  127MOL    C5330545   2.579   3.839   3.176  0.5312 -0.8479  0.2233
  127MOL    C5430546   2.443   3.780   3.161 -0.1729 -0.4882  0.4823
  127MOL    O5530547   2.391   3.760   3.048  0.1359  0.2444  0.3758
  127MOL    H5630548   2.649   3.773   2.979 -2.0775  0.6146 -0.6355
  127MOL    H5730549   2.842   3.930   2.969 -0.6046  0.2996  0.1831
  127MOL    H5830550   2.860   3.849   3.123 -1.2674 -0.5273  1.2658
  127MOL    H5930551   2.792   4.009   3.118  1.9836  0.4046  0.0741
  127MOL    H6030552   2.581   3.934   3.230 -1.7366 -0.5150 -0.1995
  127MOL    H6130553   2.636   3.774   3.241  0.2310 -0.5614  0.7720
  127MOL    O6230554   2.393   3.752   3.283  0.1923  0.4846  0.3840
  127MOL    C6330555   2.255   3.712   3.305 -0.6877  0.0419 -0.4141
  127MOL    C6430556   2.258   3.650   3.444 -0.6530  0.3435 -0.3473
  127MOL    C6530557   2.170   3.838   3.284  0.9876  0.1676 -0.5740
  127MOL    C6630558   2.015   3.799   3.296  0.4235 -0.7363 -0.3594
  127MOL    O6730559   1.955   3.783   3.402 -0.7766  0.0495  0.0904
  127MOL    H6830560   2.215   3.638   3.236 -1.2291  2.6954 -3.0037
  127MOL    H6930561   2.245   3.724   3.523  3.7322 -0.2838  1.1081
  127MOL    H7030562   2.351   3.596   3.465  0.2558  1.6815 -0.8752
  127MOL    H7130563   2.174   3.580   3.449  1.0003 -1.6124  1.5636
  127MOL    H7230564   2.179   3.886   3.186  1.4286  1.3445  0.0238
  127MOL    H7330565   2.203   3.914   3.355 -0.4505  0.4285 -0.1805
  127MOL    O7430566   1.967   3.760   3.178 -0.0035  0.0103 -0.0615
  127MOL    C7530567   1.833   3.708   3.164  0.3400  0.7625 -0.0985
  127MOL    C7630568   1.747   3.812   3.076 -0.3451 -0.0300  0.1597
  127MOL    C7730569   1.850   3.564   3.110  0.1271 -0.3777  0.1045
  127MOL    C7830570   1.883   3.460   3.215 -0.3409  0.0460 -0.7427
  127MOL    O7930571   1.998   3.406   3.202 -0.3836  0.1125 -0.8402
  127MOL    H8030572   1.785   3.693   3.261 -0.1854 -3.5092 -0.9358
  127MOL    H8130573   1.644   3.786   3.102 -0.6763  0.2300 -0.8628
  127MOL    H8230574   1.767   3.804   2.969  1.1235 -0.2610  0.4355
  127MOL    H8330575   1.763   3.917   3.099 -3.1012  0.2389  1.0661
  127MOL    H8430576   1.922   3.551   3.028  1.2452 -2.7317  1.4213
  127MOL    H8530577   1.752   3.544   3.067  1.0871 -1.2283 -1.7546
  127MOL    O8630578   1.796   3.453   3.316  0.2573 -0.2239 -0.4022
  127MOL    C8730579   1.829   3.363   3.421  0.5788  0.7352 -0.2218
  127MOL    C8830580   1.893   3.451   3.536  0.2811  0.0671 -0.2580
  127MOL    C8930581   1.687   3.302   3.463  0.5520  0.8286 -0.1367
  127MOL    C9030582   1.705   3.181   3.566  0.1471  0.8390 -0.3160
  127MOL    O9130583   1.682   3.185   3.685 -0.2739 -0.5719  0.1172
  127MOL    H9230584   1.899   3.288   3.385 -1.0633 -1.2097  0.5105
  127MOL    H9330585   1.995   3.473   3.507  0.2383  1.7297  0.8065
  127MOL    H9430586   1.889   3.404   3.635 -0.5056  0.1412 -0.2457
  127MOL    H9530587   1.853   3.552   3.550  2.5268  0.8001  1.1106
  127MOL    H9630588   1.648   3.263   3.370  0.8654 -2.3036  0.9688
  127MOL    H9730589   1.608   3.375   3.481 -0.4281 -0.4179  0.7448
  127MOL    O9830590   1.762   3.068   3.505 -0.3816 -0.7583 -0.0061
  127MOL    C9930591   1.838   2.972   3.585  0.1524 -0.7118 -0.2620
  127MOL   C10030592   1.840   2.854   3.492  0.6057  0.4018  0.0778
  127MOL   C10130593   1.985   3.028   3.626  0.5414  0.2172  0.4619
  127MOL   C10230594   2.056   2.934   3.721  0.4115  0.2117  0.5643
  127MOL   O10330595   2.009   2.832   3.756  0.0222 -0.2100 -0.4053
  127MOL   H10430596   1.772   2.958   3.671 -1.0783  0.9817 -0.8956
  127MOL   H10530597   1.746   2.840   3.438 -0.4294  2.2308  1.3805
  127MOL   H10630598   1.852   2.767   3.557  0.8464 -0.2884 -0.8623
  127MOL   H10730599   1.918   2.860   3.416  1.6334  0.5655  1.1381
  127MOL   H10830600   1.968   3.120   3.681 -0.1056 -1.1088  2.5102
  127MOL   H10930601   2.045   3.053   3.538 -0.3266 -0.2498 -0.2760
  127MOL   O11030602   2.180   2.974   3.762 -0.1330 -0.0356  0.2984
  127MOL   C11130603   2.264   2.906   3.863 -0.8351 -0.2593  0.6950
  127MOL   C11230604   2.374   2.849   3.766  0.0840 -0.2013  0.6677
  127MOL   C11330605   2.329   3.010   3.959  0.6340  0.3882 -0.0991
  127MOL   C11430606   2.219   3.064   4.054 -0.1475  0.4295 -0.3421
  127MOL   O11530607   2.122   3.131   4.019 -0.0541  0.0858 -0.6783
  127MOL   H11630608   2.206   2.829   3.914 -2.6089 -0.5006 -1.5807
  127MOL   H11730609   2.439   2.921   3.719 -1.6109 -0.0227 -1.4676
  127MOL   H11830610   2.334   2.784   3.688 -0.0582 -0.4507  0.9459
  127MOL   H11930611   2.441   2.788   3.827 -0.4483 -1.4630  0.0120
  127MOL   H12030612   2.376   3.099   3.918  1.1348 -0.4602 -1.3676
  127MOL   H12130613   2.416   2.971   4.012  0.1400  1.4944  1.5797
  127MOL   O12230614   2.251   3.033   4.183 -0.1250  0.6630 -0.0863
  127MOL   C12330615   2.155   3.046   4.284  0.3507  0.4620  0.4212
  127MOL   C12430616   2.153   2.906   4.350 -0.0198 -0.3274  0.9283
  127MOL   C12530617   2.193   3.154   4.391 -0.2366  0.0638 -0.3562
  127MOL   C12630618   2.161   3.295   4.336 -0.1005 -0.9222 -0.4619
  127MOL   O12730619   2.254   3.383   4.327  0.6079  0.2089  0.5380
  127MOL   H12830620   2.054   3.067   4.249 -0.4532  1.3278  3.1117
  127MOL   H12930621   2.106   2.910   4.448  1.6939 -2.7193  1.8692
  127MOL   H13030622   2.251   2.864   4.373  0.0472 -1.8763 -1.9225
  127MOL   H13130623   2.105   2.834   4.284 -0.2556  0.2046  0.5073
  127MOL   H13230624   2.299   3.138   4.410 -0.7361 -0.5222  2.1561
  127MOL   H13330625   2.133   3.135   4.479  0.0171 -1.4764 -0.5000
  127MOL   O13430626   2.040   3.303   4.296  0.3110 -0.3313 -0.0133
  127MOL   C13530627   1.995   3.419   4.243 -0.3752 -0.1518 -0.5394
  127MOL   C13630628   1.894   3.382   4.126  0.2069  0.0268  0.4779
  127MOL   C13730629   1.936   3.509   4.350  0.1578 -0.0862 -0.1419
  127MOL   C13830630   1.852   3.636   4.317 -0.5906 -0.0576  0.4807
  127MOL   O13930631   1.738   3.658   4.359  0.3690  0.1861 -0.8510
  127MOL   H14030632   2.067   3.480   4.189 -1.1823 -0.1411 -1.6265
  127MOL   H14130633   1.799   3.343   4.161 -0.1217  1.2998  1.0353
  127MOL   H14230634   1.949   3.310   4.066 -1.8737 -1.1826 -0.0012
  127MOL   H14330635   1.873   3.468   4.062 -0.3271 -0.3776  0.1005
  127MOL   H14430636   2.009   3.538   4.425 -0.6609 -0.1458  0.6964
  127MOL   H14530637   1.873   3.444   4.411 -0.2638  2.5812  2.3576
  127MOL   O14630638   1.924   3.718   4.231 -0.2094  0.2470 -0.0748
  127MOL   C14730639   1.879   3.855   4.212 -0.4031 -0.2916 -0.6077
  127MOL   C14830640   1.973   3.938   4.310  0.1871 -0.6919  0.3685
  127MOL   C14930641   1.888   3.889   4.065 -0.6085  0.2126 -0.2298
  127MOL   C15030642   1.772   3.838   3.987 -0.1392  0.3451 -0.7171
  127MOL   O15130643   1.686   3.912   3.948 -0.1207  0.8912  0.1410
  127MOL   H15230644   1.774   3.872   4.237  0.6663  2.1480  2.4641
  127MOL   H15330645   1.954   3.937   4.417  0.6457  0.0035  0.4595
  127MOL   H15430646   1.953   4.039   4.277  0.2414 -1.3805 -1.8877
  127MOL   H15530647   2.081   3.927   4.300  0.2328  0.0466  0.0120
  127MOL   H15630648   1.977   3.853   4.015 -0.0296 -1.0493  1.6585
  127MOL   H15730649   1.871   3.995   4.043 -2.2143  0.3219  1.3440
  127MOL   O15830650   1.763   3.700   3.977  0.1013 -0.2180  0.5403
  127MOL   C15930651   1.661   3.636   3.895  0.5024  0.2172  0.4425
  127MOL   C16030652   1.739   3.602   3.766  0.0089  0.0122 -0.0057
  127MOL   C16130653   1.595   3.514   3.960 -0.4544 -0.0672  0.3520
  127MOL   C16230654   1.547   3.535   4.103  0.1466  0.1056  0.1958
  127MOL   O16330655   1.564   3.451   4.190  0.4122 -0.1880 -0.2797
  127MOL   H16430656   1.579   3.701   3.864  0.7784  0.6208  0.5532
  127MOL   H16530657   1.832   3.556   3.800 -1.2237 -2.6100 -0.0734
  127MOL   H16630658   1.764   3.692   3.709  1.0965 -0.9657 -1.0920
  127MOL   H16730659   1.698   3.527   3.699  0.5428 -1.7741  1.6355
  127MOL   H16830660   1.672   3.438   3.969 -0.8344 -0.4886  0.0629
  127MOL   H16930661   1.520   3.478   3.889 -0.1875  2.3242 -1.2094
  127MOL   O17030662   1.477   3.641   4.110  0.1188 -0.4055  0.0846
  127MOL   C17130663   1.422   3.687   4.236 -0.0714  0.1559 -0.6912
  127MOL   C17230664   1.422   3.837   4.233 -0.0383  0.2230  0.0720
  127MOL   C17330665   1.277   3.628   4.239  0.2405 -0.1314 -0.3234
  127MOL   C17430666   1.200   3.662   4.372  0.3025 -0.3992  0.2157
  127MOL   O17530667   1.087   3.719   4.371  0.3152  1.0817 -0.3468
  127MOL   H17630668   1.479   3.641   4.316 -2.5829 -1.3130  0.3326
  127MOL   H17730669   1.368   3.876   4.146  0.3675  0.3234 -0.1376
  127MOL   H17830670   1.521   3.881   4.229  0.1056 -0.2186 -1.9059
  127MOL   H17930671   1.365   3.873   4.319 -0.7454  2.1845 -1.1821
  127MOL   H18030672   1.265   3.523   4.212  1.9952 -1.2763  3.0005
  127MOL   H18130673   1.225   3.679   4.158  2.6941  0.2254 -1.6937
  127MOL   O18230674   1.267   3.627   4.484 -0.0484  0.3086  0.2667
  127MOL   C18330675   1.236   3.691   4.608  0.3613 -0.5404  0.0332
  127MOL   C18430676   1.184   3.588   4.702  0.0695 -0.8451  0.0400
  127MOL   C18530677   1.351   3.789   4.654  0.1370  0.3250  0.0090
  127MOL   C18630678   1.469   3.720   4.730  0.0334  0.4438  0.3620
  127MOL   O18730679   1.510   3.774   4.831 -0.2603 -0.3407  0.4342
  127MOL   H18830680   1.150   3.758   4.610 -0.6989 -1.9047  0.8582
  127MOL   H18930681   1.136   3.637   4.787  2.1110 -1.1384  1.4099
  127MOL   H19030682   1.253   3.515   4.746 -0.2049  0.2790  2.4065
  127MOL   H19130683   1.104   3.532   4.653 -0.8801 -0.0827  0.7016
  127MOL   H19230684   1.318   3.850   4.738 -0.1333  1.2459 -0.7547
  127MOL   H19330685   1.378   3.861   4.577 -1.7919  1.8535  0.7354
  127MOL   O19430686   1.521   3.605   4.667  0.0114 -0.2330 -0.5564
  127MOL   C19530687   1.627   3.530   4.736  0.8305 -0.9054  0.0429
  127MOL   C19630688   1.545   3.438   4.829 -0.5412  0.0566 -0.1922
  127MOL   C19730689   1.708   3.455   4.630 -0.1458 -0.2873 -0.3128
  127MOL   C19830690   1.842   3.400   4.695  0.4342 -0.2489 -0.3517
  127MOL   O19930691   1.869   3.280   4.706 -0.3739  0.0719  0.3582
  127MOL   H20030692   1.684   3.597   4.800  1.1440 -0.2309 -0.9410
  127MOL   H20130693   1.621   3.389   4.889  0.6305 -0.4878 -2.0666
  127MOL   H20230694   1.484   3.366   4.775 -2.3918 -0.6301  2.7095
  127MOL   H20330695   1.482   3.488   4.902  0.8790  0.7295  0.5975
  127MOL   H20430696   1.730   3.520   4.545 -0.0579  2.1761  1.5325
  127MOL   H20530697   1.647   3.368   4.604 -1.8254  1.5793 -2.8739
  127MOL   O20630698   1.928   3.503   4.728  0.5204  0.2584 -0.4101
  127MOL   C20730699   2.059   3.469   4.771 -0.2566  0.1368  0.1953
  127MOL   C20830700   2.170   3.451   4.663  0.4132 -0.1045  0.6782
  127MOL   C20930701   2.090   3.579   4.873 -0.7100  0.5892 -0.7070
  127MOL   C21030702   2.177   3.534   4.991  0.0950  0.2016 -0.2423
  127MOL   O21130703   2.286   3.491   4.960  0.5472 -0.4162  0.2102
  127MOL   H21230704   2.057   3.379   4.832  0.0109 -0.5429 -0.7766
  127MOL   H21330705   2.136   3.371   4.597  0.3774  0.1746  0.3550
  127MOL   H21430706   2.270   3.436   4.704  0.4481  1.7300  1.3025
  127MOL   H21530707   2.175   3.541   4.602 -1.5799  0.1360  0.8539
  127MOL   H21630708   2.001   3.627   4.914 -0.4069  0.4788  0.0822
  127MOL   H21730709   2.150   3.656   4.825  0.9160  0.1720  0.6304
  127MOL   O21830710   2.122   3.536   5.108  0.2946  0.1645 -0.7257
  127MOL   C21930711   2.193   3.506   5.228 -0.7238 -0.2744  0.5966
  127MOL   C22030712   2.129   3.582   5.338  0.5084  0.5488 -0.1713
  127MOL   C22130713   2.203   3.352   5.258  0.4275 -0.2636 -0.4343
  127MOL   C22230714   2.065   3.277   5.273 -0.5285 -0.0400  0.5401
  127MOL   O22330715   2.002   3.274   5.379  0.3405 -0.1852 -0.3225
  127MOL   H22430716   2.297   3.540   5.224 -0.2980 -1.4005  1.4063
  127MOL   H22530717   2.037   3.529   5.364  1.0447  0.7359  2.1758
  127MOL   H22630718   2.117   3.688   5.313  1.0473  0.0830 -2.5114
  127MOL   H22730719   2.182   3.566   5.432  0.0554 -1.0271 -0.1685
  127MOL   H22830720   2.274   3.333   5.338  0.3493  1.5313  0.0701
  127MOL   H22930721   2.249   3.297   5.177  1.9557  0.6395 -0.1895
  127MOL   O23030722   2.025   3.234   5.157 -0.3848  0.4372  0.3227
  127MOL   C23130723   1.906   3.163   5.145  0.0265  0.5191 -0.1666
  127MOL   C23230724   1.813   3.250   5.062 -0.1661  0.7852 -0.3422
  127MOL   C23330725   1.923   3.025   5.085 -0.5843  0.4734 -0.1768
  127MOL   C23430726   1.980   2.933   5.187 -0.2205 -0.5091 -0.8470
  127MOL   O23530727   2.055   2.849   5.145  0.0477 -0.2024 -0.0345
  127MOL   H23630728   1.866   3.139   5.244 -1.5732  0.0471 -0.9138
  127MOL   H23730729   1.862   3.265   4.966 -0.3193  0.8494 -0.4102
  127MOL   H23830730   1.807   3.347   5.110 -2.5942  0.6229 -0.2199
  127MOL   H23930731   1.710   3.212   5.055 -0.2398  0.5851  1.6933
  127MOL   H24030732   1.979   3.026   4.991  0.8256  1.4602  0.6639
  127MOL   H24130733   1.823   2.982   5.072 -0.3994  0.0642 -0.2650
  127MOL   H24230734   1.956   2.940   5.293  0.6216 -0.3825 -0.6593
  128MOL     O130735   4.697   0.773   4.221  0.2561  0.5486  0.0038
  128MOL     C230736   4.557   0.764   4.251  0.2685  0.5281  0.4539
  128MOL     C330737   4.533   0.713   4.386 -0.0121  0.4527  0.2473
  128MOL     C430738   4.482   0.901   4.234  0.2792 -0.0363  0.3050
  128MOL     C530739   4.328   0.892   4.216 -0.0848 -0.2899 -0.5069
  128MOL     O630740   4.281   0.840   4.117  0.0027 -0.4653 -0.3408
  128MOL     H730741   4.506   0.688   4.192 -1.8118  1.0750  1.5201
  128MOL     H830742   4.426   0.708   4.409 -0.0110  0.0559  0.1537
  128MOL     H930743   4.593   0.763   4.462 -1.2070  1.5538  0.4908
  128MOL    H1030744   4.587   0.619   4.389  1.4757  1.3093  1.5510
  128MOL    H1130745   4.526   0.948   4.146  0.3725 -1.5181 -0.4495
  128MOL    H1230746   4.504   0.960   4.323 -1.4866  0.6501  0.3130
  128MOL    H1330747   4.707   0.744   4.131 -0.1878  0.9163 -0.1630
  128MOL    O1430748   4.261   0.951   4.318 -0.4803  0.0387  0.2854
  128MOL    C1530749   4.120   0.946   4.323  0.4213 -0.1781  0.3751
  128MOL    C1630750   4.054   0.807   4.354 -0.6068 -0.0816  0.1300
  128MOL    C1730751   4.082   1.050   4.435 -0.0629  0.7249  0.2708
  128MOL    C1830752   4.109   1.201   4.402 -0.7540  0.1892  0.3278
  128MOL    O1930753   4.093   1.250   4.290 -0.5571 -0.1126 -0.2311
  128MOL    H2030754   4.097   0.987   4.225  0.0012  2.0446  1.3673
  128MOL    H2130755   4.106   0.750   4.432 -0.4929 -0.9729 -0.5930
  128MOL    H2230756   4.053   0.733   4.274  3.1037 -1.4229  1.2118
  128MOL    H2330757   3.950   0.823   4.382 -0.4833 -0.9346  1.1429
  128MOL    H2430758   4.141   1.007   4.515  0.8727 -0.8631 -1.2462
  128MOL    H2530759   3.982   1.039   4.477  0.1562  0.2788  0.6649
  128MOL    O2630760   4.148   1.270   4.510  0.1927 -0.1529 -0.1040
  128MOL    C2730761   4.175   1.409   4.494  0.8782  0.1257 -0.0069
  128MOL    C2830762   4.060   1.502   4.560  0.2592 -0.8050  0.0615
  128MOL    C2930763   4.318   1.441   4.548 -0.1548 -0.2274 -0.4908
  128MOL    C3030764   4.427   1.374   4.465  0.4958  0.3752 -0.2011
  128MOL    O3130765   4.528   1.326   4.518  0.4024 -0.2745  0.0781
  128MOL    H3230766   4.174   1.437   4.389 -2.5414  0.0974 -0.0578
  128MOL    H3330767   4.048   1.481   4.666 -1.2591 -0.0803  0.0400
  128MOL    H3430768   3.968   1.488   4.503  0.4581  1.1938 -0.7930
  128MOL    H3530769   4.090   1.607   4.561  2.2292 -1.3284 -0.2306
  128MOL    H3630770   4.318   1.408   4.651  2.6645  1.7720  0.2154
  128MOL    H3730771   4.335   1.549   4.553  0.4840 -0.2321 -2.1560
  128MOL    O3830772   4.402   1.373   4.330 -0.2887  0.4023  0.4234
  128MOL    C3930773   4.494   1.311   4.238  0.3089 -0.0358 -0.3126
  128MOL    C4030774   4.403   1.263   4.119  0.2217  0.4273 -0.6188
  128MOL    C4130775   4.598   1.407   4.184 -0.2987 -0.1120  0.1767
  128MOL    C4230776   4.721   1.334   4.124 -0.0650 -0.2219 -0.1332
  128MOL    O4330777   4.737   1.328   4.000 -0.3277 -0.0272 -0.1018
  128MOL    H4430778   4.534   1.218   4.278  0.2137  0.4829  1.0370
  128MOL    H4530779   4.316   1.209   4.157  0.7250  0.1052  0.0832
  128MOL    H4630780   4.462   1.201   4.051  0.4407  1.1450 -1.0902
  128MOL    H4730781   4.361   1.344   4.061 -0.8452  0.7436  0.5785
  128MOL    H4830782   4.617   1.471   4.270  1.9466 -1.2852  0.5783
  128MOL    H4930783   4.544   1.458   4.104  1.7060 -2.2272 -2.6399
  128MOL    O5030784   4.794   1.271   4.222  0.3469 -0.2025 -0.2056
  128MOL    C5130785   4.900   1.189   4.175  0.2880 -1.1497  0.0572
  128MOL    C5230786   4.994   1.177   4.296 -0.4510 -0.2974  0.1106
  128MOL    C5330787   4.853   1.054   4.107 -0.4441 -0.1450 -0.6384
  128MOL    C5430788   4.819   1.052   3.958  0.3139 -0.5831 -0.0392
  128MOL    O5530789   4.699   1.031   3.922 -0.4184 -0.0484 -0.5880
  128MOL    H5630790   4.959   1.238   4.098  0.0149 -0.2409  0.4182
  128MOL    H5730791   5.085   1.122   4.270 -0.2785 -0.1193  0.3382
  128MOL    H5830792   4.954   1.121   4.381 -1.5310 -0.9404 -0.8041
  128MOL    H5930793   5.023   1.279   4.322  1.5084 -0.7202 -0.3403
  128MOL    H6030794   4.777   1.010   4.171 -1.0875  1.2942 -0.3939
  128MOL    H6130795   4.929   0.976   4.108 -0.1750  0.1141  0.9534
  128MOL    O6230796   4.930   1.065   3.873 -0.0203 -0.4295  0.2315
  128MOL    C6330797   4.913   1.089   3.739 -0.5161 -0.0118 -1.2029
  128MOL    C6430798   4.856   1.228   3.719  0.4344  0.0261  0.6316
  128MOL    C6530799   5.046   1.061   3.675  0.5187 -0.2484  0.4539
  128MOL    C6630800   5.034   1.067   3.522  0.4469 -0.7909 -0.7753
  128MOL    O6730801   5.055   1.176   3.468  0.2549  0.0071 -0.0235
  128MOL    H6830802   4.840   1.017   3.703 -1.0797  0.5281 -1.1410
  128MOL    H6930803   4.903   1.305   3.780 -1.2049  1.2111  0.4142
  128MOL    H7030804   4.751   1.230   3.746  0.3253 -0.9609  0.3321
  128MOL    H7130805   4.869   1.264   3.617 -1.5746  0.7337  0.6086
  128MOL    H7230806   5.075   0.958   3.700  2.3814  0.0144 -0.4846
  128MOL    H7330807   5.123   1.130   3.710  0.7070  0.4114 -1.2387
  128MOL    O7430808   5.011   0.946   3.467  0.2326 -0.3282 -0.9363
  128MOL    C7530809   5.029   0.937   3.329  0.1169 -0.0816  0.4221
  128MOL    C7630810   5.038   0.785   3.317 -0.0863 -0.7198 -0.1317
  128MOL    C7730811   4.910   0.991   3.252  0.2829 -0.4851 -0.0311
  128MOL    C7830812   4.917   0.981   3.095 -0.3488 -0.4052 -0.4708
  128MOL    O7930813   5.016   0.949   3.035 -0.6499  0.0544 -0.4637
  128MOL    H8030814   5.123   0.990   3.310 -0.0818 -0.1693 -0.7956
  128MOL    H8130815   5.114   0.745   3.385 -0.1367 -1.7240 -0.6565
  128MOL    H8230816   5.068   0.763   3.214  0.5210  1.2703 -0.4048
  128MOL    H8330817   4.945   0.734   3.341 -0.0269 -1.0869 -0.6824
  128MOL    H8430818   4.907   1.098   3.277 -2.1812 -0.2582 -1.1531
  128MOL    H8530819   4.818   0.944   3.285 -0.6384  1.3633  0.1297
  128MOL    O8630820   4.794   1.014   3.032  0.2628 -0.1669  0.5946
  128MOL    C8730821   4.795   1.013   2.885  0.4694 -0.3748  0.3046
  128MOL    C8830822   4.676   0.925   2.835  0.1035  0.1201  0.7198
  128MOL    C8930823   4.797   1.154   2.823 -0.4416 -0.3718 -0.1626
  128MOL    C9030824   4.673   1.233   2.858  0.0734 -0.4133  0.0273
  128MOL    O9130825   4.561   1.189   2.840  0.0106 -0.8501  0.4176
  128MOL    H9230826   4.882   0.961   2.845 -0.7517 -1.8127 -0.5600
  128MOL    H9330827   4.688   0.821   2.865 -0.9508 -0.5094 -1.0176
  128MOL    H9430828   4.683   0.927   2.727  1.9857  3.4183  0.8360
  128MOL    H9530829   4.577   0.952   2.873 -1.1249 -0.0027 -2.3105
  128MOL    H9630830   4.800   1.135   2.716 -2.7086  1.4797 -0.5956
  128MOL    H9730831   4.881   1.208   2.866 -1.8462 -0.7547  3.2581
  128MOL    O9830832   4.707   1.358   2.896  0.5745  0.0950 -0.4212
  128MOL    C9930833   4.610   1.461   2.907  0.8000  0.8544 -0.6504
  128MOL   C10030834   4.509   1.440   3.026 -0.7532 -0.0058 -0.3470
  128MOL   C10130835   4.669   1.605   2.898 -0.3834  0.1713  0.9291
  128MOL   C10230836   4.767   1.645   3.005 -0.0180  0.0912  0.0840
  128MOL   O10330837   4.876   1.688   2.976  0.3087  0.0382 -0.0368
  128MOL   H10430838   4.563   1.464   2.809  1.1133 -2.0664 -0.9364
  128MOL   H10530839   4.462   1.343   3.014 -1.1211  0.0539  0.5059
  128MOL   H10630840   4.417   1.498   3.017 -0.5398 -0.1508 -3.8220
  128MOL   H10730841   4.560   1.435   3.123 -0.9228 -1.5172 -0.3383
  128MOL   H10830842   4.587   1.672   2.873 -1.7998 -2.0025 -0.4622
  128MOL   H10930843   4.728   1.615   2.807 -0.0128  1.5089  1.3139
  128MOL   O11030844   4.715   1.641   3.121 -0.0749 -0.3119  1.1156
  128MOL   C11130845   4.779   1.682   3.235  0.3837 -0.4695 -0.6370
  128MOL   C11230846   4.691   1.792   3.302  0.2040  0.1402 -0.0255
  128MOL   C11330847   4.792   1.557   3.321  0.1452 -0.4443  0.1515
  128MOL   C11430848   4.887   1.555   3.436  0.1951  0.6206 -0.3849
  128MOL   O11530849   4.841   1.510   3.541  0.0454 -0.1798  0.2481
  128MOL   H11630850   4.880   1.713   3.209  0.0804 -0.2347 -1.5548
  128MOL   H11730851   4.598   1.749   3.338  0.2263 -0.2892 -0.4788
  128MOL   H11830852   4.672   1.874   3.233 -0.4766  0.5303  0.6246
  128MOL   H11930853   4.751   1.830   3.385  0.9416  1.9109 -1.3305
  128MOL   H12030854   4.822   1.465   3.270  0.5642  0.6101 -1.5375
  128MOL   H12130855   4.691   1.538   3.357 -0.4124  0.2869 -0.9720
  128MOL   O12230856   5.008   1.601   3.412  0.4965 -0.0221  0.3240
  128MOL   C12330857   5.102   1.603   3.526  0.3970  0.6489  0.2772
  128MOL   C12430858   5.202   1.488   3.494 -0.0061 -0.1287 -0.2481
  128MOL   C12530859   5.177   1.742   3.520 -0.2302 -0.7857  0.6547
  128MOL   C12630860   5.266   1.765   3.644 -0.8329  0.6061  0.2311
  128MOL   O12730861   5.230   1.844   3.735 -0.6202 -0.1964  0.5247
  128MOL   H12830862   5.062   1.584   3.626 -0.2353  2.0107  0.2981
  128MOL   H12930863   5.161   1.387   3.501  3.2974 -1.7620 -3.0899
  128MOL   H13030864   5.280   1.483   3.570  0.7600 -2.3189 -1.1517
  128MOL   H13130865   5.259   1.498   3.402  3.4736 -0.3099  1.7812
  128MOL   H13230866   5.104   1.823   3.525  0.1633 -0.3403 -0.6364
  128MOL   H13330867   5.245   1.746   3.434 -1.2107  2.9902 -0.0304
  128MOL   O13430868   5.379   1.698   3.646 -0.1168 -0.2613 -0.5163
  128MOL   C13530869   5.479   1.717   3.743  0.4582  0.2951  0.2893
  128MOL   C13630870   5.506   1.584   3.805  0.1374  0.4319  0.2741
  128MOL   C13730871   5.608   1.758   3.668  0.2907 -0.3175  0.6539
  128MOL   C13830872   5.716   1.835   3.752 -0.3866 -0.1154 -0.5270
  128MOL   O13930873   5.704   1.960   3.777  0.5122  0.1263  0.1394
  128MOL   H14030874   5.453   1.799   3.809 -1.2501 -1.1724  1.4879
  128MOL   H14130875   5.422   1.568   3.873  0.5164 -0.8951  0.4579
  128MOL   H14230876   5.599   1.588   3.862  1.4622  0.5165 -1.8285
  128MOL   H14330877   5.522   1.500   3.737  1.1903  0.6087  0.2988
  128MOL   H14430878   5.583   1.834   3.594  0.2431 -0.8613  0.1065
  128MOL   H14530879   5.652   1.682   3.604 -0.3460 -0.3374  0.2330
  128MOL   O14630880   5.821   1.761   3.772 -0.6808  0.1056  0.3018
  128MOL   C14730881   5.938   1.792   3.852 -0.1294 -0.2498  0.1142
  128MOL   C14830882   5.892   1.759   3.993 -0.6963  0.0602  0.1036
  128MOL   C14930883   6.054   1.698   3.802 -0.3435  0.0387  0.1091
  128MOL   C15030884   6.186   1.718   3.883  0.0446  0.2277  0.6287
  128MOL   O15130885   6.259   1.624   3.909  0.1874  0.3485  0.0271
  128MOL   H15230886   5.961   1.898   3.838  1.2532 -0.0544  3.4083
  128MOL   H15330887   5.969   1.797   4.060  0.0239  0.6168 -1.0095
  128MOL   H15430888   5.879   1.652   4.008  1.9513 -0.1360  1.2213
  128MOL   H15530889   5.803   1.811   4.030 -0.5241 -0.1073  0.7473
  128MOL   H15630890   6.086   1.727   3.702  0.0159  1.0958  0.5313
  128MOL   H15730891   6.025   1.593   3.793 -0.4917 -0.0506  1.4848
  128MOL   O15830892   6.212   1.853   3.915  0.4477 -0.5630 -0.6010
  128MOL   C15930893   6.318   1.891   4.006  0.5341 -0.3018 -0.2014
  128MOL   C16030894   6.446   1.910   3.919  0.2713 -0.2042 -0.2603
  128MOL   C16130895   6.282   2.021   4.086  0.5391  0.2188 -0.7896
  128MOL   C16230896   6.341   2.023   4.228  0.0236 -0.2178 -0.0099
  128MOL   O16330897   6.281   1.971   4.322 -0.0180  0.0398 -0.3757
  128MOL   H16430898   6.338   1.807   4.072 -1.2059 -0.2619  0.4136
  128MOL   H16530899   6.474   1.824   3.858 -0.8042 -0.7264 -0.0191
  128MOL   H16630900   6.530   1.926   3.987 -0.8938  0.3436  1.0537
  128MOL   H16730901   6.441   2.002   3.862 -2.4920 -0.0487  0.1906
  128MOL   H16830902   6.173   2.029   4.086  0.5755  0.7821  0.6362
  128MOL   H16930903   6.315   2.112   4.036 -2.3071  1.2010 -0.9559
  128MOL   O17030904   6.463   2.079   4.235  0.0721 -0.2862  0.3031
  128MOL   C17130905   6.532   2.107   4.352  0.0531  0.2208 -0.5279
  128MOL   C17230906   6.602   1.976   4.394 -0.2040 -0.1616 -0.0831
  128MOL   C17330907   6.628   2.226   4.328  0.3623 -0.3411  0.3003
  128MOL   C17430908   6.679   2.278   4.467 -0.5163  0.8409 -0.6309
  128MOL   O17530909   6.799   2.314   4.480 -0.1407 -0.7239  0.2425
  128MOL   H17630910   6.459   2.133   4.428  0.8338  0.1799  0.2481
  128MOL   H17730911   6.661   1.936   4.312 -0.4392 -3.1620  1.1675
  128MOL   H17830912   6.538   1.903   4.444  1.0650 -0.1898  1.5660
  128MOL   H17930913   6.670   1.996   4.477  0.1272  2.2274 -0.8914
  128MOL   H18030914   6.586   2.308   4.271  0.7832 -1.1556 -1.2074
  128MOL   H18130915   6.710   2.185   4.270  1.0323  0.2720  0.8053
  128MOL   O18230916   6.594   2.259   4.573  0.4699 -0.1726  0.1529
  128MOL   C18330917   6.615   2.304   4.703  0.2936 -0.1731 -0.4905
  128MOL   C18430918   6.633   2.458   4.721 -0.3245  0.1710 -0.4563
  128MOL   C18530919   6.491   2.254   4.782 -0.2369 -0.5501  0.1150
  128MOL   C18630920   6.513   2.121   4.861 -0.5024 -0.4603  0.1472
  128MOL   O18730921   6.496   2.099   4.980  0.4058  0.4795  0.8248
  128MOL   H18830922   6.709   2.265   4.740  0.1118 -0.0944  0.0581
  128MOL   H18930923   6.719   2.496   4.665 -1.2468 -0.2069 -2.1435
  128MOL   H19030924   6.651   2.507   4.817 -2.4031  1.3041 -0.6285
  128MOL   H19130925   6.544   2.502   4.677  0.1035  1.0173 -0.5047
  128MOL   H19230926   6.409   2.235   4.713  0.4893 -1.8235 -0.4165
  128MOL   H19330927   6.455   2.333   4.847 -0.9010 -0.2933 -0.5531
  128MOL   O19430928   6.544   2.022   4.772  0.1379  0.4086 -0.5822
  128MOL   C19530929   6.611   1.901   4.814 -0.4667 -0.0109  0.2735
  128MOL   C19630930   6.519   1.793   4.755 -0.4264 -0.3508 -0.3920
  128MOL   C19730931   6.755   1.902   4.769  0.0654  0.7968  0.6128
  128MOL   C19830932   6.841   1.975   4.861 -0.2248  0.5461 -0.3528
  128MOL   O19930933   6.878   2.086   4.838  0.5722  0.3375  0.0711
  128MOL   H20030934   6.602   1.894   4.923 -1.1436  2.8737  0.4492
  128MOL   H20130935   6.557   1.778   4.653 -0.3201  0.2810 -0.4494
  128MOL   H20230936   6.417   1.827   4.770  0.7418  2.1826  2.3204
  128MOL   H20330937   6.532   1.699   4.808 -1.0868  0.0241  0.4352
  128MOL   H20430938   6.767   1.951   4.672  1.5374 -1.3822 -0.3454
  128MOL   H20530939   6.790   1.800   4.751 -0.6864  0.6261  0.0771
  128MOL   O20630940   6.877   1.904   4.970  0.1721  0.4185  0.2508
  128MOL   C20730941   6.961   1.952   5.071 -0.3459  0.4382 -0.1150
  128MOL   C20830942   6.888   1.957   5.206  0.5991 -0.0250  0.0159
  128MOL   C20930943   7.091   1.855   5.069  0.3111 -0.1415  0.0391
  128MOL   C21030944   7.196   1.870   5.184 -0.7901  0.0662 -0.1848
  128MOL   O21130945   7.251   1.763   5.203  0.0973  0.0557 -0.8575
  128MOL   H21230946   6.996   2.053   5.048 -0.2367  0.2207 -0.9052
  128MOL   H21330947   6.837   1.864   5.231  1.6751 -1.2219 -2.0729
  128MOL   H21430948   6.815   2.038   5.205 -0.4001 -0.9190 -0.0474
  128MOL   H21530949   6.962   1.993   5.277 -0.3104 -0.6547  1.2961
  128MOL   H21630950   7.145   1.883   4.978 -0.7218 -1.1125 -0.8938
  128MOL   H21730951   7.055   1.752   5.071  1.1645 -0.4221  1.2465
  128MOL   O21830952   7.220   1.995   5.241  0.2474  0.1837 -0.4350
  128MOL   C21930953   7.305   2.005   5.351  0.2993 -0.0182 -0.4414
  128MOL   C22030954   7.424   2.088   5.308 -0.6525 -0.2524 -0.7157
  128MOL   C22130955   7.241   2.061   5.474  0.1416  0.8921  0.1939
  128MOL   C22230956   7.228   1.957   5.583  0.4346 -0.0870  0.1738
  128MOL   O22330957   7.326   1.941   5.658 -0.0566  0.6092  0.1949
  128MOL   H22430958   7.353   1.909   5.368  0.8090  0.3924  0.4920
  128MOL   H22530959   7.492   2.108   5.391 -2.3523  1.8966  0.2287
  128MOL   H22630960   7.406   2.185   5.262  3.0495  1.6746  1.6677
  128MOL   H22730961   7.484   2.040   5.232  1.3477  0.5174  0.3508
  128MOL   H22830962   7.140   2.099   5.460 -1.0143 -0.5240  4.0380
  128MOL   H22930963   7.304   2.146   5.500  1.3603  0.0873 -0.0541
  128MOL   O23030964   7.120   1.874   5.564 -0.1123 -0.2020  0.0910
  128MOL   C23130965   7.108   1.753   5.642 -0.6249 -0.2862 -0.3987
  128MOL   C23230966   7.009   1.774   5.749 -0.4021  0.3720  0.3217
  128MOL   C23330967   7.070   1.633   5.547 -0.4796  0.3902 -0.2102
  128MOL   C23430968   6.930   1.616   5.491  1.1277 -0.5533 -0.3618
  128MOL   O23530969   6.897   1.691   5.398 -0.0280 -0.4321 -0.0136
  128MOL   H23630970   7.201   1.719   5.690  0.7076  1.9818 -1.2992
  128MOL   H23730971   7.042   1.848   5.821  0.7502  0.0122  0.1661
  128MOL   H23830972   6.992   1.690   5.816 -0.8758  0.5790  0.4630
  128MOL   H23930973   6.912   1.805   5.708 -0.5239 -0.4550 -0.0330
  128MOL   H24030974   7.102   1.541   5.594  1.1093  1.2205  0.3653
  128MOL   H24130975   7.126   1.627   5.454  0.3557 -0.6335  0.3532
  128MOL   H24230976   6.867   1.541   5.539 -0.3159 -0.0299 -1.4094
  129MOL     O130977   6.127   2.377   7.368 -0.2632 -0.6916 -0.4314
  129MOL     C230978   6.112   2.286   7.473  0.0304  0.3392 -0.2994
  129MOL     C330979   6.047   2.365   7.588  0.3443  0.2614  0.6947
  129MOL     C430980   6.040   2.174   7.417  0.1141 -0.7607 -0.4362
  129MOL     C530981   6.014   2.062   7.521  0.8332 -0.7586  0.0078
  129MOL     O630982   5.908   2.037   7.572  0.4510  0.3668  0.0863
  129MOL     H730983   6.202   2.247   7.519  0.5163  1.7311 -0.0326
  129MOL     H830984   6.027   2.302   7.675 -0.0743 -1.2630 -0.4793
  129MOL     H930985   5.949   2.400   7.555 -0.4523  0.4501  3.1794
  129MOL    H1030986   6.119   2.442   7.614 -0.0480  1.5604 -1.8937
  129MOL    H1130987   6.091   2.141   7.326 -2.2537 -0.5110 -1.9041
  129MOL    H1230988   5.949   2.215   7.372 -1.3204 -0.3315  2.7448
  129MOL    H1330989   6.218   2.401   7.381 -0.4900  0.1582 -0.3766
  129MOL    O1430990   6.132   2.009   7.553 -0.6783  0.3012  0.4331
  129MOL    C1530991   6.134   1.917   7.653 -0.2092  0.1037 -0.2649
  129MOL    C1630992   6.260   1.833   7.628  0.7614 -0.1738  0.4962
  129MOL    C1730993   6.144   1.992   7.785 -0.2673  0.1552 -0.1414
  129MOL    C1830994   6.277   2.065   7.816  0.1658  0.3469 -0.8531
  129MOL    O1930995   6.324   2.147   7.737 -0.6286 -0.1633  0.0953
  129MOL    H2030996   6.039   1.864   7.651 -0.2753  0.1805  0.8953
  129MOL    H2130997   6.280   1.751   7.697  1.1660  0.9207  1.7022
  129MOL    H2230998   6.358   1.878   7.617  1.2216 -0.8822  1.5767
  129MOL    H2330999   6.242   1.764   7.545 -1.1342  1.0075 -0.1028
  129MOL    H2431000   6.139   1.925   7.871 -1.7690  0.1167 -0.2489
  129MOL    H2531001   6.068   2.068   7.798  0.5121  1.1288 -1.2076
  129MOL    O2631002   6.339   2.034   7.934 -0.5012  0.3125  0.0076
  129MOL    C2731003   6.455   2.106   7.972  0.2348  0.7313 -0.2829
  129MOL    C2831004   6.416   2.210   0.096  0.5907  0.3816  0.2208
  129MOL    C2931005   6.541   1.994   0.072  0.4625 -0.4341  0.6011
  129MOL    C3031006   6.614   1.896   7.956 -0.1809 -0.0154  0.2487
  129MOL    O3131007   6.561   1.852   7.850 -0.0588  0.2615 -0.0364
  129MOL    H3231008   6.501   2.152   7.885  0.2088  0.1119 -0.6233
  129MOL    H3331009   6.504   2.267   0.126  0.4923 -0.3877  2.0690
  129MOL    H3431010   6.398   2.177   0.199 -1.0212  0.4517 -0.0342
  129MOL    H3531011   6.341   2.284   0.072  1.1933  0.4358 -1.6039
  129MOL    H3631012   6.471   1.932   0.129 -1.0670 -0.8366 -1.6082
  129MOL    H3731013   6.613   2.042   0.137  0.0440 -0.7593  1.3138
  129MOL    O3831014   6.731   1.862   0.025  0.3591 -0.1115  0.2205
  129MOL    C3931015   6.827   1.789   7.936 -0.8689  0.2615 -0.6782
  129MOL    C4031016   6.928   1.886   7.870 -0.7781 -0.4349 -0.5079
  129MOL    C4131017   6.885   1.706   0.069  0.0557 -0.5754 -0.0976
  129MOL    C4231018   6.805   1.581   0.084  0.6540 -0.1551  0.0966
  129MOL    O4331019   6.829   1.477   0.027 -0.6713  0.1922  0.1063
  129MOL    H4431020   6.774   1.734   7.858 -0.4420 -0.9981 -0.1096
  129MOL    H4531021   6.864   1.961   7.823 -1.0657  0.4709  1.2910
  129MOL    H4631022   6.980   1.834   7.790  1.2893 -0.0679  0.5756
  129MOL    H4731023   7.002   1.925   7.939  0.2995 -2.3812 -0.5380
  129MOL    H4831024   6.896   1.758   0.163  4.5178  0.8980 -1.3120
  129MOL    H4931025   6.985   1.672   0.040  0.4775 -0.6730  1.4217
  129MOL    O5031026   6.693   1.600   0.155 -0.2932 -0.4476  0.0666
  129MOL    C5131027   6.596   1.500   0.175  0.5609 -0.1828 -0.0200
  129MOL    C5231028   6.624   1.431   0.312  0.0945  0.3491  0.0978
  129MOL    C5331029   6.459   1.573   0.157  0.4589  0.1222 -0.6503
  129MOL    C5431030   6.335   1.494   0.155  0.0841  0.5580  0.1301
  129MOL    O5531031   6.322   1.401   0.227  0.5138 -0.2586 -0.5828
  129MOL    H5631032   6.603   1.429   0.093  1.5041  0.4689 -0.5157
  129MOL    H5731033   6.616   1.511   0.386  0.9538 -0.2980  0.9005
  129MOL    H5831034   6.723   1.387   0.318 -0.8633 -1.7295  1.0021
  129MOL    H5931035   6.547   1.355   0.327  0.2241  0.5173  1.7902
  129MOL    H6031036   6.463   1.650   0.079 -1.8271 -0.7403 -1.6807
  129MOL    H6131037   6.450   1.628   0.250  2.5044  0.5321 -0.6920
  129MOL    O6231038   6.243   1.545   0.066  0.3285  0.6910 -0.0850
  129MOL    C6331039   6.108   1.484   0.053 -0.1638  0.4328 -0.2411
  129MOL    C6431040   6.008   1.559   0.139 -0.3749  0.0753  0.2816
  129MOL    C6531041   6.088   1.496   7.878  0.0900 -0.1515 -0.3077
  129MOL    C6631042   5.988   1.393   7.825 -0.1374 -0.1667  0.1885
  129MOL    O6731043   5.945   1.305   7.896 -0.6644  0.7462 -0.1398
  129MOL    H6831044   6.118   1.382   0.089  0.1560  0.7680  0.6427
  129MOL    H6931045   5.992   1.648   0.079  0.8616  0.7696  0.9646
  129MOL    H7031046   6.054   1.580   0.236  0.9138  0.5676 -0.4302
  129MOL    H7131047   5.910   1.511   0.148  0.1806 -1.6180 -2.1965
  129MOL    H7231048   6.186   1.474   7.835 -0.5749 -2.1738 -0.8308
  129MOL    H7331049   6.049   1.591   7.843  0.2152  0.1009  0.2315
  129MOL    O7431050   5.943   1.419   7.697 -0.0505 -0.2464 -0.3609
  129MOL    C7531051   5.841   1.334   7.641  0.1825 -0.1219 -0.4499
  129MOL    C7631052   5.707   1.374   7.695  0.7450 -0.4885  0.3820
  129MOL    C7731053   5.838   1.328   7.494 -0.0332 -0.5577 -0.0472
  129MOL    C7831054   5.934   1.222   7.446 -0.4476 -0.4894  0.3043
  129MOL    O7931055   5.904   1.105   7.463  0.3524  0.9166  0.1670
  129MOL    H8031056   5.872   1.234   7.672 -1.9501  0.0507  2.3935
  129MOL    H8131057   5.696   1.353   7.801  4.0250 -1.9397  0.4920
  129MOL    H8231058   5.625   1.319   7.647 -0.2453  2.3841 -1.3243
  129MOL    H8331059   5.687   1.480   7.684  1.6385 -0.4949 -1.5529
  129MOL    H8431060   5.861   1.430   7.463  3.3289 -0.7690  1.5470
  129MOL    H8531061   5.742   1.307   7.446 -0.8126  0.2489  1.1255
  129MOL    O8631062   6.048   1.263   7.406  0.1267 -0.3238 -0.4088
  129MOL    C8731063   6.141   1.163   7.358  0.4529 -0.1600 -0.1048
  129MOL    C8831064   6.152   1.201   7.205 -0.2386  0.0210  0.1543
  129MOL    C8931065   6.258   1.175   7.458 -0.4408 -0.5084 -0.2975
  129MOL    C9031066   6.364   1.283   7.425 -0.1006  0.2309 -0.1906
  129MOL    O9131067   6.363   1.388   7.486 -0.5151 -0.4887 -0.5647
  129MOL    H9231068   6.112   1.057   7.362  1.7508 -0.4786  1.1157
  129MOL    H9331069   6.049   1.185   7.172  0.7583  0.3402 -3.3619
  129MOL    H9431070   6.204   1.130   7.140 -0.3521 -2.1953  2.4244
  129MOL    H9531071   6.184   1.302   7.180 -0.2879  0.3070  1.2188
  129MOL    H9631072   6.320   1.086   7.451  2.8347  1.6641 -0.0485
  129MOL    H9731073   6.234   1.203   7.561  1.7548  1.8611 -0.3568
  129MOL    O9831074   6.450   1.248   7.333 -0.2597  0.3270  0.4175
  129MOL    C9931075   6.560   1.329   7.293 -0.1095  0.0113 -0.1378
  129MOL   C10031076   6.692   1.263   7.345  0.8716  0.4628 -0.1788
  129MOL   C10131077   6.545   1.340   7.136 -0.1174  0.0301  0.7739
  129MOL   C10231078   6.571   1.224   7.045 -0.5912  0.5225 -0.1363
  129MOL   O10331079   6.643   1.238   6.945 -0.5134 -0.3270 -0.0992
  129MOL   H10431080   6.559   1.433   7.325  1.4058  0.3998 -1.3074
  129MOL   H10531081   6.691   1.161   7.308  0.5876 -0.0699  1.2762
  129MOL   H10631082   6.685   1.261   7.454 -1.0821  1.0566 -0.2645
  129MOL   H10731083   6.778   1.317   7.306 -0.0665  1.3951 -0.9991
  129MOL   H10831084   6.596   1.428   7.099 -0.8131  0.7717  1.5623
  129MOL   H10931085   6.438   1.361   7.126 -0.2467  0.4240  2.6788
  129MOL   O11031086   6.506   1.109   7.077  0.4049 -0.3159  0.4772
  129MOL   C11131087   6.520   0.997   6.991  0.5233  0.7084  0.4494
  129MOL   C11231088   6.525   0.871   7.076 -0.2423  0.5553 -0.0063
  129MOL   C11331089   6.403   0.990   6.886 -0.1714  0.0483 -0.1934
  129MOL   C11431090   6.413   0.887   6.772  1.1496 -0.4014  0.8561
  129MOL   O11531091   6.335   0.786   6.761 -0.3789 -0.1621  0.2013
  129MOL   H11631092   6.609   0.992   6.928 -1.2472  0.5571 -2.0939
  129MOL   H11731093   6.543   0.788   7.007 -1.5472 -0.1619  0.4776
  129MOL   H11831094   6.433   0.848   7.130 -1.1691  0.2368 -1.6834
  129MOL   H11931095   6.612   0.883   7.141 -1.7611 -2.1977  2.7141
  129MOL   H12031096   6.410   1.077   6.821  1.2054  1.6904  2.0571
  129MOL   H12131097   6.306   0.974   6.933  0.3467  0.1158  0.9092
  129MOL   O12231098   6.519   0.903   6.692 -0.3706  0.3692 -0.4574
  129MOL   C12331099   6.535   0.832   6.573 -0.2976  0.0557 -0.3838
  129MOL   C12431100   6.601   0.922   6.470 -0.1669 -0.7747  0.6740
  129MOL   C12531101   6.618   0.709   6.612  0.0218 -0.0862 -0.1606
  129MOL   C12631102   6.641   0.607   6.504 -0.0474  0.2019  0.7656
  129MOL   O12731103   6.733   0.523   6.511 -0.4541  0.1788 -0.0007
  129MOL   H12831104   6.443   0.796   6.527 -1.5303 -0.0628  2.1019
  129MOL   H12931105   6.596   0.876   6.371 -1.2595 -0.1536  0.4330
  129MOL   H13031106   6.698   0.961   6.498  1.2259 -2.9353 -0.9189
  129MOL   H13131107   6.533   1.000   6.437 -0.7768 -1.8902 -0.8098
  129MOL   H13231108   6.570   0.669   6.701 -0.3895 -0.5213 -0.5766
  129MOL   H13331109   6.717   0.736   6.648 -0.7527  0.3145  1.7148
  129MOL   O13431110   6.561   0.613   6.391 -0.4800  0.7717 -0.5379
  129MOL   C13531111   6.601   0.547   6.272 -0.1432  0.3532 -0.1461
  129MOL   C13631112   6.493   0.444   6.243  0.1603  0.7634  0.3275
  129MOL   C13731113   6.615   0.655   6.163 -0.1099 -0.1615  0.9101
  129MOL   C13831114   6.703   0.605   6.050 -0.1212 -0.3959  0.1610
  129MOL   O13931115   6.653   0.533   5.961  0.6234 -0.4433 -0.9151
  129MOL   H14031116   6.697   0.496   6.282 -0.3664 -0.3629 -1.5659
  129MOL   H14131117   6.397   0.490   6.222  0.3149  1.4435  1.0901
  129MOL   H14231118   6.489   0.367   6.320 -0.2177  0.6309  0.1773
  129MOL   H14331119   6.528   0.413   6.145  0.2587 -0.8977  0.8660
  129MOL   H14431120   6.654   0.749   6.203 -0.9632  0.9176 -0.7536
  129MOL   H14531121   6.514   0.671   6.126  0.2450  1.5150  0.6117
  129MOL   O14631122   6.826   0.657   6.053 -0.0288  0.5194  0.0147
  129MOL   C14731123   6.921   0.609   5.964  0.2408  0.2636 -0.4411
  129MOL   C14831124   6.909   0.688   5.830 -0.2170 -0.2262 -0.5564
  129MOL   C14931125   7.066   0.614   6.029 -0.2932  0.5488 -0.0449
  129MOL   C15031126   7.115   0.487   6.093 -0.7359  0.7421  0.4975
  129MOL   O15131127   7.183   0.410   6.020 -0.0131  0.0199 -0.4548
  129MOL   H15231128   6.904   0.505   5.937  0.6663  0.2745 -0.7693
  129MOL   H15331129   6.960   0.635   5.750  1.4981  0.0435  0.3362
  129MOL   H15431130   6.958   0.783   5.852 -1.2860  0.2804 -0.3361
  129MOL   H15531131   6.811   0.706   5.787 -0.4165 -1.9277 -0.8247
  129MOL   H15631132   7.088   0.704   6.086  1.3007  0.8868 -1.1502
  129MOL   H15731133   7.138   0.626   5.948  1.5246 -0.2078  1.4200
  129MOL   O15831134   7.087   0.469   6.223  0.3505  0.0429 -0.1055
  129MOL   C15931135   7.099   0.345   6.278  0.4904 -0.0168 -0.1674
  129MOL   C16031136   7.227   0.350   6.368  0.2366 -0.3614  0.2389
  129MOL   C16131137   6.978   0.316   6.365 -0.8502 -0.0423  0.1578
  129MOL   C16231138   6.954   0.181   6.430  0.1155  0.5059  0.3089
  129MOL   O16331139   7.043   0.092   6.434 -0.2991  0.0168  0.2174
  129MOL   H16431140   7.112   0.267   6.203  0.7830  0.6058 -0.7725
  129MOL   H16531141   7.307   0.380   6.300  1.8730 -0.6786  1.9899
  129MOL   H16631142   7.249   0.251   6.409 -0.8288  0.0109  1.7530
  129MOL   H16731143   7.209   0.429   6.440  1.7645  0.6114 -0.4437
  129MOL   H16831144   6.898   0.352   6.301 -0.5277 -1.5343 -1.0911
  129MOL   H16931145   6.970   0.394   6.442  0.4542 -1.6493  1.9694
  129MOL   O17031146   6.832   0.182   6.479  0.3920 -0.5801 -0.4976
  129MOL   C17131147   6.779   0.053   6.525 -0.4598 -0.1835 -0.2067
  129MOL   C17231148   6.819   0.024   6.665 -0.5043 -0.2864  0.6767
  129MOL   C17331149   6.631   0.069   6.509 -0.3244 -0.7231 -0.0828
  129MOL   C17431150   6.553   7.922   6.508  0.2511  0.3394 -0.1480
  129MOL   O17531151   6.442   7.921   6.557 -0.1326  0.2410  0.0329
  129MOL   H17631152   6.822   7.962   6.453  2.1368  0.1529  0.9517
  129MOL   H17731153   6.792   7.903   6.697  0.4099 -0.6150  0.4312
  129MOL   H17831154   6.796   0.106   6.733  1.1198 -0.1771  1.1116
  129MOL   H17931155   6.927   0.013   6.677 -0.4094  2.0779  2.2892
  129MOL   H18031156   6.604   0.117   6.415 -1.0513  2.0356  1.4976
  129MOL   H18131157   6.591   0.138   6.582 -1.8830  1.1252 -2.6219
  129MOL   O18231158   6.606   7.825   6.431  0.4984 -0.0886 -0.5760
  129MOL   C18331159   6.551   7.695   6.431 -1.0346 -0.1040  0.1522
  129MOL   C18431160   6.481   7.671   6.301 -0.5411  0.2175  0.5054
  129MOL   C18531161   6.673   7.605   6.457  0.6042  0.3050 -0.5616
  129MOL   C18631162   6.722   7.581   6.602  0.6087 -0.4168  0.3660
  129MOL   O18731163   6.654   7.609   6.697  0.0030 -0.0890 -0.4122
  129MOL   H18831164   6.490   7.693   6.521 -0.1403  2.2795  0.8718
  129MOL   H18931165   6.543   7.679   6.211 -1.4391  0.3777 -0.1066
  129MOL   H19031166   6.392   7.730   6.280 -0.3690  0.3923  0.2685
  129MOL   H19131167   6.445   7.568   6.309  2.1865 -0.7815  0.4445
  129MOL   H19231168   6.755   7.638   6.394  1.1243 -1.2458 -0.7021
  129MOL   H19331169   6.661   7.505   6.415 -0.0387  0.2068 -0.1551
  129MOL   O19431170   6.835   7.516   6.602  0.0706 -0.3268  0.2760
  129MOL   C19531171   6.896   7.471   6.728  0.7012 -0.5899 -0.1290
  129MOL   C19631172   6.840   7.337   6.773 -0.2763  0.1392 -0.0403
  129MOL   C19731173   7.045   7.455   6.702 -0.6647 -0.6235  0.8426
  129MOL   C19831174   7.133   7.454   6.826 -0.2275  0.0557  0.5264
  129MOL   O19931175   7.199   7.556   6.851  0.4077 -0.2458  0.2063
  129MOL   H20031176   6.884   7.538   6.814  2.5268 -0.2801 -0.0915
  129MOL   H20131177   6.872   7.257   6.707 -1.1747 -1.9450  1.9702
  129MOL   H20231178   6.732   7.338   6.786  0.1035 -0.9863  3.7486
  129MOL   H20331179   6.862   7.318   6.878 -0.5362 -2.4516 -0.4157
  129MOL   H20431180   7.063   7.542   6.639 -0.6798 -1.1624  0.0821
  129MOL   H20531181   7.061   7.382   6.622  0.8913 -1.2566  1.7032
  129MOL   O20631182   7.122   7.350   6.904 -0.7470  0.6411  0.7468
  129MOL   C20731183   7.149   7.368   7.047 -0.2385 -0.3764  0.0455
  129MOL   C20831184   7.022   7.424   7.114  0.4133  0.1854  0.0879
  129MOL   C20931185   7.201   7.233   7.115  1.2060 -0.0674 -0.0350
  129MOL   C21031186   7.112   7.111   7.086 -0.0058  0.7571 -0.1988
  129MOL   O21131187   6.986   7.113   7.077  0.0602  0.5495 -0.5913
  129MOL   H21231188   7.230   7.441   7.051 -0.0493 -0.6605  1.4932
  129MOL   H21331189   6.933   7.362   7.104  0.9132 -0.2945 -1.4926
  129MOL   H21431190   7.009   7.524   7.073 -1.4538 -1.4149 -3.4919
  129MOL   H21531191   7.038   7.428   7.222  0.6641 -1.5691  0.1341
  129MOL   H21631192   7.209   7.237   7.223  0.1371 -1.1239  0.0912
  129MOL   H21731193   7.296   7.211   7.066  0.4050 -2.5289 -0.5456
  129MOL   O21831194   7.183   6.992   7.090  0.4797 -0.1299 -0.5012
  129MOL   C21931195   7.136   6.872   7.043  0.5174  0.0280  0.5726
  129MOL   C22031196   7.262   6.783   7.014 -0.0254  0.3495  0.5167
  129MOL   C22131197   7.034   6.802   7.137 -0.1481  0.7376  0.1919
  129MOL   C22231198   6.955   6.691   7.067  0.0710 -0.1723  0.3834
  129MOL   O22331199   6.831   6.688   7.071 -0.6490 -0.2426 -0.3722
  129MOL   H22431200   7.093   6.896   6.946  1.2881 -2.3891 -0.3838
  129MOL   H22531201   7.303   6.748   7.109 -1.3616 -0.4650  0.8036
  129MOL   H22631202   7.341   6.833   6.958 -1.6344  1.3918 -0.8354
  129MOL   H22731203   7.237   6.692   6.959 -0.4121 -0.0501  1.3490
  129MOL   H22831204   6.952   6.870   7.159 -0.8381 -0.8464  2.6844
  129MOL   H22931205   7.080   6.761   7.227 -0.7771 -2.5952 -0.9006
  129MOL   O23031206   7.035   6.592   7.033  0.3171  0.5778 -0.2687
  129MOL   C23131207   6.984   6.497   6.937 -0.4349  0.7229  0.3700
  129MOL   C23231208   7.017   6.540   6.788 -0.0798  0.4082 -0.7089
  129MOL   C23331209   7.048   6.356   6.975 -0.0292  0.6193 -0.0177
  129MOL   C23431210   6.973   6.302   7.101  0.0051  0.1568 -0.0609
  129MOL   O23531211   7.015   6.320   7.217  0.7226  0.1353  0.4627
  129MOL   H23631212   6.876   6.482   6.939 -0.0700 -2.5178 -0.7497
  129MOL   H23731213   7.119   6.579   6.783 -0.3741  1.3355  0.2526
  129MOL   H23831214   6.937   6.604   6.750 -2.7384 -1.4781  1.5798
  129MOL   H23931215   7.014   6.451   6.726  2.4654 -0.3309  0.1723
  129MOL   H24031216   7.155   6.361   6.992  0.3687  1.0599 -2.4891
  129MOL   H24131217   7.031   6.290   6.890  1.1338 -1.6056  1.4224
  129MOL   H24231218   6.889   6.238   7.075 -0.7953  1.2277 -0.1229
  130MOL     O131219   2.145   5.068   0.135  0.2315 -0.1626  0.6899
  130MOL     C231220   2.118   5.103   0.273  0.0946 -0.7272 -0.4233
  130MOL     C331221   1.970   5.090   0.295  0.3414  0.6844  0.5635
  130MOL     C431222   2.199   5.004   0.345  0.2624  0.4349 -0.0634
  130MOL     C531223   2.194   5.009   0.494  0.4335 -0.2954 -0.5602
  130MOL     O631224   2.213   4.902   0.556  0.9002 -0.0119 -0.3277
  130MOL     H731225   2.146   5.202   0.308  0.0746 -1.0918  0.6232
  130MOL     H831226   1.936   5.102   0.398 -0.2315 -0.7953  0.5626
  130MOL     H931227   1.932   4.992   0.266  0.7795  1.3010 -2.2877
  130MOL    H1031228   1.908   5.159   0.236 -1.2630 -0.8045  0.4675
  130MOL    H1131229   2.304   5.013   0.316  0.5734 -2.1950  0.0785
  130MOL    H1231230   2.158   4.910   0.309 -0.2447 -0.4159  2.5881
  130MOL    H1331231   2.208   5.119   0.087  1.2002 -0.6091  1.4745
  130MOL    O1431232   2.172   5.132   0.551 -0.7206 -0.1809  0.1460
  130MOL    C1531233   2.162   5.153   0.689  0.4692 -0.0034 -0.5966
  130MOL    C1631234   2.284   5.229   0.745  0.2086  0.0855  1.2195
  130MOL    C1731235   2.024   5.221   0.715  0.3659 -0.5055  0.3949
  130MOL    C1831236   1.897   5.137   0.690 -0.0313  0.3864 -0.5174
  130MOL    O1931237   1.909   5.020   0.657 -0.5093 -0.2922 -0.5414
  130MOL    H2031238   2.160   5.052   0.730  1.6368 -0.5536 -1.8676
  130MOL    H2131239   2.266   5.263   0.847 -0.4132  0.1734  1.0863
  130MOL    H2231240   2.321   5.310   0.681  3.5512 -1.7461  0.7689
  130MOL    H2331241   2.369   5.161   0.746 -0.9371 -1.3948  0.2353
  130MOL    H2431242   2.011   5.315   0.662 -0.9151 -1.8107 -1.6930
  130MOL    H2531243   2.022   5.249   0.820  2.6067 -0.4699  0.4670
  130MOL    O2631244   1.784   5.202   0.711  0.2412  0.3007 -0.7619
  130MOL    C2731245   1.650   5.147   0.684  0.6510 -0.0782 -0.2957
  130MOL    C2831246   1.571   5.192   0.807  0.2065  0.5664 -0.2506
  130MOL    C2931247   1.601   5.191   0.546  0.3186  0.8883 -0.4350
  130MOL    C3031248   1.486   5.102   0.506  1.1176 -0.2541  0.0685
  130MOL    O3131249   1.367   5.125   0.536 -0.4989  0.2362 -0.3837
  130MOL    H3231250   1.650   5.038   0.672 -0.4353 -0.1017 -0.1449
  130MOL    H3331251   1.616   5.142   0.893  0.3792 -0.0477 -0.6902
  130MOL    H3431252   1.465   5.165   0.809  0.8078 -1.7905  2.1511
  130MOL    H3531253   1.588   5.299   0.816  1.5127  0.3842 -0.4328
  130MOL    H3631254   1.683   5.184   0.474 -0.0480 -1.3181 -0.6927
  130MOL    H3731255   1.568   5.295   0.552 -0.8504  0.3526  3.8714
  130MOL    O3831256   1.534   4.996   0.437 -0.5307 -0.0366 -0.2271
  130MOL    C3931257   1.441   4.912   0.373  0.9759  0.6227  0.6620
  130MOL    C4031258   1.432   4.939   0.222 -0.5975 -0.4925  0.6571
  130MOL    C4131259   1.470   4.764   0.398 -0.7059 -0.0266 -0.5158
  130MOL    C4231260   1.431   4.707   0.535 -0.1579  0.1040  0.1714
  130MOL    O4331261   1.379   4.602   0.549  0.0855  0.4905  0.6889
  130MOL    H4431262   1.340   4.936   0.404  1.4407  3.2600  0.1859
  130MOL    H4531263   1.401   5.041   0.197 -1.1366 -1.1005 -1.2158
  130MOL    H4631264   1.355   4.872   0.185 -0.8137  0.3192 -0.3776
  130MOL    H4731265   1.523   4.906   0.172 -1.0568 -0.5361 -0.1559
  130MOL    H4831266   1.574   4.741   0.376 -0.0240  1.3530  1.1437
  130MOL    H4931267   1.409   4.712   0.323 -1.8171  2.0912 -1.1300
  130MOL    O5031268   1.453   4.790   0.640  1.0024 -0.2334 -0.1349
  130MOL    C5131269   1.413   4.755   0.772 -0.0087  0.4880  0.6755
  130MOL    C5231270   1.525   4.796   0.877 -0.6525  0.5258 -0.6031
  130MOL    C5331271   1.271   4.815   0.781  0.1574 -0.0973 -0.3004
  130MOL    C5431272   1.201   4.797   0.913 -0.5370 -0.5221 -0.5647
  130MOL    O5531273   1.115   4.870   0.948  0.4762  1.1020 -0.2322
  130MOL    H5631274   1.394   4.648   0.788  0.9300  0.6495  3.1883
  130MOL    H5731275   1.619   4.740   0.875 -0.0655  1.1605  4.0473
  130MOL    H5831276   1.481   4.779   0.975  0.0969 -3.1018 -0.8124
  130MOL    H5931277   1.540   4.903   0.870  0.6679  0.3150 -1.1905
  130MOL    H6031278   1.205   4.755   0.719 -1.0580  0.8313  0.0669
  130MOL    H6131279   1.262   4.917   0.744  0.0893  0.4029  1.0655
  130MOL    O6231280   1.238   4.689   0.985  0.3395  0.3181 -0.2527
  130MOL    C6331281   1.184   4.662   1.112 -0.3252  0.3227  0.6922
  130MOL    C6431282   1.189   4.513   1.134  0.2592  0.3134 -0.0272
  130MOL    C6531283   1.279   4.718   1.224 -0.1675  0.7847 -0.1297
  130MOL    C6631284   1.248   4.871   1.245 -0.4293  0.2028 -0.4148
  130MOL    O6731285   1.143   4.913   1.289  0.0534 -0.1683 -0.3511
  130MOL    H6831286   1.083   4.688   1.142 -0.9789 -0.9726 -0.3367
  130MOL    H6931287   1.156   4.481   1.233  0.5600 -0.8129 -0.2842
  130MOL    H7031288   1.290   4.472   1.136  1.0231  2.0523 -1.6981
  130MOL    H7131289   1.139   4.462   1.051 -1.7464 -0.2407  1.4632
  130MOL    H7231290   1.379   4.699   1.186  0.1132 -0.8371  1.3499
  130MOL    H7331291   1.267   4.671   1.321  1.8464  0.9424  0.2017
  130MOL    O7431292   1.356   4.940   1.216  0.2398 -1.0169  0.1407
  130MOL    C7531293   1.367   5.086   1.232 -0.2161  1.1452 -0.3840
  130MOL    C7631294   1.522   5.111   1.260  0.1047  0.8783 -0.6999
  130MOL    C7731295   1.334   5.168   1.102  0.6517  0.7277  0.1787
  130MOL    C7831296   1.189   5.215   1.094 -1.3501  0.0842  0.6617
  130MOL    O7931297   1.157   5.328   1.144  0.3088 -0.2322 -0.9762
  130MOL    H8031298   1.299   5.101   1.316 -1.6363  1.1166 -1.5124
  130MOL    H8131299   1.548   5.068   1.357 -1.5957 -0.6066 -0.8730
  130MOL    H8231300   1.549   5.216   1.268  0.1108  0.7947  0.5878
  130MOL    H8331301   1.585   5.057   1.189  1.1987  2.0888 -0.6624
  130MOL    H8431302   1.353   5.101   1.017  1.2081 -0.1414  0.9777
  130MOL    H8531303   1.399   5.255   1.089  1.4718  0.4478  2.2063
  130MOL    O8631304   1.110   5.130   1.038  0.4120  0.0299  0.3097
  130MOL    C8731305   0.975   5.163   0.993  0.4351 -0.3237 -0.6587
  130MOL    C8831306   0.955   5.110   0.854 -0.1268 -0.5436  0.9221
  130MOL    C8931307   0.888   5.100   1.107 -0.2004 -0.9593  0.2359
  130MOL    C9031308   0.735   5.077   1.071 -0.4719 -0.5573 -0.6250
  130MOL    O9131309   0.707   4.997   0.982 -0.4203 -0.5085 -0.1731
  130MOL    H9231310   0.970   5.271   0.989  0.0408 -0.3577 -1.0447
  130MOL    H9331311   1.016   5.174   0.791  0.9818 -2.0435  0.4282
  130MOL    H9431312   0.851   5.127   0.825  0.2593  0.0509 -0.1373
  130MOL    H9531313   0.973   5.004   0.835  0.4495 -0.4858  1.1419
  130MOL    H9631314   0.889   5.142   1.207  1.3652 -1.3954  0.4152
  130MOL    H9731315   0.930   5.001   1.125 -1.9498 -1.9389 -0.8616
  130MOL    O9831316   0.648   5.148   1.142  0.0577 -0.0294  0.2077
  130MOL    C9931317   0.506   5.119   1.123 -0.6945 -0.5544 -0.0330
  130MOL   C10031318   0.460   5.122   1.274 -0.5852  0.2650  0.2682
  130MOL   C10131319   0.447   5.223   1.031 -0.1392 -0.3099 -0.1748
  130MOL   C10231320   0.296   5.217   1.013  0.3609 -0.5200  0.2653
  130MOL   O10331321   0.241   5.121   0.955 -0.0523 -0.5054  0.4339
  130MOL   H10431322   0.489   5.016   1.092  0.9918 -1.1775  1.0047
  130MOL   H10531323   0.492   5.215   1.320 -3.1862  0.8795  0.9512
  130MOL   H10631324   0.501   5.043   1.335 -3.1526  0.3855  2.2483
  130MOL   H10731325   0.353   5.113   1.292 -0.0093 -1.5569  2.9333
  130MOL   H10831326   0.488   5.212   0.931  0.6200  1.8756 -0.1428
  130MOL   H10931327   0.478   5.324   1.057 -1.4387  0.3368 -1.1075
  130MOL   O11031328   0.230   5.324   1.066 -0.2645  0.0316 -0.3401
  130MOL   C11131329   0.090   5.341   1.045 -0.0041 -0.2481  0.0385
  130MOL   C11231330   7.971   5.268   1.134  0.6044  1.2867  0.1607
  130MOL   C11331331   0.078   5.494   1.065  0.2317 -0.8488 -0.0352
  130MOL   C11431332   7.909   5.536   1.036  0.8022  0.5990 -0.1083
  130MOL   O11531333   7.854   5.613   1.109 -0.1544 -0.3728 -0.6597
  130MOL   H11631334   0.070   5.311   0.942 -1.4070 -0.5382  0.3798
  130MOL   H11731335   7.873   5.253   1.088  1.3252 -1.7211 -0.5115
  130MOL   H11831336   7.950   5.315   1.230  0.3079  0.7415  0.3661
  130MOL   H11931337   0.031   5.167   1.148 -0.1527  0.8466 -0.7559
  130MOL   H12031338   0.137   5.549   0.991  0.5920 -2.3769 -0.9047
  130MOL   H12131339   0.104   5.526   1.166  1.9223 -0.2034 -0.6454
  130MOL   O12231340   7.866   5.497   0.911  0.1663  0.4735 -0.0796
  130MOL   C12331341   7.738   5.534   0.862  0.0433 -0.7834  0.0767
  130MOL   C12431342   7.760   5.654   0.783 -0.1799 -0.1669  0.4144
  130MOL   C12531343   7.681   5.418   0.772  0.0314  0.1843  1.0876
  130MOL   C12631344   7.667   5.293   0.852  0.1374  0.5576 -0.0608
  130MOL   O12731345   7.741   5.197   0.827  0.4166  0.2899  0.5408
  130MOL   H12831346   7.664   5.551   0.941  0.2339 -1.3659  0.3861
  130MOL   H12931347   7.686   5.672   0.706 -3.6521 -1.0272  3.4141
  130MOL   H13031348   7.858   5.654   0.734 -1.0929  0.4924 -1.4453
  130MOL   H13131349   7.757   5.745   0.844 -0.3293  0.5784 -0.6995
  130MOL   H13231350   7.752   5.387   0.695 -1.5820 -0.4048 -0.2124
  130MOL   H13331351   7.582   5.433   0.727 -0.5989 -1.4144  1.8938
  130MOL   O13431352   7.582   5.305   0.944 -0.3477 -0.8447  0.1745
  130MOL   C13531353   7.555   5.204   1.039  0.0397 -0.1821 -0.3158
  130MOL   C13631354   7.591   5.276   1.174 -1.1797 -0.6339  0.4578
  130MOL   C13731355   7.413   5.151   1.029  0.1211 -0.0624 -0.3533
  130MOL   C13831356   7.398   5.031   0.932 -0.1201  0.8097 -0.1208
  130MOL   O13931357   7.309   4.945   0.949 -0.3797  0.1118 -0.2916
  130MOL   H14031358   7.624   5.120   1.034  0.2192 -0.2675  2.6721
  130MOL   H14131359   7.595   5.200   1.252  0.8277  0.1660  1.1739
  130MOL   H14231360   7.529   5.362   1.200 -0.1209  0.0913  0.6198
  130MOL   H14331361   7.685   5.328   1.188 -2.2560  0.8958  2.3158
  130MOL   H14431362   7.335   5.223   1.002 -0.8898 -1.2163 -0.5950
  130MOL   H14531363   7.373   5.110   1.122  0.7935  0.0960  0.0028
  130MOL   O14631364   7.469   5.036   0.816 -0.6610 -0.0407  0.0390
  130MOL   C14731365   7.479   4.921   0.730 -0.1099 -0.0675 -0.2568
  130MOL   C14831366   7.444   4.971   0.595  0.2989 -0.1462 -0.5766
  130MOL   C14931367   7.630   4.869   0.740 -0.2883  0.1528  0.1617
  130MOL   C15031368   7.655   4.736   0.681 -0.2137 -0.3015 -0.0721
  130MOL   O15131369   7.634   4.723   0.561  0.2277 -0.0982 -0.4175
  130MOL   H15231370   7.414   4.839   0.760 -1.1024 -0.0243 -2.1974
  130MOL   H15331371   7.461   4.899   0.515 -1.8529  0.1680 -1.3388
  130MOL   H15431372   7.514   5.050   0.567 -0.2053 -0.3373 -2.4679
  130MOL   H15531373   7.342   5.008   0.585  0.2052 -0.5995 -1.2917
  130MOL   H15631374   7.649   4.858   0.846 -2.6997 -0.8924  0.5393
  130MOL   H15731375   7.703   4.932   0.690 -1.6693  1.4211 -0.2901
  130MOL   O15831376   7.696   4.641   0.766  0.4278 -0.4370 -0.7418
  130MOL   C15931377   7.752   4.516   0.725 -0.0137 -0.5370  0.1675
  130MOL   C16031378   7.842   4.453   0.830  0.0358  0.6649 -0.1039
  130MOL   C16131379   7.653   4.410   0.664 -0.2108  0.0256  0.3511
  130MOL   C16231380   7.701   4.332   0.543  0.2735  0.7409  0.1486
  130MOL   O16331381   7.666   4.215   0.523  0.3423 -0.1381 -0.4917
  130MOL   H16431382   7.812   4.544   0.638 -1.2028 -1.2913 -0.9045
  130MOL   H16531383   7.911   4.530   0.864 -0.8778  0.2106  2.8956
  130MOL   H16631384   7.883   4.367   0.777 -4.0682  0.1385 -2.6288
  130MOL   H16731385   7.781   4.417   0.913 -1.9344  2.0337 -0.9301
  130MOL   H16831386   7.563   4.466   0.640  0.5045  0.8007 -0.5340
  130MOL   H16931387   7.622   4.342   0.744 -0.9251  1.9625  1.7501
  130MOL   O17031388   7.793   4.395   0.475 -0.1307 -0.2234  0.3630
  130MOL   C17131389   7.833   4.346   0.347 -0.6518 -0.7977 -0.9266
  130MOL   C17231390   7.882   4.473   0.272 -0.5042 -0.3784  0.1044
  130MOL   C17331391   7.948   4.245   0.370 -0.6363  0.0541  0.2876
  130MOL   C17431392   0.018   4.184   0.241  0.5042 -0.0927  0.0642
  130MOL   O17531393   0.130   4.200   0.199 -0.4825  0.4743  0.0943
  130MOL   H17631394   7.751   4.296   0.295  0.8527 -2.9186 -1.3123
  130MOL   H17731395   7.794   4.536   0.259 -0.3071 -0.1133  0.0580
  130MOL   H17831396   7.914   4.454   0.170 -0.8889 -0.9447  0.0910
  130MOL   H17931397   7.967   4.521   0.320 -0.7157 -1.2559  1.3830
  130MOL   H18031398   7.903   4.169   0.434 -0.1172 -0.2053  0.3451
  130MOL   H18131399   0.046   4.286   0.435  0.2827 -1.1986  0.0002
  130MOL   O18231400   7.896   4.117   0.171 -0.0704  0.2432 -0.5717
  130MOL   C18331401   7.929   4.033   0.059 -0.0311  0.4194 -0.2528
  130MOL   C18431402   7.830   3.919   0.046  0.0884  0.0981  0.2936
  130MOL   C18531403   7.930   4.114   7.909 -0.5609  0.2886 -0.1695
  130MOL   C18631404   7.805   4.202   7.866  0.2772 -0.9345  0.2961
  130MOL   O18731405   7.727   4.161   7.775 -0.0592 -0.0006  0.3494
  130MOL   H18831406   0.053   4.000   0.061  0.5782  2.2301 -0.4279
  130MOL   H18931407   7.728   3.948   0.069  0.7501  1.4085  1.6020
  130MOL   H19031408   7.854   3.833   0.110  0.0511  1.0593  1.6190
  130MOL   H19131409   7.816   3.881   7.924  0.6656  0.4332  0.0868
  130MOL   H19231410   7.944   4.043   7.828 -3.3075 -1.1579  0.5606
  130MOL   H19331411   0.028   4.190   7.916  0.6045 -0.9766  0.7304
  130MOL   O19431412   7.777   4.304   7.948  0.4225 -0.5049 -0.1801
  130MOL   C19531413   7.663   4.389   7.919 -0.0444 -0.7598  0.8521
  130MOL   C19631414   7.554   4.355   0.046  0.0214  0.8851 -0.4595
  130MOL   C19731415   7.700   4.545   7.929  0.7334  0.0734  0.3202
  130MOL   C19831416   7.622   4.640   7.825 -0.8142  0.3613 -0.1121
  130MOL   O19931417   7.558   4.593   7.730  0.3080  0.0072 -0.2939
  130MOL   H20031418   7.622   4.372   7.820  3.1807 -0.0576 -0.6618
  130MOL   H20131419   7.472   4.424   0.029  0.9639  2.7045  2.0555
  130MOL   H20231420   7.590   4.344   0.148 -0.5211  2.5882 -0.0721
  130MOL   H20331421   7.513   4.256   0.023  0.4566  0.2822  1.3101
  130MOL   H20431422   7.804   4.550   7.899  0.8579 -0.8094  0.5930
  130MOL   H20531423   7.690   4.591   0.047 -0.3758 -0.0351  0.2664
  130MOL   O20631424   7.621   4.769   7.857  0.2672  0.9219 -0.4107
  130MOL   C20731425   7.547   4.865   7.786 -0.2292  1.0236  0.6375
  130MOL   C20831426   7.515   4.982   7.887  0.4619 -0.5556  0.0117
  130MOL   C20931427   7.624   4.917   7.664 -0.2479 -0.0185 -0.4000
  130MOL   C21031428   7.526   5.006   7.582 -0.2350 -0.1703  0.0808
  130MOL   O21131429   7.408   4.981   7.564  0.1391 -0.0731 -0.0030
  130MOL   H21231430   7.449   4.823   7.765  0.8869 -2.3428  1.8030
  130MOL   H21331431   7.604   5.036   7.919  0.3976  0.5302 -1.6120
  130MOL   H21431432   7.465   4.938   7.974 -1.0295  2.2939  0.6427
  130MOL   H21531433   7.457   5.059   7.838 -0.7265 -0.8035  1.0118
  130MOL   H21631434   7.654   4.831   7.604  0.9719 -0.1757  0.3963
  130MOL   H21731435   7.714   4.972   7.692 -0.4871 -1.1165  2.6294
  130MOL   O21831436   7.580   5.117   7.546 -0.0414  0.0557  0.0910
  130MOL   C21931437   7.509   5.225   7.474 -0.0645 -0.3396 -0.6611
  130MOL   C22031438   7.427   5.307   7.574 -0.5016  0.8858  0.1031
  130MOL   C22131439   7.611   5.316   7.412 -0.8299 -0.6078 -0.0407
  130MOL   C22231440   7.558   5.424   7.313  0.9634 -0.4945 -0.4272
  130MOL   O22331441   7.579   5.539   7.339 -0.0810  0.0706 -0.4035
  130MOL   H22431442   7.442   5.185   7.398  0.6779 -1.7004 -0.6244
  130MOL   H22531443   7.495   5.355   7.644 -0.1414 -1.2289  1.2427
  130MOL   H22631444   7.360   5.251   7.639  2.0952 -0.9314  1.3260
  130MOL   H22731445   7.372   5.393   7.536 -1.8504  0.5265  1.2033
  130MOL   H22831446   7.684   5.252   7.363  1.8427  1.3272  1.3199
  130MOL   H22931447   7.665   5.361   7.495 -0.6728 -2.5291  0.9233
  130MOL   O23031448   7.497   5.375   7.195  0.4301 -0.4669 -0.1924
  130MOL   C23131449   7.410   5.454   7.117  0.4350  0.6468 -0.2954
  130MOL   C23231450   7.456   5.455   6.969 -0.5397  0.6855  0.8511
  130MOL   C23331451   7.265   5.418   7.143  0.4063 -0.0726 -0.3525
  130MOL   C23431452   7.222   5.283   7.087  0.8987  0.1293  0.2893
  130MOL   O23531453   7.287   5.180   7.114  0.1238 -0.1335 -0.2180
  130MOL   H23631454   7.413   5.554   7.159  0.0765  0.6265 -0.2248
  130MOL   H23731455   7.564   5.441   6.970 -0.7807 -1.3731 -0.3921
  130MOL   H23831456   7.434   5.557   6.938  2.1281  0.7140 -1.0592
  130MOL   H23931457   7.406   5.382   6.905 -2.9742  0.7038  2.6604
  130MOL   H24031458   7.199   5.493   7.099 -1.1684 -1.2443 -0.0359
  130MOL   H24131459   7.251   5.420   7.251  0.3192  1.5356 -0.3767
  130MOL   H24231460   7.135   5.277   7.022  1.8960 -4.6373 -0.8090
  131MOL     O131461   6.001   3.965   0.782 -0.1461 -0.3833 -0.2192
  131MOL     C231462   5.984   3.887   0.898  0.2377 -0.6959  0.1511
  131MOL     C331463   6.112   3.901   0.977 -0.9517  0.4201 -0.0352
  131MOL     C431464   5.859   3.935   0.971  0.1385 -0.4954 -0.0561
  131MOL     C531465   5.827   3.869   1.093  0.1420 -0.4205  0.2652
  131MOL     O631466   5.818   3.932   1.201 -0.3129 -0.4624 -0.1396
  131MOL     H731467   5.981   3.780   0.875  0.6849 -0.7783  0.4748
  131MOL     H831468   6.117   4.001   1.020 -2.8863  0.8652 -0.7547
  131MOL     H931469   6.196   3.885   0.910 -1.1296 -1.4749  0.1744
  131MOL    H1031470   6.116   3.825   1.054  1.4553  1.0559  0.4855
  131MOL    H1131471   5.768   3.922   0.912 -0.8574  1.0956  1.1080
  131MOL    H1231472   5.863   4.041   0.997  0.0697 -0.0847 -1.6176
  131MOL    H1331473   6.081   3.935   0.741  0.1873  0.2610 -0.0404
  131MOL    O1431474   5.815   3.736   1.079 -0.1341  0.4299 -0.0199
  131MOL    C1531475   5.799   3.656   1.190 -0.2241  0.0899 -0.0526
  131MOL    C1631476   5.661   3.581   1.185  0.3920 -0.0087  0.1784
  131MOL    C1731477   5.916   3.554   1.186 -0.4872  0.0342 -0.0233
  131MOL    C1831478   5.920   3.470   1.309  0.0928  0.6674 -0.1159
  131MOL    O1931479   5.875   3.352   1.308  0.2192 -0.4214 -0.2406
  131MOL    H2031480   5.814   3.705   1.286 -0.6927 -0.5186  0.3350
  131MOL    H2131481   5.659   3.504   1.262 -0.0983 -0.0436  0.1334
  131MOL    H2231482   5.655   3.523   1.092  2.1936  1.2447 -0.7595
  131MOL    H2331483   5.571   3.641   1.197 -1.0810 -1.8343 -1.3749
  131MOL    H2431484   6.011   3.606   1.177 -0.1270 -0.9434 -2.3907
  131MOL    H2531485   5.908   3.486   1.100  0.4811  0.5907 -0.5631
  131MOL    O2631486   5.972   3.536   1.417  0.1412 -0.2472 -0.0256
  131MOL    C2731487   5.982   3.469   1.552 -0.0200 -0.4063 -0.1328
  131MOL    C2831488   6.122   3.404   1.575  1.2711  0.0287  0.4993
  131MOL    C2931489   5.935   3.571   1.660  0.3853 -1.1415 -0.2782
  131MOL    C3031490   5.780   3.565   1.685 -0.5975 -0.9562 -1.0483
  131MOL    O3131491   5.733   3.546   1.796  0.0141  0.6231 -0.4317
  131MOL    H3231492   5.908   3.389   1.555  1.6332 -2.0437 -1.6458
  131MOL    H3331493   6.208   3.463   1.604  1.7457  0.3418 -1.4752
  131MOL    H3431494   6.153   3.338   1.494 -0.3333  0.4399 -0.4857
  131MOL    H3531495   6.103   3.344   1.664  0.1653  1.5086  1.2907
  131MOL    H3631496   5.962   3.674   1.634 -0.2593 -0.1365  2.8551
  131MOL    H3731497   5.976   3.552   1.759 -0.5945 -0.7371  0.2142
  131MOL    O3831498   5.707   3.566   1.581  0.3783 -0.2146 -0.0772
  131MOL    C3931499   5.571   3.544   1.578 -0.6368 -0.0028 -0.2125
  131MOL    C4031500   5.495   3.658   1.517 -0.0089 -0.0201 -0.2612
  131MOL    C4131501   5.531   3.407   1.512 -0.1759 -0.3511  0.0896
  131MOL    C4231502   5.573   3.278   1.581  0.0544 -1.2223 -0.0578
  131MOL    O4331503   5.548   3.239   1.699  0.5839  0.1694  0.1826
  131MOL    H4431504   5.534   3.542   1.680 -0.4053 -1.7835 -0.1451
  131MOL    H4531505   5.391   3.638   1.543 -0.4400 -0.1718 -1.9789
  131MOL    H4631506   5.496   3.674   1.409 -0.1883  0.0099 -0.2596
  131MOL    H4731507   5.513   3.752   1.568  0.8671  0.2262 -1.0076
  131MOL    H4831508   5.559   3.415   1.407  0.5474  0.5139  0.3455
  131MOL    H4931509   5.422   3.400   1.509 -0.2812  1.3188 -0.7602
  131MOL    O5031510   5.662   3.218   1.503 -0.5390 -0.4318 -0.5886
  131MOL    C5131511   5.708   3.086   1.533  0.5026 -0.0974 -0.2955
  131MOL    C5231512   5.604   2.988   1.474 -0.3124  0.6630 -0.8428
  131MOL    C5331513   5.843   3.071   1.462  0.1355 -0.1083 -0.5997
  131MOL    C5431514   5.934   2.963   1.524  0.1856 -0.1324  0.0511
  131MOL    O5531515   5.923   2.920   1.635  0.6246  0.4336 -0.0388
  131MOL    H5631516   5.721   3.070   1.640  2.0978  3.2727  0.0904
  131MOL    H5731517   5.617   2.891   1.521  1.5834  0.4220 -1.8394
  131MOL    H5831518   5.605   2.986   1.365 -2.4823  0.3944 -0.8829
  131MOL    H5931519   5.502   3.019   1.497 -1.4429  0.1511 -4.8797
  131MOL    H6031520   5.908   3.158   1.472 -0.9880  0.6575  0.0501
  131MOL    H6131521   5.840   3.061   1.353  1.2868  0.4227 -0.6901
  131MOL    O6231522   6.024   2.912   1.425 -0.3372  0.3031 -0.0856
  131MOL    C6331523   6.115   2.811   1.440 -0.4041 -0.4669  0.2265
  131MOL    C6431524   6.115   2.704   1.327  0.1674 -0.3825  0.6576
  131MOL    C6531525   6.261   2.859   1.461 -0.2549 -0.1895 -0.2479
  131MOL    C6631526   6.304   2.898   1.598 -0.0278 -0.1950 -0.3457
  131MOL    O6731527   6.395   2.841   1.652  0.0612  0.2332  0.2038
  131MOL    H6831528   6.090   2.751   1.528  4.6493 -2.1683  0.6370
  131MOL    H6931529   6.191   2.627   1.341 -1.1215 -2.0205 -1.1347
  131MOL    H7031530   6.127   2.761   1.236 -1.6626  0.7953  1.1417
  131MOL    H7131531   6.023   2.649   1.307 -1.1869  1.6939  1.0414
  131MOL    H7231532   6.275   2.942   1.392  0.2014  0.1182  0.2075
  131MOL    H7331533   6.342   2.795   1.425 -1.1297 -1.1754 -0.4955
  131MOL    O7431534   6.235   2.997   1.665 -0.9183  0.3257  0.1938
  131MOL    C7531535   6.275   3.043   1.785  0.5438 -0.5595 -0.7482
  131MOL    C7631536   6.347   3.179   1.758  0.1487 -0.6801  0.2597
  131MOL    C7731537   6.143   3.085   1.857  0.1552 -0.4176 -0.0429
  131MOL    C7831538   6.066   2.974   1.930  0.4166 -0.1692 -0.3271
  131MOL    O7931539   6.119   2.879   1.984  0.1244 -0.4821 -0.4825
  131MOL    H8031540   6.328   2.963   1.837 -1.0883 -1.2281 -0.0864
  131MOL    H8131541   6.449   3.164   1.723 -0.0009 -1.2262  0.0534
  131MOL    H8231542   6.355   3.230   1.854 -0.6806 -0.9617  0.4773
  131MOL    H8331543   6.282   3.239   1.694  0.2197  0.6829  1.4226
  131MOL    H8431544   6.081   3.138   1.786  0.6450 -0.0904 -0.2259
  131MOL    H8531545   6.169   3.166   1.926  0.0243  0.4703 -1.0369
  131MOL    O8631546   5.937   3.003   1.929 -0.2026  0.2159 -0.0664
  131MOL    C8731547   5.840   2.926   1.994  0.0248  0.3858 -0.2819
  131MOL    C8831548   5.821   2.972   2.139 -0.0886 -1.2795  0.0956
  131MOL    C8931549   5.724   2.939   1.906 -0.2447  0.4889 -0.2676
  131MOL    C9031550   5.609   2.834   1.925  0.5218 -0.3203  0.0046
  131MOL    O9131551   5.545   2.820   2.027 -0.5005  0.4437 -0.2667
  131MOL    H9231552   5.870   2.821   2.000 -1.9065 -0.1711 -0.1571
  131MOL    H9331553   5.797   3.078   2.143 -0.9627 -1.4945  0.6404
  131MOL    H9431554   5.917   2.968   2.191  0.2409 -0.0595 -0.3928
  131MOL    H9531555   5.747   2.923   2.201  0.4916  0.7617  2.4812
  131MOL    H9631556   5.755   2.920   1.803 -0.8000 -1.0322 -0.1677
  131MOL    H9731557   5.662   3.027   1.921  1.2072  1.4781 -0.0170
  131MOL    O9831558   5.579   2.781   1.799  0.2578  0.2730  0.5958
  131MOL    C9931559   5.464   2.704   1.776 -0.0581 -0.5110  0.1677
  131MOL   C10031560   5.396   2.748   1.642  0.8414  0.0823 -0.5194
  131MOL   C10131561   5.480   2.553   1.796  0.2106  0.6906  0.2279
  131MOL   C10231562   5.351   2.476   1.759  0.5347  0.2521 -0.9114
  131MOL   O10331563   5.351   2.414   1.653  0.0531 -0.4777  0.2346
  131MOL   H10431564   5.391   2.724   1.854 -0.6431 -0.0109 -0.5037
  131MOL   H10531565   5.365   2.851   1.630 -1.5783 -0.5217  0.0913
  131MOL   H10631566   5.312   2.683   1.613  0.7139  0.2695 -0.5664
  131MOL   H10731567   5.468   2.726   1.564  0.8180 -1.0425 -0.2375
  131MOL   H10831568   5.499   2.534   1.902  0.9501 -1.0102 -0.1939
  131MOL   H10931569   5.563   2.521   1.732  0.1586 -1.6197  1.2465
  131MOL   O11031570   5.255   2.497   1.846  0.6209  0.5836 -0.9070
  131MOL   C11131571   5.126   2.445   1.814  0.9379  0.1353 -0.4773
  131MOL   C11231572   5.114   2.296   1.854 -0.4210  0.2829 -0.4266
  131MOL   C11331573   5.026   2.525   1.906  0.4340 -0.2431 -0.2648
  131MOL   C11431574   4.998   2.667   1.838  0.3036  0.2913  0.0312
  131MOL   O11531575   5.044   2.702   1.729  0.0764  0.6093 -0.1746
  131MOL   H11631576   5.105   2.455   1.707  2.5068  1.3893 -0.6811
  131MOL   H11731577   5.188   2.235   1.803 -0.5584 -1.3983  1.3359
  131MOL   H11831578   5.015   2.265   1.818  0.4126 -1.5859 -1.1500
  131MOL   H11931579   5.118   2.288   1.963  0.9307  1.5081 -0.3690
  131MOL   H12031580   5.056   2.521   2.011 -1.2249  0.6853  0.2664
  131MOL   H12131581   4.927   2.480   1.898  0.9035 -1.1387 -1.1296
  131MOL   O12231582   4.914   2.744   1.904  0.0201 -0.0622 -0.2261
  131MOL   C12331583   4.849   2.857   1.850  0.3447 -1.0076  0.1701
  131MOL   C12431584   4.705   2.866   1.896  0.8678  0.0769  0.2327
  131MOL   C12531585   4.920   2.992   1.876  0.4148 -0.9147  0.1255
  131MOL   C12631586   4.841   3.106   1.808 -0.0324  0.5454 -0.1474
  131MOL   O12731587   4.840   3.220   1.858  0.0799 -0.3816 -0.1882
  131MOL   H12831588   4.849   2.827   1.745  2.8639 -1.7773  0.3407
  131MOL   H12931589   4.635   2.935   1.849 -1.1026  0.9672  4.1922
  131MOL   H13031590   4.707   2.889   2.003  0.0856  0.3852  0.1846
  131MOL   H13131591   4.662   2.766   1.895 -1.4893  1.0044  2.1037
  131MOL   H13231592   5.027   3.001   1.859  0.2612 -0.2222 -0.4877
  131MOL   H13331593   4.909   3.019   1.981 -1.6488 -0.3816 -0.2056
  131MOL   O13431594   4.789   3.076   1.688 -0.2773 -0.0363  0.3172
  131MOL   C13531595   4.715   3.170   1.611  0.2761  0.0781 -0.7163
  131MOL   C13631596   4.803   3.254   1.514  0.0421 -0.4447 -0.3593
  131MOL   C13731597   4.608   3.102   1.531 -0.1149 -0.1466 -0.2297
  131MOL   C13831598   4.485   3.036   1.596 -0.3141  0.1252 -0.8045
  131MOL   O13931599   4.455   3.061   1.713 -0.6396  0.2157 -0.0084
  131MOL   H14031600   4.679   3.235   1.692  1.1573  0.0561 -0.2999
  131MOL   H14131601   4.760   3.352   1.497  0.7892 -0.1799 -0.7481
  131MOL   H14231602   4.816   3.212   1.414 -0.5439  2.6374 -1.7910
  131MOL   H14331603   4.893   3.269   1.573  0.6855  1.1503 -1.7236
  131MOL   H14431604   4.659   3.027   1.471  1.6316  2.0287 -1.5230
  131MOL   H14531605   4.571   3.179   1.463 -0.1217 -1.8448 -2.2133
  131MOL   O14631606   4.421   2.940   1.514 -0.2076  0.6151  0.1993
  131MOL   C14731607   4.313   2.860   1.559  0.3411  0.0503 -0.6773
  131MOL   C14831608   4.195   2.913   1.477 -0.1389  1.0236  0.2222
  131MOL   C14931609   4.347   2.717   1.533  0.7474 -0.4942 -0.2748
  131MOL   C15031610   4.414   2.649   1.653 -0.8580  0.2545  0.1361
  131MOL   O15131611   4.522   2.596   1.638  0.6730 -0.2405 -0.0001
  131MOL   H15231612   4.286   2.877   1.664  1.9319 -1.6349  0.0422
  131MOL   H15331613   4.117   2.836   1.473  1.0784 -0.2190 -0.0273
  131MOL   H15431614   4.231   2.923   1.375  0.1292  2.0250  0.4129
  131MOL   H15531615   4.152   3.006   1.514  1.6774  2.7241 -1.7699
  131MOL   H15631616   4.397   2.709   1.436  0.5542  0.4985 -0.4562
  131MOL   H15731617   4.249   2.673   1.513 -0.2872  1.1707  1.0925
  131MOL   O15831618   4.338   2.643   1.765  0.2679  0.7152  0.1453
  131MOL   C15931619   4.391   2.613   1.896 -0.4063 -0.9227  0.3102
  131MOL   C16031620   4.366   2.741   1.984 -0.1898 -0.1457  0.0091
  131MOL   C16131621   4.327   2.489   1.950  0.5602  0.0177  0.1697
  131MOL   C16231622   4.395   2.429   2.074  0.4623  0.5632  0.3208
  131MOL   O16331623   4.383   2.480   2.186  0.1034 -0.0854  0.3277
  131MOL   H16431624   4.499   2.596   1.889 -0.6334 -1.0956 -3.3362
  131MOL   H16531625   4.393   2.829   1.925  0.0847  0.5362  1.1387
  131MOL   H16631626   4.431   2.734   2.072  0.1970 -2.3856 -0.4003
  131MOL   H16731627   4.263   2.736   2.018  0.0940  1.7254  1.1673
  131MOL   H16831628   4.313   2.408   1.878 -2.1972  0.6193 -0.0353
  131MOL   H16931629   4.225   2.521   1.973  1.3689  0.9042  2.7067
  131MOL   O17031630   4.474   2.320   2.043  0.2852 -0.0264  0.1217
  131MOL   C17131631   4.516   2.237   2.143 -0.1731 -0.1737 -0.3183
  131MOL   C17231632   4.424   2.121   2.153 -0.7679  0.0033  0.5926
  131MOL   C17331633   4.668   2.194   2.140  0.0805  0.3631  0.6196
  131MOL   C17431634   4.774   2.298   2.177  0.1533 -0.5721 -0.6562
  131MOL   O17531635   4.865   2.330   2.101  0.8170 -0.1410  0.6477
  131MOL   H17631636   4.502   2.290   2.238 -0.1437  0.4203 -0.6478
  131MOL   H17731637   4.451   2.064   2.242 -1.2580 -3.0537 -1.1137
  131MOL   H17831638   4.447   2.055   2.069 -2.5163 -0.4020  0.4030
  131MOL   H17931639   4.320   2.153   2.155 -0.8998 -0.2862 -0.7301
  131MOL   H18031640   4.689   2.154   2.041  2.8805  0.5196  1.1336
  131MOL   H18131641   4.688   2.124   2.220 -0.5123 -0.4674  0.0585
  131MOL   O18231642   4.747   2.346   2.306 -0.1323  0.3059 -0.4793
  131MOL   C18331643   4.827   2.452   2.361  0.5856 -0.0731 -0.0795
  131MOL   C18431644   4.757   2.591   2.340 -0.4547 -0.0013  0.4667
  131MOL   C18531645   4.839   2.413   2.508  0.4666  0.1998 -0.2696
  131MOL   C18631646   4.925   2.281   2.533 -0.5503 -0.0786 -0.6937
  131MOL   O18731647   5.006   2.240   2.454 -0.5621 -0.3271  0.5257
  131MOL   H18831648   4.927   2.452   2.318 -0.5068  0.1321 -2.7722
  131MOL   H18931649   4.768   2.625   2.237 -0.2268  1.4786  0.9592
  131MOL   H19031650   4.814   2.666   2.396  0.1992  0.9802 -1.4667
  131MOL   H19131651   4.650   2.582   2.353 -1.1322  3.1399 -2.0853
  131MOL   H19231652   4.740   2.399   2.550  0.6187 -1.6377 -0.4799
  131MOL   H19331653   4.886   2.494   2.564  2.2405 -1.8995  1.3810
  131MOL   O19431654   4.914   2.244   2.666 -0.4137  0.1185 -0.5756
  131MOL   C19531655   4.995   2.138   2.715 -0.1807  0.2500 -0.1230
  131MOL   C19631656   5.131   2.199   2.781  0.2856  0.1826 -0.5209
  131MOL   C19731657   4.918   2.072   2.827 -0.3583  0.5719 -0.3734
  131MOL   C19831658   4.784   1.994   2.795  0.1562  1.0290  0.1585
  131MOL   O19931659   4.730   1.926   2.887  0.1120 -0.4432 -0.8553
  131MOL   H20031660   5.005   2.067   2.633  0.0124 -0.9786  0.9571
  131MOL   H20131661   5.202   2.119   2.803 -1.4944 -1.4797 -0.7201
  131MOL   H20231662   5.103   2.249   2.874 -2.0349  0.4813 -1.3516
  131MOL   H20331663   5.188   2.271   2.721 -0.9181  0.9887 -0.7181
  131MOL   H20431664   4.899   2.131   2.917  0.4851  1.6558 -0.9045
  131MOL   H20531665   4.982   1.989   2.857  0.2353  0.9390 -0.6122
  131MOL   O20631666   4.735   2.010   2.679  0.9269  0.0136  0.5005
  131MOL   C20731667   4.608   1.959   2.640  0.1385  0.4848  0.0132
  131MOL   C20831668   4.516   2.076   2.637 -0.0608 -0.1062 -0.2785
  131MOL   C20931669   4.636   1.900   2.503  0.3034 -0.4386 -0.3119
  131MOL   C21031670   4.527   1.802   2.441 -0.3966  0.1239 -0.1082
  131MOL   O21131671   4.433   1.757   2.514  0.4711 -0.0454 -0.1188
  131MOL   H21231672   4.562   1.888   2.708 -2.1830  1.2376 -0.7179
  131MOL   H21331673   4.526   2.115   2.738 -2.9335 -2.4051  0.9646
  131MOL   H21431674   4.416   2.047   2.607 -0.0656  1.1846 -1.5407
  131MOL   H21531675   4.543   2.153   2.565 -0.5602 -0.1731 -0.5331
  131MOL   H21631676   4.723   1.835   2.507  0.9525  0.4593  0.4467
  131MOL   H21731677   4.658   1.981   2.432 -0.1896  0.2827  0.3555
  131MOL   O21831678   4.550   1.768   2.313 -0.0232  0.2275  0.1630
  131MOL   C21931679   4.452   1.684   2.243 -0.0280  0.7424 -0.0331
  131MOL   C22031680   4.408   1.731   2.111 -0.3386  0.3048  0.4668
  131MOL   C22131681   4.497   1.538   2.231  0.4656 -0.1595  0.2905
  131MOL   C22231682   4.479   1.467   2.363  0.3852  0.3436  0.4441
  131MOL   O22331683   4.572   1.444   2.445 -0.1251 -0.0390 -0.9585
  131MOL   H22431684   4.366   1.683   2.310 -0.8967  0.5391 -1.1399
  131MOL   H22531685   4.344   1.656   2.064  2.1160 -1.9753  0.6086
  131MOL   H22631686   4.492   1.756   2.046  0.1947  1.8479  1.7238
  131MOL   H22731687   4.357   1.827   2.118  1.8377  1.4760  0.7193
  131MOL   H22831688   4.598   1.535   2.193  0.7615  0.4063  1.0054
  131MOL   H22931689   4.429   1.488   2.162  1.5823 -1.9809  0.4859
  131MOL   O23031690   4.350   1.451   2.398  0.5914 -0.2921 -0.0432
  131MOL   C23131691   4.308   1.433   2.530  0.5603  0.1037 -0.4127
  131MOL   C23231692   4.164   1.492   2.528 -0.0157 -0.1427 -0.9025
  131MOL   C23331693   4.316   1.289   2.567  0.1935 -0.2377 -0.0461
  131MOL   C23431694   4.255   1.264   2.707 -0.7918 -0.1759  0.6390
  131MOL   O23531695   4.196   1.160   2.728 -0.2179  0.0973 -0.4804
  131MOL   H23631696   4.370   1.500   2.591  0.2014  1.3854 -1.4343
  131MOL   H23731697   4.179   1.593   2.492 -1.3141  1.2264  2.2737
  131MOL   H23831698   4.123   1.480   2.628 -0.9140  1.1137 -1.1117
  131MOL   H23931699   4.093   1.443   2.461 -0.4450  0.8466 -1.1653
  131MOL   H24031700   4.421   1.263   2.560 -0.0421 -0.9630 -1.1104
  131MOL   H24131701   4.262   1.216   2.506 -0.4554 -0.4636  0.7842
  131MOL   H24231702   4.279   1.338   2.783  0.5571 -0.6792  0.7063
  132MOL     O131703   5.032   4.157   4.183  0.5037  0.6926  0.0009
  132MOL     C231704   4.926   4.179   4.089 -0.4550 -0.0052 -0.0055
  132MOL     C331705   4.914   4.334   4.081  0.0778 -0.0272  0.2353
  132MOL     C431706   4.980   4.111   3.959 -0.3361  0.1639 -0.2627
  132MOL     C531707   4.875   4.091   3.850 -0.2039 -0.1922  0.3326
  132MOL     O631708   4.856   3.975   3.817 -1.2700  0.1122  0.2704
  132MOL     H731709   4.829   4.144   4.124 -0.3707  0.4594  0.7158
  132MOL     H831710   4.901   4.381   4.178  1.1426  0.8443 -0.0374
  132MOL     H931711   4.820   4.353   4.029  0.9524 -1.6503 -2.0343
  132MOL    H1031712   5.002   4.377   4.033  1.3323 -1.1722  1.4728
  132MOL    H1131713   5.027   4.016   3.986  1.0827  0.3547 -1.9392
  132MOL    H1231714   5.060   4.176   3.923  2.1847 -1.9652  1.3297
  132MOL    H1331715   5.014   4.200   4.265 -3.1991 -1.0011  0.1979
  132MOL    O1431716   4.826   4.204   3.793  0.0589 -0.5871 -0.5424
  132MOL    C1531717   4.737   4.190   3.680 -0.3358 -0.3040  0.1160
  132MOL    C1631718   4.637   4.302   3.706  0.6474  0.0329  0.3713
  132MOL    C1731719   4.824   4.206   3.554 -0.1158 -0.5477  0.5266
  132MOL    C1831720   4.751   4.183   3.421  0.2496  0.7736 -0.0836
  132MOL    O1931721   4.736   4.073   3.368 -0.0615 -0.0160  0.2598
  132MOL    H2031722   4.688   4.093   3.681 -0.3366 -0.3002  1.6365
  132MOL    H2131723   4.582   4.263   3.791 -0.0943 -1.9145 -0.9625
  132MOL    H2231724   4.571   4.310   3.619  2.2773 -1.2910 -1.0304
  132MOL    H2331725   4.676   4.397   3.742  1.3857 -0.7569  1.6614
  132MOL    H2431726   4.917   4.149   3.553  0.2246 -0.0483 -2.0456
  132MOL    H2531727   4.864   4.308   3.546  1.9924 -1.3742  0.1063
  132MOL    O2631728   4.713   4.298   3.357 -0.4491  0.2414  0.1530
  132MOL    C2731729   4.644   4.295   3.236  0.3324  0.7648 -0.2561
  132MOL    C2831730   4.508   4.362   3.251  0.2362 -0.2221 -0.3834
  132MOL    C2931731   4.722   4.374   3.119 -0.0467 -0.7214 -1.5308
  132MOL    C3031732   4.845   4.309   3.068 -0.0018 -1.0112 -0.1227
  132MOL    O3131733   4.907   4.362   2.979 -0.9084  0.2820 -0.1944
  132MOL    H3231734   4.623   4.192   3.205 -1.6367  1.5829 -1.7514
  132MOL    H3331735   4.438   4.345   3.169 -1.0689  1.5156  0.3262
  132MOL    H3431736   4.526   4.469   3.261 -0.0172 -0.2474  0.3490
  132MOL    H3531737   4.454   4.333   3.341  0.9179 -1.3114 -0.3212
  132MOL    H3631738   4.748   4.475   3.151 -0.9479 -0.6515 -0.9926
  132MOL    H3731739   4.651   4.384   3.037  0.4812  1.2218 -1.7668
  132MOL    O3831740   4.871   4.196   3.122 -0.1812  0.1719  0.0022
  132MOL    C3931741   5.001   4.141   3.102  0.0071 -0.1111 -0.3850
  132MOL    C4031742   5.049   4.085   3.239  0.0518 -0.0564  0.3015
  132MOL    C4131743   4.996   4.025   2.990  0.4157  0.5343 -0.7918
  132MOL    C4231744   5.002   4.071   2.846  0.0517 -0.1531  0.7302
  132MOL    O4331745   4.909   4.044   2.769  0.4171 -0.6831 -0.2387
  132MOL    H4431746   5.073   4.218   3.071  0.6142  0.0241  1.3091
  132MOL    H4531747   4.975   4.011   3.270  0.8783 -1.2218 -0.4951
  132MOL    H4631748   5.050   4.162   3.316  0.2070 -0.1243  0.3668
  132MOL    H4731749   5.146   4.036   3.236  0.0815 -0.0922  1.6346
  132MOL    H4831750   4.911   3.959   3.005 -0.8186  2.1166 -0.6412
  132MOL    H4931751   5.090   3.970   3.001 -0.9446 -1.9643 -1.4565
  132MOL    O5031752   5.118   4.142   2.824  0.6086  0.3502 -0.1181
  132MOL    C5131753   5.162   4.168   2.686 -0.6802  0.4501  0.4002
  132MOL    C5231754   5.182   4.325   2.665  0.5001 -0.2525  0.6044
  132MOL    C5331755   5.286   4.079   2.652  0.1081 -0.8729 -0.2249
  132MOL    C5431756   5.415   4.097   2.747  0.2514  0.1369 -0.1872
  132MOL    O5531757   5.435   4.019   2.843  0.4764  0.0436  0.4661
  132MOL    H5631758   5.087   4.138   2.613 -0.3868 -1.2204  0.7760
  132MOL    H5731759   5.268   4.367   2.717  2.2922 -2.1429 -0.8064
  132MOL    H5831760   5.098   4.387   2.698  0.5396  0.2552 -0.2476
  132MOL    H5931761   5.190   4.350   2.560 -2.2631  0.8781  0.6069
  132MOL    H6031762   5.323   4.093   2.550  0.8489  2.9798  0.5037
  132MOL    H6131763   5.265   3.972   2.659 -3.6094 -0.3230 -1.7107
  132MOL    O6231764   5.494   4.204   2.706 -0.3316  0.0129 -0.0483
  132MOL    C6331765   5.611   4.231   2.777  0.2238 -0.1876  0.1124
  132MOL    C6431766   5.727   4.152   2.711  0.1083  0.1356  0.0752
  132MOL    C6531767   5.649   4.373   2.756  0.1526  0.1370 -0.8223
  132MOL    C6631768   5.553   4.468   2.823 -0.3694  0.3467  0.3071
  132MOL    O6731769   5.492   4.539   2.750  0.1427 -0.2859  0.0027
  132MOL    H6831770   5.596   4.211   2.884 -2.8996 -1.1933 -0.4664
  132MOL    H6931771   5.821   4.182   2.757  0.7709  0.4652 -1.4555
  132MOL    H7031772   5.744   4.173   2.606  1.3278  1.0402  0.4462
  132MOL    H7131773   5.716   4.043   2.710  0.8272  0.0637 -0.1450
  132MOL    H7231774   5.662   4.392   2.650  1.0060 -2.3265 -1.1935
  132MOL    H7331775   5.748   4.391   2.800  1.4831 -2.1717 -2.7363
  132MOL    O7431776   5.550   4.466   2.966 -0.1005 -0.5231 -0.0012
  132MOL    C7531777   5.469   4.568   3.035  0.8001 -0.1419 -0.1714
  132MOL    C7631778   5.369   4.485   3.113  0.6324  0.1954  0.4001
  132MOL    C7731779   5.569   4.641   3.125  0.5976  0.3287 -0.1806
  132MOL    C7831780   5.525   4.751   3.219 -0.3154  0.3245 -0.1092
  132MOL    O7931781   5.493   4.717   3.334 -0.0360 -0.0844  0.7842
  132MOL    H8031782   5.429   4.631   2.957  0.3497 -0.6913 -0.3900
  132MOL    H8131783   5.423   4.436   3.194  0.3650  0.5259  0.7798
  132MOL    H8231784   5.323   4.415   3.044 -0.2625  0.9746  0.1864
  132MOL    H8331785   5.291   4.542   3.165  0.2255 -1.7761  2.0159
  132MOL    H8431786   5.640   4.691   3.058 -1.0137  1.6231 -0.9520
  132MOL    H8531787   5.626   4.568   3.183 -0.6539 -0.5307 -0.0217
  132MOL    O8631788   5.536   4.874   3.173  0.3383  0.5577  0.4420
  132MOL    C8731789   5.523   4.986   3.258  0.3544 -0.7707 -0.9832
  132MOL    C8831790   5.667   5.030   3.285  0.0481  0.1064 -0.0225
  132MOL    C8931791   5.429   5.105   3.220  0.4071 -0.0407  0.2645
  132MOL    C9031792   5.471   5.219   3.131  0.2300 -0.2755 -0.7128
  132MOL    O9131793   5.578   5.223   3.066 -0.8108 -0.5348 -1.1130
  132MOL    H9231794   5.494   4.952   3.358 -0.8166 -0.6632 -1.2692
  132MOL    H9331795   5.672   5.121   3.345 -0.3713  0.9061 -1.1761
  132MOL    H9431796   5.735   5.045   3.201  0.3886  0.9879  0.4060
  132MOL    H9531797   5.721   4.946   3.329 -0.9647 -0.6078 -0.1209
  132MOL    H9631798   5.418   5.151   3.319  0.6866 -2.8323  1.6264
  132MOL    H9731799   5.328   5.075   3.193  1.2870 -1.0033 -2.0702
  132MOL    O9831800   5.381   5.314   3.129  0.7832  0.3691  0.6061
  132MOL    C9931801   5.406   5.446   3.074  0.0877 -0.5033 -1.1309
  132MOL   C10031802   5.314   5.476   2.953 -0.2699 -0.2064  0.4201
  132MOL   C10131803   5.370   5.540   3.189 -0.0651 -0.6464  0.2618
  132MOL   C10231804   5.341   5.688   3.164  0.1794 -0.4126 -0.3139
  132MOL   O10331805   5.421   5.777   3.176 -0.1415  0.0240  0.1732
  132MOL   H10431806   5.508   5.467   3.039 -0.0715  0.9622 -0.7333
  132MOL   H10531807   5.312   5.393   2.882 -2.7628  0.2889 -0.1321
  132MOL   H10631808   5.351   5.562   2.898  3.3970  0.2353  3.4391
  132MOL   H10731809   5.207   5.480   2.975 -0.9947 -2.0589 -2.5337
  132MOL   H10831810   5.439   5.527   3.272 -1.0059 -0.3595  1.0928
  132MOL   H10931811   5.288   5.507   3.253 -0.8511  3.7996  1.7442
  132MOL   O11031812   5.213   5.704   3.131 -0.7046  0.3255  0.8706
  132MOL   C11131813   5.159   5.830   3.078 -0.1417  0.9433  0.3588
  132MOL   C11231814   5.139   5.817   2.931  0.5488 -0.0275 -0.2918
  132MOL   C11331815   5.038   5.881   3.160  0.3659  0.6772  0.4747
  132MOL   C11431816   4.915   5.787   3.157 -0.3316  0.8193 -0.3936
  132MOL   O11531817   4.818   5.805   3.086  0.0667 -0.1087 -0.3755
  132MOL   H11631818   5.228   5.913   3.091  0.6996  0.4797 -0.9868
  132MOL   H11731819   5.059   5.746   2.914 -1.0660  1.9001 -0.9261
  132MOL   H11831820   5.226   5.781   2.876 -0.0647  0.8885 -1.9077
  132MOL   H11931821   5.106   5.906   2.878 -0.6824 -0.6942 -0.6702
  132MOL   H12031822   5.007   5.977   3.117  2.6144  1.5614  0.7632
  132MOL   H12131823   5.069   5.910   3.260  0.3058 -0.1993  0.7490
  132MOL   O12231824   4.924   5.682   3.240  0.1558 -0.1600  0.2359
  132MOL   C12331825   4.823   5.587   3.259 -0.2095  0.2706 -0.5529
  132MOL   C12431826   4.864   5.472   3.163 -0.0063  0.2873 -0.0481
  132MOL   C12531827   4.808   5.543   3.404  0.3536  0.3915 -1.1719
  132MOL   C12631828   4.674   5.479   3.432 -0.1968 -0.0916  0.0995
  132MOL   O12731829   4.572   5.544   3.445 -0.3727 -0.3989 -0.9018
  132MOL   H12831830   4.730   5.635   3.230 -1.5323 -1.8013  0.1929
  132MOL   H12931831   4.865   5.508   3.060  3.1439 -1.3394 -0.6512
  132MOL   H13031832   4.795   5.389   3.173 -0.9080  0.9062 -1.0817
  132MOL   H13131833   4.965   5.437   3.186  0.9637  1.6898 -1.9469
  132MOL   H13231834   4.819   5.619   3.482 -1.8854  1.0670 -1.4809
  132MOL   H13331835   4.885   5.470   3.426 -0.9927 -0.7315 -0.1090
  132MOL   O13431836   4.689   5.346   3.430 -0.2701 -0.2561  0.2496
  132MOL   C13531837   4.581   5.264   3.454 -0.5346 -0.0520  0.4480
  132MOL   C13631838   4.581   5.159   3.344 -0.2583 -0.9754  0.2176
  132MOL   C13731839   4.563   5.210   3.594  0.2646 -0.6265  0.6997
  132MOL   C13831840   4.534   5.306   3.709 -0.0982  0.0976  0.0264
  132MOL   O13931841   4.430   5.290   3.776 -0.5057  0.0130 -0.3111
  132MOL   H14031842   4.493   5.324   3.429  0.9783  2.9488  2.0896
  132MOL   H14131843   4.674   5.102   3.338  1.4461  1.3951  2.6967
  132MOL   H14231844   4.581   5.203   3.244 -0.2911  2.0952  1.5084
  132MOL   H14331845   4.490   5.101   3.355  0.5606 -2.2746  0.2747
  132MOL   H14431846   4.646   5.143   3.612  0.0858 -0.7570  1.0384
  132MOL   H14531847   4.487   5.132   3.595 -1.9975  1.4711 -0.0101
  132MOL   O14631848   4.644   5.394   3.724 -0.2094 -0.3582 -0.1759
  132MOL   C14731849   4.651   5.494   3.823  0.0889 -0.3821 -0.4859
  132MOL   C14831850   4.738   5.451   3.935 -0.2329 -0.1989  0.2504
  132MOL   C14931851   4.668   5.633   3.753 -0.4850  0.1193 -0.4272
  132MOL   C15031852   4.659   5.750   3.846 -0.1563  0.0890  0.5780
  132MOL   O15131853   4.747   5.840   3.841 -0.0613  0.6231  0.2219
  132MOL   H15231854   4.555   5.503   3.875  0.4039  0.7140 -0.0700
  132MOL   H15331855   4.759   5.526   4.012 -0.5035  1.5964 -1.3744
  132MOL   H15431856   4.831   5.414   3.892  0.7815  1.0520  1.3012
  132MOL   H15531857   4.700   5.356   3.972  2.0354 -0.8239  1.1030
  132MOL   H15631858   4.584   5.653   3.686 -1.8715 -0.8264  0.9900
  132MOL   H15731859   4.765   5.646   3.705  0.4069 -0.7714  1.1240
  132MOL   O15831860   4.557   5.745   3.934  0.1067  0.2288 -0.1957
  132MOL   C15931861   4.515   5.866   3.996 -0.3481 -0.1922 -0.6312
  132MOL   C16031862   4.360   5.859   4.019 -0.0278 -0.0047 -0.2308
  132MOL   C16131863   4.600   5.895   4.119  0.0238  0.1123  0.4512
  132MOL   C16231864   4.590   5.802   4.233  0.5943  0.7534  0.2010
  132MOL   O16331865   4.497   5.718   4.250 -0.1564  0.2826  0.8589
  132MOL   H16431866   4.538   5.948   3.928 -1.7268  0.4040 -0.3895
  132MOL   H16531867   4.332   5.758   4.049 -0.0634 -0.3251 -1.3421
  132MOL   H16631868   4.312   5.873   3.922  1.7691 -0.7929 -1.2583
  132MOL   H16731869   4.325   5.934   4.090 -1.1691 -2.1543  1.5560
  132MOL   H16831870   4.545   5.979   4.162 -2.6390 -1.2634 -0.1315
  132MOL   H16931871   4.702   5.919   4.090 -1.0686  2.1004 -1.8757
  132MOL   O17031872   4.691   5.815   4.320 -0.6009 -0.0522 -0.2535
  132MOL   C17131873   4.690   5.741   4.444  0.2741 -0.1153  0.1830
  132MOL   C17231874   4.811   5.652   4.432 -0.0577 -0.4360  0.7404
  132MOL   C17331875   4.701   5.841   4.566  0.2741  0.1166 -0.2283
  132MOL   C17431876   4.567   5.909   4.606 -0.2250 -0.3098  0.2992
  132MOL   O17531877   4.559   6.019   4.660  0.2798  0.0398 -0.9347
  132MOL   H17631878   4.598   5.685   4.462  0.1481 -0.0034 -0.1241
  132MOL   H17731879   4.908   5.702   4.434 -1.2898  2.1396 -0.8807
  132MOL   H17831880   4.811   5.589   4.343 -0.3964 -0.5371  0.8099
  132MOL   H17931881   4.812   5.584   4.517 -0.5585  1.2146  2.0849
  132MOL   H18031882   4.774   5.917   4.539  0.7342 -0.5709 -0.9418
  132MOL   H18131883   4.737   5.785   4.652  0.4146  0.6918  0.0916
  132MOL   O18231884   4.460   5.832   4.578  0.4880 -0.7132  0.3294
  132MOL   C18331885   4.323   5.866   4.611 -0.2594  0.0707 -0.2903
  132MOL   C18431886   4.235   5.923   4.503 -0.2710 -0.1934  0.0792
  132MOL   C18531887   4.263   5.739   4.671 -0.2219 -0.3361  0.2615
  132MOL   C18631888   4.153   5.756   4.775  0.0074  0.2492  0.1594
  132MOL   O18731889   4.128   5.864   4.830 -0.0504  0.0985  0.5243
  132MOL   H18831890   4.326   5.947   4.684 -2.9847  1.9479 -2.1915
  132MOL   H18931891   4.259   6.026   4.479  0.4846 -0.0462  1.4058
  132MOL   H19031892   4.135   5.941   4.540 -0.1836  0.6767 -0.1069
  132MOL   H19131893   4.242   5.855   4.418  1.8206  0.3519 -0.2121
  132MOL   H19231894   4.347   5.682   4.708  0.4576  0.3061 -0.2639
  132MOL   H19331895   4.222   5.679   4.590  0.5916  0.8230 -1.0275
  132MOL   O19431896   4.067   5.655   4.778 -0.3667 -0.3146 -0.1067
  132MOL   C19531897   3.941   5.670   4.852 -0.5754  0.9751 -0.0159
  132MOL   C19631898   3.825   5.712   4.760  0.5052  0.1582 -0.2938
  132MOL   C19731899   3.925   5.536   4.927 -0.2215  0.0351 -0.3291
  132MOL   C19831900   3.788   5.527   4.997  0.3426 -0.6291  0.5266
  132MOL   O19931901   3.707   5.436   4.974 -0.7001 -0.9751  0.4780
  132MOL   H20031902   3.960   5.749   4.924  0.7746  1.3306 -0.7368
  132MOL   H20131903   3.852   5.813   4.731  1.2286  0.1238  0.2399
  132MOL   H20231904   3.733   5.721   4.817  1.4145  2.0825  0.9283
  132MOL   H20331905   3.810   5.639   4.680  1.5798  0.2567 -0.5919
  132MOL   H20431906   4.015   5.530   4.989  1.3449 -1.2684 -2.6426
  132MOL   H20531907   3.933   5.459   4.850  0.4070  0.0534 -0.2836
  132MOL   O20631908   3.774   5.619   5.093  0.4393  0.2690 -0.3120
  132MOL   C20731909   3.644   5.639   5.152 -0.7953  0.3568  0.1805
  132MOL   C20831910   3.620   5.531   5.255 -0.0920 -0.6080  0.6397
  132MOL   C20931911   3.643   5.774   5.215 -0.0847  0.5959  0.0941
  132MOL   C21031912   3.587   5.894   5.137 -0.0561  0.6057 -0.1972
  132MOL   O21131913   3.509   5.972   5.186 -0.1440 -0.2686 -0.2320
  132MOL   H21231914   3.567   5.631   5.075  0.4576 -0.5582 -1.0059
  132MOL   H21331915   3.645   5.437   5.204 -3.5763 -1.2502 -0.0226
  132MOL   H21431916   3.516   5.520   5.286  0.0331 -0.6462  1.0378
  132MOL   H21531917   3.680   5.537   5.345  0.9584  6.0230 -0.3060
  132MOL   H21631918   3.742   5.807   5.245 -0.5793  1.8370  0.3870
  132MOL   H21731919   3.583   5.778   5.306  1.1008  2.4656  0.8243
  132MOL   O21831920   3.596   5.888   5.005 -0.7163 -0.1706  0.4365
  132MOL   C21931921   3.540   5.986   4.915 -0.0052  0.1410  0.1477
  132MOL   C22031922   3.636   6.112   4.904 -0.2493 -0.1830 -0.4344
  132MOL   C22131923   3.512   5.910   4.782 -0.0181 -0.0996  0.4456
  132MOL   C22231924   3.438   5.996   4.673 -0.2655  0.5045 -0.0857
  132MOL   O22331925   3.472   5.998   4.556 -0.1575 -0.2836 -0.6562
  132MOL   H22431926   3.443   6.017   4.954  0.8102  1.2812  1.2696
  132MOL   H22531927   3.594   6.185   4.835  0.0314  1.1546  0.7737
  132MOL   H22631928   3.732   6.074   4.867  1.1136  2.6771  0.0122
  132MOL   H22731929   3.658   6.165   4.997 -1.5125  2.4554 -1.5898
  132MOL   H22831930   3.457   5.818   4.799  1.7898 -1.0498  1.3423
  132MOL   H22931931   3.608   5.890   4.735  0.3794 -0.9930  1.6105
  132MOL   O23031932   3.324   6.049   4.730  0.1589 -0.7238 -0.1731
  132MOL   C23131933   3.238   6.136   4.660  0.9282  0.5912  0.3645
  132MOL   C23231934   3.093   6.094   4.696 -0.0589 -0.0797  0.8189
  132MOL   C23331935   3.281   6.277   4.696 -0.1450 -0.2495 -0.2059
  132MOL   C23431936   3.368   6.335   4.590  0.2397 -0.5346  0.5030
  132MOL   O23531937   3.420   6.445   4.616 -0.4770 -0.2803 -0.5206
  132MOL   H23631938   3.255   6.118   4.554 -0.0078  3.7262 -0.3713
  132MOL   H23731939   3.022   6.153   4.639 -0.5757 -0.4147  1.1184
  132MOL   H23831940   3.075   6.102   4.803  1.0243  1.1256  0.9291
  132MOL   H23931941   3.084   5.996   4.650 -1.9901  0.6004 -0.2985
  132MOL   H24031942   3.336   6.273   4.791  0.5878  0.2650 -0.6017
  132MOL   H24131943   3.197   6.342   4.718  0.9858  1.4755 -0.8932
  132MOL   H24231944   3.389   6.274   4.502 -1.1305 -1.4184  0.7775
  133MOL     O131945   6.541   2.498   1.660 -0.3961  0.6546  0.4109
  133MOL     C231946   6.410   2.493   1.722 -0.4302 -0.7170  0.2216
  133MOL     C331947   6.307   2.477   1.612 -0.1740  1.1029  0.1159
  133MOL     C431948   6.414   2.372   1.821 -0.1065  0.7713 -0.6116
  133MOL     C531949   6.288   2.345   1.906  0.6807 -0.1826 -0.2363
  133MOL     O631950   6.230   2.232   1.908  0.1733 -0.2767 -0.1659
  133MOL     H731951   6.374   2.581   1.776 -1.6660 -2.3802  2.1680
  133MOL     H831952   6.201   2.470   1.633 -0.3601  0.1364 -1.1071
  133MOL     H931953   6.336   2.389   1.555 -1.1441  1.5849 -1.1267
  133MOL    H1031954   6.326   2.556   1.540 -0.1649  0.8456 -0.1670
  133MOL    H1131955   6.499   2.377   1.889  0.9634  1.1594 -1.9714
  133MOL    H1231956   6.428   2.281   1.764 -0.3752 -0.3223  1.0284
  133MOL    H1331957   6.565   2.590   1.663 -1.3286  0.9098  0.2287
  133MOL    O1431958   6.260   2.450   1.993 -0.6606 -0.1190  0.2219
  133MOL    C1531959   6.154   2.441   2.084 -0.0520  0.1629 -0.7166
  133MOL    C1631960   6.210   2.385   2.216  0.2768 -0.1829 -0.4174
  133MOL    C1731961   6.083   2.577   2.094  0.0700  0.3659  0.1871
  133MOL    C1831962   5.953   2.572   2.014  0.4627  0.5003  0.5733
  133MOL    O1931963   5.843   2.591   2.064 -0.2575  0.8187 -0.2473
  133MOL    H2031964   6.088   2.365   2.044  0.7627 -0.6582 -0.5283
  133MOL    H2131965   6.275   2.462   2.257  1.1396  0.0159 -2.1337
  133MOL    H2231966   6.276   2.299   2.210  1.1811  0.4695  0.0691
  133MOL    H2331967   6.124   2.367   2.282  0.1038 -2.9178 -1.3029
  133MOL    H2431968   6.136   2.669   2.072  1.6971 -0.9368 -1.5507
  133MOL    H2531969   6.049   2.598   2.195 -2.2704  1.4632 -0.8065
  133MOL    O2631970   5.976   2.534   1.877  0.4380  0.4185  0.2183
  133MOL    C2731971   5.868   2.499   1.793 -1.0434 -0.4343 -0.2813
  133MOL    C2831972   5.867   2.603   1.677 -0.5747  0.2394 -0.2376
  133MOL    C2931973   5.892   2.364   1.730  0.1524  0.4995 -0.1941
  133MOL    C3031974   5.840   2.246   1.811  0.1993  0.0383 -0.2079
  133MOL    O3131975   5.883   2.215   1.922 -0.1243 -0.1912  0.5934
  133MOL    H3231976   5.773   2.504   1.845  0.1936  1.0075  1.9333
  133MOL    H3331977   5.966   2.608   1.630 -0.8854  1.4327 -0.7710
  133MOL    H3431978   5.856   2.700   1.726 -3.0316 -0.1092 -0.0410
  133MOL    H3531979   5.790   2.578   1.605 -2.0107 -1.5575  1.8555
  133MOL    H3631980   5.993   2.346   1.693 -1.0585 -1.2924 -2.7459
  133MOL    H3731981   5.842   2.350   1.634 -0.0650  1.4504 -0.2272
  133MOL    O3831982   5.743   2.174   1.745 -0.5249  0.3447  0.5435
  133MOL    C3931983   5.684   2.064   1.810 -0.9626  0.4759 -0.3486
  133MOL    C4031984   5.533   2.101   1.818  0.5760  0.1696 -0.7528
  133MOL    C4131985   5.714   1.931   1.734 -0.6643  0.5185 -0.9063
  133MOL    C4231986   5.850   1.866   1.782  0.1978 -1.2065  0.4131
  133MOL    O4331987   5.929   1.823   1.699  0.1384 -0.3235 -0.0063
  133MOL    H4431988   5.707   2.046   1.915  0.6214  2.0919 -0.3821
  133MOL    H4531989   5.482   2.052   1.901 -0.1917  2.1357 -0.0279
  133MOL    H4631990   5.477   2.074   1.729 -1.8240  0.9227  0.5049
  133MOL    H4731991   5.511   2.206   1.837  1.1536  0.0145  0.9474
  133MOL    H4831992   5.703   1.947   1.627  0.8829 -1.3825 -1.3814
  133MOL    H4931993   5.634   1.859   1.757 -0.9199  1.6883  2.1114
  133MOL    O5031994   5.857   1.850   1.911 -0.3833  0.0115  0.1579
  133MOL    C5131995   5.971   1.793   1.973  0.2559 -0.1947  0.3334
  133MOL    C5231996   5.978   1.883   2.097 -0.0016 -0.1981  0.5610
  133MOL    C5331997   5.954   1.655   2.025  0.5145 -0.1500  0.3416
  133MOL    C5431998   5.948   1.537   1.928  0.3255  0.2937 -0.0246
  133MOL    O5531999   5.864   1.445   1.936  0.2285 -0.2226  0.2687
  133MOL    H5632000   6.060   1.787   1.911 -0.8751  0.6669 -1.4192
  133MOL    H5732001   6.068   1.849   2.148 -0.1454  0.0724  0.9902
  133MOL    H5832002   5.889   1.885   2.159 -0.0179  2.3471  0.5130
  133MOL    H5932003   5.982   1.990   2.078 -0.6193 -0.6173 -2.1260
  133MOL    H6032004   5.861   1.647   2.081  0.1404 -2.6509 -0.5510
  133MOL    H6132005   6.033   1.626   2.094  0.9853 -2.4912 -1.1006
  133MOL    O6232006   6.039   1.543   1.830  0.2965  0.2831  0.2821
  133MOL    C6332007   6.050   1.447   1.731 -0.4923 -0.1941 -0.6472
  133MOL    C6432008   5.981   1.488   1.606  0.1301  0.0716  0.6650
  133MOL    C6532009   6.189   1.394   1.707  0.6028  0.1195 -0.0290
  133MOL    C6632010   6.227   1.261   1.781  0.0009 -0.4794  0.7169
  133MOL    O6732011   6.156   1.219   1.876  0.4109  0.4770  0.0369
  133MOL    H6832012   5.991   1.359   1.759  1.2017 -1.7025 -1.6723
  133MOL    H6932013   5.895   1.553   1.620 -0.6105 -0.2301 -2.1538
  133MOL    H7032014   5.941   1.397   1.560 -1.4202 -0.1206  2.3533
  133MOL    H7132015   6.054   1.535   1.540 -1.9496  0.8217 -1.1556
  133MOL    H7232016   6.261   1.473   1.730  0.8728 -1.0928  3.4824
  133MOL    H7332017   6.189   1.374   1.600  1.6696  0.4314 -0.0958
  133MOL    O7432018   6.337   1.207   1.734  0.2467  0.6001  0.2610
  133MOL    C7532019   6.369   1.068   1.759 -0.4317  0.6250  0.4539
  133MOL    C7632020   6.462   1.009   1.650  0.3087 -0.0978 -0.3122
  133MOL    C7732021   6.422   1.047   1.902  0.0128  0.3078  0.2334
  133MOL    C7832022   6.405   0.900   1.953  0.2197 -0.6940  0.8453
  133MOL    O7932023   6.366   0.806   1.883 -0.2438 -0.6362  0.6855
  133MOL    H8032024   6.279   1.009   1.744 -0.3664  0.6401 -0.0073
  133MOL    H8132025   6.414   1.027   1.553  0.9956  1.1598 -0.4389
  133MOL    H8232026   6.462   0.902   1.669  1.5612 -0.1120 -0.3580
  133MOL    H8332027   6.563   1.051   1.652  0.7596 -1.2393  1.5744
  133MOL    H8432028   6.367   1.103   1.976 -1.0970 -0.9129  0.3481
  133MOL    H8532029   6.525   1.083   1.907  0.1185 -0.2234  1.9746
  133MOL    O8632030   6.456   0.884   2.075  0.4893 -0.3288 -0.5640
  133MOL    C8732031   6.476   0.762   2.136 -0.0247  0.5045 -0.5524
  133MOL    C8832032   6.587   0.792   2.232 -0.0426 -0.0852 -0.1931
  133MOL    C8932033   6.345   0.703   2.200 -0.2127  0.1543 -0.2910
  133MOL    C9032034   6.365   0.578   2.287 -0.3528  0.0324 -1.0063
  133MOL    O9132035   6.382   0.587   2.407  0.0227  0.0731 -0.0033
  133MOL    H9232036   6.503   0.698   2.052 -2.7336  0.4007 -1.3925
  133MOL    H9332037   6.561   0.876   2.296 -0.7554 -0.8899  0.5834
  133MOL    H9432038   6.674   0.813   2.170 -0.7760  0.2562 -1.1299
  133MOL    H9532039   6.607   0.714   2.305  0.5184  0.8877  0.6955
  133MOL    H9632040   6.278   0.678   2.117 -1.1675  1.7013 -0.0181
  133MOL    H9732041   6.303   0.782   2.262  0.2544 -0.4012  0.7364
  133MOL    O9832042   6.362   0.464   2.218 -0.3413 -0.0862 -0.0510
  133MOL    C9932043   6.404   0.343   2.276  0.6072  0.2921  0.3539
  133MOL   C10032044   6.291   0.250   2.329 -0.4326 -0.3909 -0.1325
  133MOL   C10132045   6.489   0.266   2.174 -0.1493 -0.0371  0.5079
  133MOL   C10232046   6.629   0.336   2.174  0.3864 -0.0515 -0.5479
  133MOL   O10332047   6.667   0.382   2.063  0.3837  0.2012 -0.3861
  133MOL   H10432048   6.458   0.367   2.368  0.5535 -1.9021  0.9876
  133MOL   H10532049   6.239   0.189   2.256  0.4725  0.9724 -1.9363
  133MOL   H10632050   6.214   0.302   2.386  0.1143 -0.4961  0.7124
  133MOL   H10732051   6.337   0.185   2.405 -1.6928 -2.4017 -1.0447
  133MOL   H10832052   6.442   0.274   2.076  1.5145 -1.3578 -0.4218
  133MOL   H10932053   6.495   0.166   2.215 -1.9519  0.2235  1.4791
  133MOL   O11032054   6.698   0.336   2.289  0.3621 -0.3657 -0.5196
  133MOL   C11132055   6.834   0.379   2.285 -0.1233  0.4355 -0.0946
  133MOL   C11232056   6.829   0.501   2.382 -0.1219  0.3124  0.4684
  133MOL   C11332057   6.940   0.276   2.346  0.0184  0.0787 -1.1098
  133MOL   C11432058   6.993   0.165   2.253  0.6511  1.2310  0.1447
  133MOL   O11532059   7.046   0.064   2.306  0.7743 -0.4508  0.1928
  133MOL   H11632060   6.861   0.403   2.182  2.0213 -1.0460  0.0853
  133MOL   H11732061   6.846   0.465   2.484  0.9679 -1.0324 -0.1747
  133MOL   H11832062   6.737   0.560   2.381  0.4202  1.1648  0.7180
  133MOL   H11932063   6.893   0.585   2.355 -0.1501 -0.1687 -1.1125
  133MOL   H12032064   6.905   0.219   2.432 -0.7001  0.6671 -1.0138
  133MOL   H12132065   7.029   0.332   2.373  0.2495 -0.2903 -1.0920
  133MOL   O12232066   6.978   0.188   2.122 -0.2843 -0.1480  0.4463
  133MOL   C12332067   6.990   0.087   2.022  0.3399  0.0610  0.1578
  133MOL   C12432068   6.849   0.081   1.948 -0.6135 -0.0731  0.5720
  133MOL   C12532069   7.094   0.137   1.924 -0.0143 -0.4086 -0.2102
  133MOL   C12632070   7.185   0.037   1.863  0.0548 -0.3092  0.3230
  133MOL   O12732071   7.182   0.009   1.741  0.2186  0.8584  0.2991
  133MOL   H12832072   7.005   7.968   2.064 -0.1615 -0.3186 -0.5413
  133MOL   H12932073   6.851   7.976   1.880  0.8362 -1.1508  1.9375
  133MOL   H13032074   6.828   0.163   1.878  0.8350 -1.0818 -1.0720
  133MOL   H13132075   6.765   0.058   2.013 -1.3236  0.2967 -0.1999
  133MOL   H13232076   7.163   0.204   1.975 -0.6700  0.6946 -0.7386
  133MOL   H13332077   7.044   0.199   1.850 -1.0932  0.3697  1.1498
  133MOL   O13432078   7.272   7.969   1.956 -0.7134  0.4648  0.2321
  133MOL   C13532079   7.387   7.892   1.927 -0.5572 -0.4664 -0.9153
  133MOL   C13632080   7.503   7.965   1.992  0.0465 -0.0581  0.0562
  133MOL   C13732081   7.381   7.735   1.963 -0.5159  0.1014 -0.1006
  133MOL   C13832082   7.307   7.669   1.848 -0.0728 -1.1850 -0.1783
  133MOL   O13932083   7.183   7.655   1.845 -0.1682 -0.4785  0.3263
  133MOL   H14032084   7.418   7.910   1.824  1.2500  0.5698 -0.2135
  133MOL   H14132085   7.524   0.081   1.945 -2.2497  0.3224 -0.2390
  133MOL   H14232086   7.598   7.917   1.969  0.6351  0.8902  0.4866
  133MOL   H14332087   7.504   0.002   2.099 -0.8569 -1.3880  0.2922
  133MOL   H14432088   7.336   7.722   2.062 -0.1338  1.2411  0.2284
  133MOL   H14532089   7.478   7.688   1.980 -0.0433  0.7172 -1.0703
  133MOL   O14632090   7.395   7.632   1.750 -0.2437 -0.0873 -0.6658
  133MOL   C14732091   7.347   7.574   1.632 -0.2508 -0.2158 -0.2567
  133MOL   C14832092   7.438   7.635   1.517 -0.2862 -0.3302 -0.3767
  133MOL   C14932093   7.344   7.422   1.635  0.1059 -0.6284  0.1269
  133MOL   C15032094   7.484   7.361   1.668  0.4848  0.0679 -0.1392
  133MOL   O15132095   7.541   7.290   1.584 -0.1411  0.0149  0.2278
  133MOL   H15232096   7.252   7.624   1.614  0.6915  1.3083 -1.1881
  133MOL   H15332097   7.391   7.604   1.424  1.2609  0.0571 -1.3122
  133MOL   H15432098   7.538   7.593   1.526  1.4273  3.2597 -1.4634
  133MOL   H15532099   7.456   7.743   1.519 -1.5267 -0.0774 -1.8336
  133MOL   H15632100   7.301   7.378   1.545  0.3104  0.4884 -0.5236
  133MOL   H15732101   7.278   7.391   1.717  0.3422  1.0974  0.9944
  133MOL   O15832102   7.526   7.374   1.794 -0.2029 -0.9926 -0.1635
  133MOL   C15932103   7.663   7.363   1.818 -0.2425 -0.3454 -0.6308
  133MOL   C16032104   7.723   7.495   1.861  0.3058 -0.0629  0.1865
  133MOL   C16132105   7.678   7.253   1.914 -0.3631  0.9715 -0.5418
  133MOL   C16232106   7.685   7.119   1.841  0.1213  0.3484  0.0637
  133MOL   O16332107   7.600   7.028   1.864 -0.1519  0.1628 -0.2975
  133MOL   H16432108   7.724   7.335   1.732 -0.0478 -3.4941  0.4563
  133MOL   H16532109   7.667   7.533   1.946  0.4295 -1.4410  0.9174
  133MOL   H16632110   7.701   7.556   1.774  0.5422 -2.2573 -1.4849
  133MOL   H16732111   7.831   7.496   1.875  0.1251  1.1140  1.6091
  133MOL   H16832112   7.607   7.258   1.996  0.2275  0.6760 -0.0123
  133MOL   H16932113   7.774   7.267   1.964  0.2288 -0.6068 -1.2142
  133MOL   O17032114   7.775   7.117   1.738 -0.1654  0.2432  0.7323
  133MOL   C17132115   7.773   7.018   1.637 -0.1527 -0.2739  0.0195
  133MOL   C17232116   7.838   7.070   1.510  0.3501  0.2516 -0.1360
  133MOL   C17332117   7.834   6.888   1.688  0.2502  0.1055  0.0915
  133MOL   C17432118   7.860   6.775   1.590  0.7627  0.3824  0.3630
  133MOL   O17532119   7.970   6.741   1.541  0.1665  0.4010 -0.3064
  133MOL   H17632120   7.672   6.985   1.611 -0.1912 -0.5177  0.4639
  133MOL   H17732121   7.814   7.175   1.494  0.4191  0.1978 -0.6026
  133MOL   H17832122   7.816   7.012   1.420  0.5656 -0.8903  0.5318
  133MOL   H17932123   7.947   7.065   1.523  0.4861  1.4124 -0.7812
  133MOL   H18032124   7.768   6.846   1.764 -0.4928 -1.1387 -1.2160
  133MOL   H18132125   7.932   6.895   1.735 -0.0461 -0.6400  0.8350
  133MOL   O18232126   7.746   6.708   1.558 -0.2065 -0.6633 -0.3387
  133MOL   C18332127   7.744   6.602   1.470  0.6839 -0.2797 -0.1481
  133MOL   C18432128   7.646   6.499   1.529  0.0658 -0.5110  0.0865
  133MOL   C18532129   7.692   6.658   1.344  0.7458 -0.0771 -0.5487
  133MOL   C18632130   7.547   6.712   1.345  0.1487 -0.8760  0.1926
  133MOL   O18732131   7.449   6.666   1.280 -0.2908  0.2841  0.2404
  133MOL   H18832132   7.844   6.560   1.458  0.5458 -0.5679 -0.2929
  133MOL   H18932133   7.638   6.411   1.465  2.3286 -1.3536  0.9433
  133MOL   H19032134   7.550   6.543   1.557  1.2274  1.2631  1.3935
  133MOL   H19132135   7.684   6.451   1.619  3.6830 -1.6532 -1.9342
  133MOL   H19232136   7.700   6.575   1.274  0.6008 -1.3047  0.8598
  133MOL   H19332137   7.754   6.743   1.317 -0.6832  0.3176 -2.7847
  133MOL   O19432138   7.541   6.826   1.418  0.5556 -0.0672 -0.0433
  133MOL   C19532139   7.424   6.903   1.436 -0.2149 -0.4956 -0.0827
  133MOL   C19632140   7.390   6.898   1.589 -0.1591 -0.0499 -0.6726
  133MOL   C19732141   7.456   7.051   1.398 -0.5991  0.2421  0.0441
  133MOL   C19832142   7.453   7.062   1.244 -0.2292  0.1540  0.6629
  133MOL   O19932143   7.363   7.132   1.195  0.2862 -0.3231 -0.1575
  133MOL   H20032144   7.333   6.875   1.382  0.5891  0.6861 -2.1110
  133MOL   H20132145   7.326   6.982   1.616 -1.6421 -0.9489 -1.3155
  133MOL   H20232146   7.476   6.895   1.656  1.4206 -0.0277 -2.6565
  133MOL   H20332147   7.346   6.800   1.610  0.5956 -0.4502 -0.9667
  133MOL   H20432148   7.554   7.074   1.439 -0.5531  1.8665 -0.9463
  133MOL   H20532149   7.385   7.126   1.431 -1.4426 -0.3316 -0.4455
  133MOL   O20632150   7.544   6.986   1.179 -0.2851 -0.2927  0.5754
  133MOL   C20732151   7.531   6.972   1.039  1.2180 -1.1028  0.2332
  133MOL   C20832152   7.592   7.097   0.972 -0.1261  0.4151 -0.7361
  133MOL   C20932153   7.593   6.839   0.997 -0.1729  0.1173  0.5122
  133MOL   C21032154   7.596   6.798   0.851  0.4288  0.5101  0.1011
  133MOL   O21132155   7.496   6.788   0.788 -0.3774  0.0222 -0.1797
  133MOL   H21232156   7.425   6.961   1.015  1.6098  0.9906 -2.8757
  133MOL   H21332157   7.594   7.089   0.863  2.9143  1.4281 -0.8144
  133MOL   H21432158   7.694   7.122   1.004 -1.2275  1.0713  2.4488
  133MOL   H21532159   7.537   7.187   1.001  0.0151  0.7881 -1.6101
  133MOL   H21632160   7.545   6.759   1.054 -2.5915  1.4815  0.4433
  133MOL   H21732161   7.696   6.833   1.034  0.0012 -1.2387 -0.1526
  133MOL   O21832162   7.725   6.777   0.816  0.2732 -0.3866 -0.2816
  133MOL   C21932163   7.765   6.763   0.683 -0.5866  0.1126  0.4228
  133MOL   C22032164   7.914   6.785   0.670 -0.3631 -0.1714  0.3810
  133MOL   C22132165   7.727   6.626   0.627  0.1818  0.2361 -0.2477
  133MOL   C22232166   7.788   6.595   0.495  0.1130 -1.0887 -0.0977
  133MOL   O22332167   7.888   6.523   0.480 -0.4970  0.3242  0.1120
  133MOL   H22432168   7.717   6.838   0.619 -2.3540 -1.2270  0.1555
  133MOL   H22532169   7.932   6.882   0.716 -0.8973  0.1689 -0.1182
  133MOL   H22632170   7.966   6.773   0.574  0.5264 -1.5712  1.0138
  133MOL   H22732171   7.973   6.710   0.722 -2.0588 -0.6674  1.6164
  133MOL   H22832172   7.619   6.623   0.614  0.0729  1.0964  0.4573
  133MOL   H22932173   7.759   6.555   0.704 -0.5308 -1.7639 -1.7469
  133MOL   O23032174   7.712   6.645   0.397 -0.2972  0.1092  0.2674
  133MOL   C23132175   7.744   6.624   0.258  0.2463  0.6428 -0.0510
  133MOL   C23232176   7.667   6.492   0.222  0.0778  0.2928  0.1024
  133MOL   C23332177   7.698   6.750   0.187  0.2016  0.0413 -0.2248
  133MOL   C23432178   7.728   6.743   0.035  0.4774  0.5755 -0.0858
  133MOL   O23532179   7.834   6.692   7.979 -0.8098 -0.4646 -0.6131
  133MOL   H23632180   7.852   6.617   0.260  0.3601  2.1670  3.7527
  133MOL   H23732181   7.559   6.507   0.232  0.3933  3.5534 -0.8011
  133MOL   H23832182   7.686   6.407   0.287 -2.1931 -0.5087 -0.2209
  133MOL   H23932183   7.685   6.465   0.118 -0.1827 -0.2461  0.1960
  133MOL   H24032184   7.757   6.832   0.227 -1.0130  0.1238  1.4198
  133MOL   H24132185   7.594   6.775   0.203 -0.1647 -0.1719 -2.0785
  133MOL   H24232186   7.647   6.795   7.963 -1.2157 -0.8095  1.0935
  134MOL     O132187   6.661   5.726   7.488 -0.2593 -0.3006  0.0627
  134MOL     C232188   6.736   5.819   7.409  0.1183  0.0777  0.3456
  134MOL     C332189   6.880   5.762   7.408 -0.3268  0.2792 -0.1119
  134MOL     C432190   6.683   5.816   7.265  0.3693 -0.4841  0.0684
  134MOL     C532191   6.727   5.938   7.175  0.0384  0.3023 -0.0023
  134MOL     O632192   6.802   6.029   7.210 -0.3528 -0.1054 -0.2599
  134MOL     H732193   6.738   5.919   7.452  0.6059 -0.7614  2.2835
  134MOL     H832194   6.898   5.654   7.399 -0.5135  0.2004  0.4582
  134MOL     H932195   6.925   5.789   7.503 -0.9260  1.5017 -0.1676
  134MOL    H1032196   6.936   5.809   7.328  3.0515 -3.7027 -0.2648
  134MOL    H1132197   6.577   5.838   7.266  0.3964 -0.3516  1.5323
  134MOL    H1232198   6.693   5.719   7.217 -0.0737 -0.5628  0.1411
  134MOL    H1332199   6.573   5.751   7.513 -0.2430 -1.9943  1.9748
  134MOL    O1432200   6.683   5.918   7.050  0.3301  0.2976  0.1954
  134MOL    C1532201   6.696   6.016   6.953 -0.0082  0.3250 -0.2458
  134MOL    C1632202   6.686   5.944   6.810 -0.2945  0.2673  0.2510
  134MOL    C1732203   6.609   6.143   6.969  1.2358 -0.4141  0.1846
  134MOL    C1832204   6.639   6.265   6.881 -0.5978 -0.2561 -0.2661
  134MOL    O1932205   6.753   6.291   6.850 -0.1735 -0.4160 -0.0324
  134MOL    H2032206   6.798   6.054   6.962 -0.0110  0.8370 -2.1647
  134MOL    H2132207   6.757   5.861   6.813 -0.6600 -0.0142  1.2696
  134MOL    H2232208   6.715   6.006   6.726  0.9410 -0.2398  0.2937
  134MOL    H2332209   6.594   5.908   6.765  0.3591  0.4984 -1.2830
  134MOL    H2432210   6.613   6.178   7.072 -0.2355  0.4412 -0.0314
  134MOL    H2532211   6.504   6.117   6.981  1.0401  1.0712  1.9579
  134MOL    O2632212   6.527   6.329   6.829  0.4393 -0.2451 -0.2932
  134MOL    C2732213   6.531   6.441   6.742  0.4399 -0.5005 -0.3480
  134MOL    C2832214   6.384   6.452   6.705  0.4115 -0.6288  0.4909
  134MOL    C2932215   6.594   6.565   6.812  0.0676 -0.3060  0.1442
  134MOL    C3032216   6.622   6.687   6.719  0.5355  0.3755 -0.1255
  134MOL    O3132217   6.580   6.687   6.598 -0.3701  0.3385 -0.1028
  134MOL    H3232218   6.581   6.417   6.648 -0.1396  0.6953 -0.9713
  134MOL    H3332219   6.357   6.527   6.631 -0.5467 -0.5306  0.9324
  134MOL    H3432220   6.330   6.479   6.795  0.2212 -3.5458  1.3197
  134MOL    H3532221   6.323   6.365   6.680  0.0122 -0.9642  2.5431
  134MOL    H3632222   6.687   6.524   6.853  0.7169  0.8511 -0.1368
  134MOL    H3732223   6.525   6.589   6.893 -0.9492 -1.3667 -0.4001
  134MOL    O3832224   6.683   6.792   6.778 -0.2281  0.0716 -0.2529
  134MOL    C3932225   6.686   6.920   6.712 -0.5032 -0.1143  0.2928
  134MOL    C4032226   6.684   7.030   6.817  0.5260  0.1078 -0.3727
  134MOL    C4132227   6.800   6.940   6.606 -0.5792 -0.0053 -0.1960
  134MOL    C4232228   6.942   6.916   6.656 -0.0821 -0.0333 -0.0441
  134MOL    O4332229   6.971   6.831   6.738  0.7389  0.3830 -0.1535
  134MOL    H4432230   6.593   6.926   6.656  0.1833  0.6445 -0.8042
  134MOL    H4532231   6.605   7.017   6.892 -0.7814 -0.0848 -1.7591
  134MOL    H4632232   6.659   7.127   6.772  2.6132  1.3956  1.1549
  134MOL    H4732233   6.771   7.050   6.879 -0.1260 -0.3754  0.7073
  134MOL    H4832234   6.794   7.041   6.566  0.7081 -0.2595 -1.0632
  134MOL    H4932235   6.791   6.875   6.519 -0.6609  0.6598 -0.6817
  134MOL    O5032236   7.035   7.000   6.596  0.0943  0.5379  0.1610
  134MOL    C5132237   7.175   6.996   6.630  0.0218 -0.5591  0.9871
  134MOL    C5232238   7.265   6.951   6.511 -0.5002 -0.1166 -0.1964
  134MOL    C5332239   7.219   7.129   6.676 -0.4790 -0.3366 -0.5483
  134MOL    C5432240   7.368   7.136   6.728 -0.1538 -0.0963 -0.2498
  134MOL    O5532241   7.450   7.039   6.734 -0.2054 -0.5328  0.5924
  134MOL    H5632242   7.189   6.928   6.714  1.4651  0.7888  1.8681
  134MOL    H5732243   7.245   6.850   6.475  0.6173 -0.6992  0.7865
  134MOL    H5832244   7.365   6.934   6.550 -0.8447 -1.4365  0.1484
  134MOL    H5932245   7.269   7.017   6.424 -0.8382  0.5489  0.2916
  134MOL    H6032246   7.155   7.176   6.750  1.2002 -0.4486  1.0117
  134MOL    H6132247   7.220   7.192   6.586 -2.2077  0.1925 -0.2077
  134MOL    O6232248   7.395   7.265   6.768 -0.3742 -0.1607  0.3470
  134MOL    C6332249   7.527   7.317   6.769 -0.5396 -0.0114  0.1322
  134MOL    C6432250   7.546   7.408   6.649 -0.0312 -0.5707  0.3064
  134MOL    C6532251   7.564   7.389   6.904  0.0858  0.6140 -0.4280
  134MOL    C6632252   7.562   7.298   7.029  0.3222  0.0306  0.0500
  134MOL    O6732253   7.514   7.349   7.128  0.2309  0.1939  0.1970
  134MOL    H6832254   7.590   7.229   6.758 -1.0727 -0.3059 -0.5924
  134MOL    H6932255   7.462   7.478   6.653  0.7068  0.2797  1.4355
  134MOL    H7032256   7.527   7.342   6.565 -0.6281  0.1896 -0.1618
  134MOL    H7132257   7.640   7.463   6.649  0.0826 -0.7088 -2.7486
  134MOL    H7232258   7.484   7.461   6.917  1.0267  1.8693 -1.4691
  134MOL    H7332259   7.661   7.439   6.896 -0.2182  1.5844  1.6641
  134MOL    O7432260   7.616   7.176   7.011 -0.1048  0.1453  0.1810
  134MOL    C7532261   7.646   7.084   7.111  0.5356  0.0105 -0.0107
  134MOL    C7632262   7.517   7.028   7.170 -0.2700 -0.2112 -0.6831
  134MOL    C7732263   7.737   6.978   7.050  0.4129  0.8847 -0.0490
  134MOL    C7832264   7.884   7.027   7.033 -0.2261 -0.1376 -0.6279
  134MOL    O7932265   7.974   6.996   7.107 -0.5225 -0.0793  0.1075
  134MOL    H8032266   7.689   7.137   7.196  1.1017  0.1489 -0.3771
  134MOL    H8132267   7.538   6.963   7.255 -1.2943 -1.1348 -1.1219
  134MOL    H8232268   7.472   6.976   7.086 -2.4756 -0.1445  0.4171
  134MOL    H8332269   7.452   7.100   7.220  0.9616 -0.7444  1.7531
  134MOL    H8432270   7.696   6.935   6.958 -1.6419 -0.5507  1.4977
  134MOL    H8532271   7.743   6.888   7.112 -0.0413  1.0724  0.2703
  134MOL    O8632272   7.897   7.108   6.924 -0.5472 -0.7813  0.8020
  134MOL    C8732273   0.040   7.163   6.887 -0.0695 -0.1070 -0.2754
  134MOL    C8832274   0.079   7.092   6.757 -0.6917 -0.5226  0.4890
  134MOL    C8932275   0.002   7.309   6.871  0.1962  0.0283  0.5060
  134MOL    C9032276   0.116   7.401   6.849 -0.5123  0.7843 -0.1055
  134MOL    O9132277   0.217   7.376   6.786  0.4223 -0.0088  0.0987
  134MOL    H9232278   0.123   7.154   6.957 -0.5014  1.9600  0.5398
  134MOL    H9332279   0.002   7.103   6.682 -1.1133  0.7201  1.0819
  134MOL    H9432280   0.107   6.992   6.791  1.2141 -0.0756  0.3000
  134MOL    H9532281   0.165   7.142   6.712 -2.0256  3.2749  1.9426
  134MOL    H9632282   7.947   7.338   6.970  1.4848 -0.2288  1.0536
  134MOL    H9732283   7.904   7.316   6.795 -1.3367 -0.1477  2.0376
  134MOL    O9832284   0.086   7.522   6.912 -0.3475  0.0328 -0.7824
  134MOL    C9932285   0.180   7.633   6.900 -0.4248  0.4146  0.6093
  134MOL   C10032286   0.109   7.770   6.922 -0.7538 -0.4763  0.0554
  134MOL   C10132287   0.311   7.611   6.977 -0.6976  0.6284 -0.8381
  134MOL   C10232288   0.308   7.615   7.131  0.1012 -0.0244 -0.5346
  134MOL   O10332289   0.345   7.524   7.203 -0.1020 -0.5836  0.0266
  134MOL   H10432290   0.202   7.642   6.794  1.0798 -3.0201  0.5676
  134MOL   H10532291   0.055   7.799   6.832 -0.8314 -1.5934 -0.2758
  134MOL   H10632292   0.178   7.852   6.941 -1.4045  0.3931 -1.3152
  134MOL   H10732293   0.040   7.760   7.006 -2.4238 -2.3017 -1.4768
  134MOL   H10832294   0.378   7.690   6.943  0.3547  0.4991  0.8975
  134MOL   H10932295   0.347   7.516   6.938  0.5172  0.9777 -0.5681
  134MOL   O11032296   0.280   7.741   7.170  0.3690 -0.3281 -0.1988
  134MOL   C11132297   0.261   7.781   7.304  0.5159  0.5302  0.3348
  134MOL   C11232298   0.392   7.863   7.346 -0.4125  0.5328 -0.6150
  134MOL   C11332299   0.127   7.861   7.329 -0.0228  0.6222  0.2428
  134MOL   C11432300   0.006   7.767   7.329  0.3636  0.1213  0.0797
  134MOL   O11532301   0.006   7.676   7.243  0.3877 -0.3441 -0.2431
  134MOL   H11632302   0.266   7.695   7.371 -0.8905 -0.3488 -0.6783
  134MOL   H11732303   0.489   7.814   7.341 -1.1064 -1.1756  1.4503
  134MOL   H11832304   0.386   7.878   7.454 -0.0484  0.8142 -0.6353
  134MOL   H11932305   0.394   7.967   7.314 -0.3775  0.4915 -0.7471
  134MOL   H12032306   0.124   7.939   7.254  1.7297  0.5676  0.0868
  134MOL   H12132307   0.116   7.911   7.425 -4.2733 -1.3024  0.8645
  134MOL   O12232308   7.900   7.794   7.426  1.3945 -0.1411 -0.3725
  134MOL   C12332309   7.777   7.725   7.432 -0.3243  0.3682 -0.2528
  134MOL   C12432310   7.774   7.638   7.557  0.1993 -0.3317 -0.4242
  134MOL   C12532311   7.666   7.828   7.422  0.1319 -0.1847 -0.6282
  134MOL   C12632312   7.638   7.895   7.557 -0.8460  0.3915 -0.3065
  134MOL   O12732313   7.690   0.022   7.584  0.4334 -0.2087 -0.1465
  134MOL   H12832314   7.750   7.650   7.358  0.1451  0.2699 -0.3216
  134MOL   H12932315   7.685   7.577   7.572  0.9269 -1.6286 -1.2869
  134MOL   H13032316   7.787   7.698   7.648  0.0740  0.4613 -0.9236
  134MOL   H13132317   7.855   7.565   7.554 -2.1018 -3.0227  1.2790
  134MOL   H13232318   7.576   7.774   7.393  0.5846 -2.2854  1.7220
  134MOL   H13332319   7.671   7.895   7.336  0.7102 -0.7490 -1.0362
  134MOL   O13432320   7.555   7.830   7.643 -0.1392 -0.0980 -0.2111
  134MOL   C13532321   7.513   7.892   7.768 -0.3855 -0.0751  0.1222
  134MOL   C13632322   7.363   7.918   7.750 -0.3953  0.1522 -0.5071
  134MOL   C13732323   7.546   7.804   7.893 -0.3142  0.9566  0.8377
  134MOL   C13832324   7.694   7.808   7.933  1.3286  0.2847 -0.4667
  134MOL   O13932325   7.768   7.704   7.919  0.0075  0.2184 -0.4809
  134MOL   H14032326   7.561   0.009   7.781 -0.8327  0.2180 -0.3870
  134MOL   H14132327   7.305   7.826   7.743 -2.3962  1.3714 -0.2805
  134MOL   H14232328   7.353   0.007   7.666  0.6332  0.6508 -0.2336
  134MOL   H14332329   7.327   7.976   7.835  1.2520  0.2236  0.1625
  134MOL   H14432330   7.501   7.704   7.893  0.8146  0.4373  2.9982
  134MOL   H14532331   7.495   7.851   7.976 -1.0871  1.1144  0.2827
  134MOL   O14632332   7.722   7.927   0.011 -0.5973 -0.1032 -0.3253
  134MOL   C14732333   7.856   7.956   0.060  0.2781 -0.2415  0.0083
  134MOL   C14832334   7.920   0.079   7.947  0.0253  1.0474  0.0415
  134MOL   C14932335   7.855   0.012   0.210  0.2430 -0.5529 -0.1923
  134MOL   C15032336   0.006   0.005   0.277 -0.4969 -0.0486  0.0476
  134MOL   O15132337   0.054   7.877   0.299  0.1454 -0.7899 -0.0221
  134MOL   H15232338   7.912   7.863   0.062 -0.1059 -0.4997 -1.0280
  134MOL   H15332339   7.855   0.165   7.931 -0.2665  1.1208  1.6131
  134MOL   H15432340   7.953   0.039   7.851  0.6393  0.4559  0.4914
  134MOL   H15532341   0.032   0.121   0.007  0.2264 -0.0448  0.7454
  134MOL   H15632342   7.793   7.914   0.255 -2.4320  0.6948 -1.5601
  134MOL   H15732343   7.805   0.108   0.228  1.0529 -0.2426  0.4511
  134MOL   O15832344   0.061   0.128   0.311  0.8926  0.4655 -0.8998
  134MOL   C15932345   0.189   0.144   0.359  0.3670 -0.4879 -0.9194
  134MOL   C16032346   0.235   0.292   0.370  0.3492 -1.1009  0.0116
  134MOL   C16132347   0.219   0.067   0.493  0.5784 -0.1804  0.0203
  134MOL   C16232348   0.367   0.059   0.531  0.0690 -0.0591 -0.7951
  134MOL   O16332349   0.434   7.953   0.477 -0.2256 -0.0639  0.1880
  134MOL   H16432350   0.264   0.105   0.290  1.1121  0.3078 -0.5725
  134MOL   H16532351   0.244   0.342   0.273 -3.2257 -0.4273 -0.0169
  134MOL   H16632352   0.330   0.297   0.423  0.6353  0.8247 -0.6531
  134MOL   H16732353   0.164   0.345   0.433 -0.4049 -2.1501  0.0533
  134MOL   H16832354   0.171   7.950   0.477 -0.7651  0.8944 -2.8800
  134MOL   H16932355   0.172   0.110   0.581  0.9159 -1.8074  1.0121
  134MOL   O17032356   0.416   0.138   0.636  0.6897 -0.5201 -0.6192
  134MOL   C17132357   0.553   0.142   0.663  0.3195 -1.1470 -0.0436
  134MOL   C17232358   0.596   0.288   0.657 -0.0920 -0.7291  0.8112
  134MOL   C17332359   0.572   0.072   0.798 -0.0655 -0.3984  0.4825
  134MOL   C17432360   0.713   0.046   0.842 -0.0174  0.4506 -0.1889
  134MOL   O17532361   0.768   7.918   0.819  0.3871  0.0326  0.2215
  134MOL   H17632362   0.616   0.081   0.598 -1.3245 -0.5744 -2.2385
  134MOL   H17732363   0.699   0.289   0.692  0.2886  0.9586 -0.2956
  134MOL   H17832364   0.527   0.339   0.724 -1.1695  0.0281 -0.8443
  134MOL   H17932365   0.591   0.317   0.552  1.8956 -1.6443  0.4548
  134MOL   H18032366   0.522   7.955   0.792  0.4350 -0.7014  1.1270
  134MOL   H18132367   0.516   0.129   0.873  1.4614 -0.1243  1.4349
  134MOL   O18232368   0.767   0.141   0.909  0.5521 -0.2676  0.8542
  134MOL   C18332369   0.887   0.123   0.987 -0.2503  0.4662 -0.3393
  134MOL   C18432370   0.994   0.209   0.914 -0.7555 -0.2833 -0.2822
  134MOL   C18532371   0.877   0.162   1.136 -0.9258 -0.0318 -0.4208
  134MOL   C18632372   0.777   0.074   1.215  0.1674  0.3227  0.0598
  134MOL   O18732373   0.812   7.964   1.288  0.3367  0.0433  0.0840
  134MOL   H18832374   0.910   0.017   0.977  0.0936  0.4572  0.5516
  134MOL   H18932375   1.027   0.158   0.823  0.1424  1.5131 -0.9947
  134MOL   H19032376   1.081   0.205   0.980 -1.7629 -0.8303  1.0282
  134MOL   H19132377   0.973   0.313   0.892  1.9064  0.4850  0.6609
  134MOL   H19232378   0.842   0.265   1.130  0.5341  0.5273  0.5439
  134MOL   H19332379   0.976   0.154   1.181 -0.3137  0.5148 -1.6501
  134MOL   O19432380   0.649   0.117   1.188 -0.3733  0.0690  0.0828
  134MOL   C19532381   0.531   0.048   1.230  0.2279  0.8908  0.6062
  134MOL   C19632382   0.427   0.153   1.296 -0.0139  0.5663  0.5531
  134MOL   C19732383   0.469   7.940   1.115 -1.1845  0.0623 -0.2597
  134MOL   C19832384   0.347   7.853   1.155  0.5216  0.1864  0.2519
  134MOL   O19932385   0.278   7.809   1.068  0.5468  0.0433 -0.4955
  134MOL   H20032386   0.571   7.960   1.305  1.7726  0.6986 -0.3651
  134MOL   H20132387   0.352   0.099   1.352 -0.7205  0.2338 -0.6918
  134MOL   H20232388   0.376   0.212   1.219  0.5901 -1.5975 -1.5852
  134MOL   H20332389   0.482   0.220   1.362 -1.4916  0.0133  2.3737
  134MOL   H20432390   0.543   7.865   1.088  0.9641  1.5840  1.2031
  134MOL   H20532391   0.435   0.019   1.030  0.2480 -0.6857 -1.3749
  134MOL   O20632392   0.333   7.840   1.284 -0.1983 -0.4469 -0.1187
  134MOL   C20732393   0.242   7.759   1.350  0.6480 -0.4688 -0.1479
  134MOL   C20832394   0.092   7.806   1.330  0.0534 -0.1399 -0.6011
  134MOL   C20932395   0.262   7.606   1.343 -0.0751  0.2144 -0.3130
  134MOL   C21032396   0.382   7.552   1.423  0.7192 -0.7836 -0.4559
  134MOL   O21132397   0.366   7.445   1.481 -0.0446 -0.1376 -0.6140
  134MOL   H21232398   0.265   7.776   1.456 -1.5067 -0.5104  0.3498
  134MOL   H21332399   0.026   7.765   1.407 -0.6985  0.7693 -0.7532
  134MOL   H21432400   0.055   7.796   1.228 -2.2841  2.5807 -0.0793
  134MOL   H21532401   0.082   7.914   1.337 -1.7091 -0.1321 -2.6837
  134MOL   H21632402   0.278   7.569   1.242  0.2786  1.6699 -0.7966
  134MOL   H21732403   0.174   7.558   1.387  0.2848 -1.4058 -1.3021
  134MOL   O21832404   0.494   7.627   1.414 -0.1036  0.3030 -0.1273
  134MOL   C21932405   0.621   7.564   1.442  0.1109  0.1179 -0.0651
  134MOL   C22032406   0.731   7.641   1.371 -0.0441 -0.1315  1.0476
  134MOL   C22132407   0.641   7.555   1.595  0.6181  0.3794  0.0744
  134MOL   C22232408   0.661   7.684   1.671  0.3591 -0.1858  0.1502
  134MOL   O22332409   0.769   7.710   1.725 -0.7189 -0.3958  0.3942
  134MOL   H22432410   0.615   7.469   1.388  2.2211  1.1270 -2.2149
  134MOL   H22532411   0.815   7.576   1.350 -0.1904 -0.2336  0.7675
  134MOL   H22632412   0.776   7.720   1.431  1.3897  0.7068 -1.0563
  134MOL   H22732413   0.694   7.679   1.275  0.8917  1.4372  1.2964
  134MOL   H22832414   0.733   7.498   1.610  2.9290  3.8497 -0.4479
  134MOL   H22932415   0.556   7.498   1.634  1.1405 -0.8351 -0.5465
  134MOL   O23032416   0.561   7.771   1.666 -0.1441 -0.5044 -0.9465
  134MOL   C23132417   0.576   7.904   1.711  0.4848  0.3599 -0.7005
  134MOL   C23232418   0.571   0.020   1.592 -0.3487  0.1296  0.2079
  134MOL   C23332419   0.480   7.936   1.827 -0.0798  0.5231 -0.3671
  134MOL   C23432420   0.357   0.028   1.799 -0.2857  0.0454  0.0473
  134MOL   O23532421   0.276   0.004   1.713  0.2702  0.0143  0.2306
  134MOL   H23632422   0.676   7.920   1.750  0.7803 -0.7248 -0.9855
  134MOL   H23732423   0.644   7.965   1.518  0.7974 -1.3103  1.9788
  134MOL   H23832424   0.586   0.123   1.624  1.6175 -0.6178  1.7709
  134MOL   H23932425   0.483   0.003   1.529  0.2602 -1.1969 -0.3092
  134MOL   H24032426   0.528   0.014   1.906  1.6044  0.6405 -1.4250
  134MOL   H24132427   0.444   7.845   1.874 -2.8130  0.8967 -1.6913
  134MOL   H24232428   0.345   0.120   1.856 -4.1849  0.6842 -1.6277
  135MOL     O132429   7.245   7.390   1.267 -0.7140  0.3398  0.1757
  135MOL     C232430   7.289   7.478   1.165 -0.0099  0.4062 -0.0027
  135MOL     C332431   7.256   7.411   1.030 -0.1908  0.5398 -0.7264
  135MOL     C432432   7.196   7.604   1.176 -0.4715 -0.4105 -0.1309
  135MOL     C532433   7.217   7.718   1.072 -0.2670  0.6227  0.0409
  135MOL     O632434   7.329   7.765   1.057  0.2008 -0.4096  0.7170
  135MOL     H732435   7.397   7.478   1.182  0.0192 -1.5533 -0.1269
  135MOL     H832436   7.271   7.467   0.938 -1.7313 -1.0575 -1.9646
  135MOL     H932437   7.157   7.365   1.026  0.2481 -0.5371  0.3060
  135MOL    H1032438   7.322   7.324   1.029 -0.9870 -0.0959  0.4858
  135MOL    H1132439   7.207   7.647   1.276  0.2616  2.9944 -1.6061
  135MOL    H1232440   7.092   7.579   1.160 -1.5471  3.2964  0.4372
  135MOL    H1332441   7.296   7.310   1.263 -1.4351 -0.1028 -0.1916
  135MOL    O1432442   7.109   7.752   1.003 -0.3291  0.5809 -0.6814
  135MOL    C1532443   7.116   7.863   0.911 -0.5115  0.5478 -0.4777
  135MOL    C1632444   7.101   7.804   0.768  0.4422  0.0469 -0.0444
  135MOL    C1732445   6.997   7.944   0.953  0.2658 -0.8230  0.1310
  135MOL    C1832446   7.014   0.099   0.892  0.1989  0.3210  0.7560
  135MOL    O1932447   7.092   0.175   0.949  0.0847 -0.2883  0.3589
  135MOL    H2032448   7.207   7.922   0.921  0.6313 -1.1304 -0.6260
  135MOL    H2132449   7.172   7.724   0.746  1.3586 -0.0897  3.1629
  135MOL    H2232450   7.128   7.882   0.696 -2.7657  0.9859 -0.2717
  135MOL    H2332451   7.004   7.759   0.748  0.1165  1.3549 -1.4885
  135MOL    H2432452   7.000   7.961   1.061 -0.1320  1.1737 -0.1493
  135MOL    H2532453   6.901   7.896   0.932  0.8700 -1.1877 -1.8836
  135MOL    O2632454   6.956   0.120   0.772  0.2073  0.1300  0.0200
  135MOL    C2732455   6.972   0.237   0.707 -0.0640  0.1996 -0.6695
  135MOL    C2832456   6.989   0.211   0.554  0.0744 -0.0471 -0.6110
  135MOL    C2932457   6.861   0.346   0.745 -0.2669  0.0152  0.0309
  135MOL    C3032458   6.718   0.324   0.701  0.2481 -0.0694 -0.3605
  135MOL    O3132459   6.683   0.213   0.657 -0.1909 -0.6856  0.1391
  135MOL    H3232460   7.069   0.278   0.736 -0.2363  1.0078 -1.2118
  135MOL    H3332461   6.924   0.136   0.510  1.3829 -0.7150 -1.4230
  135MOL    H3432462   7.089   0.168   0.545  0.0161 -0.0000 -1.4936
  135MOL    H3532463   6.986   0.308   0.505  0.4969 -0.2764 -1.0910
  135MOL    H3632464   6.903   0.433   0.693 -2.6997  0.1737 -1.7809
  135MOL    H3732465   6.871   0.363   0.852 -0.7342  0.3346  0.0262
  135MOL    O3832466   6.645   0.439   0.696 -0.3922 -0.7754  0.0367
  135MOL    C3932467   6.514   0.452   0.644 -0.1942 -0.5529  0.5708
  135MOL    C4032468   6.457   0.591   0.696 -0.3135  0.3825 -0.8839
  135MOL    C4132469   6.507   0.463   0.491 -0.2216  0.6536  0.5317
  135MOL    C4232470   6.517   0.334   0.409  0.9404 -0.5247 -0.4450
  135MOL    O4332471   6.593   0.322   0.309  0.5949 -1.2244  0.1754
  135MOL    H4432472   6.444   0.372   0.668 -0.6334 -0.4003 -0.1855
  135MOL    H4532473   6.455   0.595   0.805 -0.0866 -0.9953 -0.8170
  135MOL    H4632474   6.351   0.605   0.675 -0.5877  2.7348  1.7936
  135MOL    H4732475   6.515   0.671   0.650 -0.4906  1.8273  1.3196
  135MOL    H4832476   6.583   0.537   0.463 -0.3468  0.3875 -0.5349
  135MOL    H4932477   6.412   0.503   0.457 -1.1711 -0.5310  1.7378
  135MOL    O5032478   6.433   0.238   0.450  0.0738  0.1070  0.1506
  135MOL    C5132479   6.448   0.105   0.397  0.0660 -0.4556 -0.4486
  135MOL    C5232480   6.402   0.021   0.510  0.1679  1.1668  0.1016
  135MOL    C5332481   6.355   0.098   0.277 -0.0393  0.3221 -0.0172
  135MOL    C5432482   6.355   7.960   0.186 -0.4413 -0.6558 -0.0908
  135MOL    O5532483   6.261   7.936   0.104 -0.7951 -0.6249 -0.2125
  135MOL    H5632484   6.553   0.082   0.383  0.7612  2.1589  0.1855
  135MOL    H5732485   6.295   0.012   0.526 -0.0885 -0.1476 -2.0768
  135MOL    H5832486   6.465   0.037   0.597  0.1072  2.1776 -0.0343
  135MOL    H5932487   6.431   7.902   0.473 -1.4124  0.2378  1.2551
  135MOL    H6032488   6.376   0.185   0.214 -1.6285 -0.0413 -1.1045
  135MOL    H6132489   6.250   0.112   0.303  0.7860  0.7783  3.3145
  135MOL    O6232490   6.455   7.876   0.203  0.3479 -0.1282  0.0813
  135MOL    C6332491   6.461   7.767   0.114  0.1110  0.6561  0.1307
  135MOL    C6432492   6.529   7.814   7.965 -0.5105 -0.1286 -1.1815
  135MOL    C6532493   6.544   7.649   0.177  0.3820  0.6704  0.2157
  135MOL    C6632494   6.475   7.557   0.278  0.0559  0.5329  0.0397
  135MOL    O6732495   6.477   7.438   0.262 -0.3345 -0.5237 -0.3422
  135MOL    H6832496   6.365   7.732   0.075  0.4436 -0.4791  0.3194
  135MOL    H6932497   6.555   7.738   7.892 -1.6863 -0.7245 -0.9870
  135MOL    H7032498   6.622   7.855   0.024  0.1262 -0.1327 -2.6585
  135MOL    H7132499   6.486   7.901   7.915 -0.7979  0.4554  0.0766
  135MOL    H7232500   6.637   7.686   0.222 -0.3096  2.3223  0.3435
  135MOL    H7332501   6.572   7.587   0.093  0.3164  0.8308  0.0759
  135MOL    O7432502   6.423   7.623   0.373 -0.1063 -0.0589 -0.3687
  135MOL    C7532503   6.334   7.565   0.467  0.7715 -0.3025  0.2816
  135MOL    C7632504   6.396   7.489   0.576  0.2837 -0.4675  0.0203
  135MOL    C7732505   6.229   7.668   0.505 -0.2386  0.3569  0.1503
  135MOL    C7832506   6.130   7.694   0.392 -0.0300  0.4381 -0.7776
  135MOL    O7932507   6.110   7.809   0.366  0.2366 -0.0662 -0.0181
  135MOL    H8032508   6.290   7.485   0.408 -0.5972  1.9746 -1.8807
  135MOL    H8132509   6.317   7.443   0.636  3.2183 -1.7566  3.0718
  135MOL    H8232510   6.457   7.558   0.634  0.7973  0.4318 -1.5763
  135MOL    H8332511   6.463   7.408   0.547 -0.7524 -1.0298 -0.8303
  135MOL    H8432512   6.282   7.761   0.527  1.3172 -0.6962  0.9444
  135MOL    H8532513   6.171   7.630   0.589 -0.7473  1.2015  0.1855
  135MOL    O8632514   6.070   7.586   0.342  0.1123 -0.4235  0.4784
  135MOL    C8732515   5.969   7.604   0.242 -0.7496  0.1630  0.2226
  135MOL    C8832516   5.963   7.468   0.166 -0.8249  0.7609 -0.6673
  135MOL    C8932517   5.834   7.632   0.308  0.5196  0.3810  0.1914
  135MOL    C9032518   5.717   7.654   0.205 -0.8589  1.0479  0.0669
  135MOL    O9132519   5.731   7.658   0.085  0.4327 -0.6734  0.2629
  135MOL    H9232520   5.985   7.691   0.178 -1.9432 -1.1089 -1.8723
  135MOL    H9332521   5.965   7.386   0.237 -0.0267  0.1583 -1.3670
  135MOL    H9432522   6.053   7.451   0.106 -3.3421 -2.3078 -3.7705
  135MOL    H9532523   5.879   7.455   0.099 -3.0913 -0.9233  2.3840
  135MOL    H9632524   5.833   7.722   0.369  0.9639  1.6117 -1.6130
  135MOL    H9732525   5.793   7.548   0.365 -1.0424  0.3257 -0.9884
  135MOL    O9832526   5.604   7.668   0.277  0.0939  0.3158  0.1077
  135MOL    C9932527   5.481   7.704   0.222 -0.5448  0.0904 -0.0397
  135MOL   C10032528   5.422   7.588   0.148 -0.5489 -0.0815  0.7599
  135MOL   C10132529   5.385   7.756   0.324 -0.1174 -0.2181 -0.3778
  135MOL   C10232530   5.316   7.648   0.406 -0.0411  0.5188  0.6491
  135MOL   O10332531   5.373   7.604   0.507 -0.5590 -0.1053 -0.5518
  135MOL   H10432532   5.492   7.775   0.141  0.4857 -0.5018 -0.4331
  135MOL   H10532533   5.314   7.575   0.142 -0.5132  0.1140 -0.3651
  135MOL   H10632534   5.447   7.503   0.212 -0.6436 -0.8855 -0.2628
  135MOL   H10732535   5.474   7.579   0.053 -1.3067 -1.7989  0.4924
  135MOL   H10832536   5.308   7.812   0.271 -0.4449 -0.4738 -0.1718
  135MOL   H10932537   5.439   7.831   0.382  1.2195 -0.7164 -0.9588
  135MOL   O11032538   5.193   7.622   0.371  0.2260 -0.4741  0.8825
  135MOL   C11132539   5.111   7.523   0.432 -0.4884  0.8817  0.3237
  135MOL   C11232540   4.965   7.544   0.382  0.3521 -0.1095  0.1832
  135MOL   C11332541   5.161   7.381   0.439  0.4508  0.1309  0.0938
  135MOL   C11432542   5.163   7.315   0.303 -0.6605  0.2333  0.6729
  135MOL   O11532543   5.058   7.296   0.236 -0.9490 -0.4535  0.2973
  135MOL   H11632544   5.111   7.552   0.537 -1.4592  1.2280  0.2361
  135MOL   H11732545   4.971   7.564   0.275  0.7308 -1.8411 -0.1367
  135MOL   H11832546   4.930   7.635   0.431  0.7698 -1.2131  2.5985
  135MOL   H11932547   4.894   7.464   0.406  0.3228 -0.3379 -0.6609
  135MOL   H12032548   5.092   7.311   0.486  0.2324  0.0992 -0.2723
  135MOL   H12132549   5.254   7.381   0.495  0.0820 -1.6089  0.7557
  135MOL   O12232550   5.284   7.282   0.267  0.3639  0.1424  0.3392
  135MOL   C12332551   5.313   7.186   0.167  0.0239  0.0909 -0.2514
  135MOL   C12432552   5.347   7.264   0.040  0.1958 -0.1803 -0.1323
  135MOL   C12532553   5.418   7.083   0.205  0.3116  0.0515 -0.3676
  135MOL   C12632554   5.345   6.958   0.271 -0.0688 -0.1997  1.0058
  135MOL   O12732555   5.332   6.852   0.214  0.0929  0.4331 -0.4007
  135MOL   H12832556   5.220   7.138   0.139 -0.6006  0.0173  1.8699
  135MOL   H12932557   5.374   7.206   7.932 -1.8114 -0.5973 -0.5032
  135MOL   H13032558   5.422   7.342   0.048 -0.0044 -0.0363  0.3774
  135MOL   H13132559   5.258   7.313   0.001  0.4336  0.5598  0.2406
  135MOL   H13232560   5.489   7.131   0.272 -0.8479 -1.1031  1.7327
  135MOL   H13332561   5.459   7.058   0.107  0.3895 -2.0123  0.1641
  135MOL   O13432562   5.311   6.989   0.397  0.0298  0.2405 -0.1206
  135MOL   C13532563   5.236   6.906   0.486 -0.1244  0.2654  0.8148
  135MOL   C13632564   5.316   6.869   0.613 -0.2967 -0.1476 -0.5431
  135MOL   C13732565   5.111   6.988   0.523  0.6451 -0.5276  0.2287
  135MOL   C13832566   4.992   6.972   0.425 -1.0264  0.3691  0.0541
  135MOL   O13932567   4.983   6.878   0.346 -0.3272  0.9251  0.1851
  135MOL   H14032568   5.211   6.812   0.435  2.8355  0.1108 -0.4174
  135MOL   H14132569   5.390   6.789   0.603  0.8938  1.0039 -1.1379
  135MOL   H14232570   5.246   6.840   0.690 -2.1416  1.1719 -1.6906
  135MOL   H14332571   5.370   6.957   0.649 -1.9398 -0.0423  1.7374
  135MOL   H14432572   5.135   7.093   0.539  0.0405  0.0139 -2.2322
  135MOL   H14532573   5.073   6.950   0.618 -0.4417 -0.6080 -0.2288
  135MOL   O14632574   4.901   7.063   0.447 -0.4501 -0.0887  0.9464
  135MOL   C14732575   4.777   7.056   0.389  0.5797  0.0784  0.2067
  135MOL   C14832576   4.679   7.121   0.484  0.1472  0.2059 -0.7108
  135MOL   C14932577   4.793   7.132   0.259  0.3454  0.2919  0.5225
  135MOL   C15032578   4.690   7.086   0.155  0.3153  0.6369 -0.9669
  135MOL   O15132579   4.605   7.162   0.106 -0.5508 -0.4066 -0.2239
  135MOL   H15232580   4.743   6.953   0.382 -0.6115  0.5598 -1.3902
  135MOL   H15332581   4.710   7.224   0.503 -1.1195  0.4255  0.2772
  135MOL   H15432582   4.669   7.065   0.577 -0.2049  1.3110 -0.0734
  135MOL   H15532583   4.575   7.125   0.450 -0.2247  0.4114  0.3992
  135MOL   H15632584   4.887   7.109   0.208 -0.0707 -1.1012  0.3548
  135MOL   H15732585   4.794   7.239   0.280  2.3937  0.3752  0.1555
  135MOL   O15832586   4.695   6.954   0.129 -0.1308  0.1149  0.4147
  135MOL   C15932587   4.601   6.895   0.048 -0.4722  0.4717  0.0893
  135MOL   C16032588   4.664   6.770   7.953  0.1013  0.4487 -0.1874
  135MOL   C16132589   4.479   6.868   0.145 -0.3465  0.2324 -0.1704
  135MOL   C16232590   4.356   6.794   0.097  0.5187 -0.7154 -0.4368
  135MOL   O16332591   4.246   6.849   0.094 -0.3111  0.1549 -0.1444
  135MOL   H16432592   4.577   6.955   7.940  1.5107 -0.6626 -1.2831
  135MOL   H16532593   4.736   6.805   7.878 -0.6158  1.8900 -0.2318
  135MOL   H16632594   4.581   6.721   7.904 -0.9422  0.4999  1.5079
  135MOL   H16732595   4.706   6.687   0.029 -2.0889 -0.5262  0.0458
  135MOL   H16832596   4.438   6.959   0.188  0.6081  0.8092 -0.4735
  135MOL   H16932597   4.509   6.804   0.229 -0.5357  0.5256  0.1225
  135MOL   O17032598   4.368   6.663   0.069 -0.2231 -0.4645  0.2576
  135MOL   C17132599   4.256   6.596   0.010 -0.6312  0.0807  0.1094
  135MOL   C17232600   4.306   6.499   7.878  0.5391 -0.7829 -0.0423
  135MOL   C17332601   4.186   6.520   0.122  0.6567  0.9314  0.5636
  135MOL   C17432602   4.042   6.483   0.102  0.3744  0.0483 -0.3938
  135MOL   O17532603   3.969   6.539   0.023  0.5218  0.3602  0.3634
  135MOL   H17632604   4.180   6.659   7.942 -0.3586 -0.4758 -1.0706
  135MOL   H17732605   4.356   6.407   7.908  0.7754 -0.4355  0.6512
  135MOL   H17832606   4.367   6.542   7.799 -0.7195 -0.5150 -0.8808
  135MOL   H17932607   4.219   6.463   7.823  1.2336 -1.9256 -0.4272
  135MOL   H18032608   4.199   6.578   0.213  0.7428 -1.1493  1.8994
  135MOL   H18132609   4.254   6.438   0.147 -1.4336 -1.5300 -1.5086
  135MOL   O18232610   4.002   6.387   0.181 -0.7202  0.1049 -0.0998
  135MOL   C18332611   3.869   6.346   0.174  0.2996  0.4620 -0.9403
  135MOL   C18432612   3.867   6.213   0.089  0.0833  0.3430 -0.5027
  135MOL   C18532613   3.816   6.306   0.319 -1.2673 -0.2361  0.4891
  135MOL   C18632614   3.667   6.333   0.341 -0.7706 -0.2970 -0.6937
  135MOL   O18732615   3.593   6.240   0.388 -0.1197 -0.0879  0.1098
  135MOL   H18832616   3.796   6.422   0.146 -1.6806  1.0056  4.9860
  135MOL   H18932617   3.911   6.239   7.973 -1.7226 -0.9099 -1.6912
  135MOL   H19032618   3.771   6.163   0.078  0.1190  0.4144 -1.1257
  135MOL   H19132619   3.923   6.131   0.136 -1.5999  0.5248  1.9121
  135MOL   H19232620   3.859   6.382   0.385 -0.2343  0.6045 -1.1213
  135MOL   H19332621   3.848   6.212   0.364 -2.1660 -0.0461  1.5589
  135MOL   O19432622   3.638   6.464   0.326  0.3374  0.0794 -0.0007
  135MOL   C19532623   3.502   6.503   0.342 -0.0139 -1.1899  0.7408
  135MOL   C19632624   3.481   6.568   0.480  0.4483 -0.1114  0.5954
  135MOL   C19732625   3.473   6.612   0.236 -0.1895  0.3145  0.2805
  135MOL   C19832626   3.318   6.640   0.222 -0.2371  0.1018  0.0970
  135MOL   O19932627   3.237   6.556   0.198 -0.2407  0.1898  0.0935
  135MOL   H20032628   3.440   6.417   0.318  1.9039 -2.1002 -1.1894
  135MOL   H20132629   3.546   6.654   0.491  1.2486 -0.5010 -0.8911
  135MOL   H20232630   3.509   6.506   0.566 -0.5465 -1.2213  0.1316
  135MOL   H20332631   3.377   6.595   0.497  0.2102 -0.0347 -0.9788
  135MOL   H20432632   3.505   6.591   0.134  1.0239  0.5487  0.6078
  135MOL   H20532633   3.537   6.698   0.257  2.4161 -1.6888  0.7436
  135MOL   O20632634   3.287   6.762   0.249 -0.1564  0.1212  0.7302
  135MOL   C20732635   3.155   6.817   0.227  0.1204  0.4546 -0.8250
  135MOL   C20832636   3.099   6.871   0.362  0.4429  0.1547  0.3094
  135MOL   C20932637   3.165   6.923   0.111 -0.1166 -0.6386 -0.4613
  135MOL   C21032638   3.234   7.053   0.139 -0.0165 -0.2778 -0.0732
  135MOL   O21132639   3.172   7.157   0.106  0.0223  0.4288 -0.0910
  135MOL   H21232640   3.095   6.736   0.186 -1.9835  2.4331 -1.6910
  135MOL   H21332641   3.073   6.793   0.433  0.9033 -0.2045  0.0867
  135MOL   H21432642   3.003   6.924   0.357  0.3551 -0.0163  0.1874
  135MOL   H21532643   3.171   6.937   0.411  0.0055  0.1748  0.9241
  135MOL   H21632644   3.065   6.934   0.070 -0.5318  0.6334  0.8857
  135MOL   H21732645   3.217   6.883   0.023 -1.3704 -1.1650 -0.9780
  135MOL   O21832646   3.358   7.041   0.188  0.1624 -0.0867  0.4414
  135MOL   C21932647   3.436   7.159   0.220  0.8841 -0.5013 -1.1566
  135MOL   C22032648   3.392   7.216   0.362  0.4235  0.2812  0.7236
  135MOL   C22132649   3.583   7.118   0.214  0.7702 -0.2335 -0.0292
  135MOL   C22232650   3.631   7.088   0.075  0.4854  0.2471  0.0271
  135MOL   O22332651   3.609   7.163   7.958  0.3653 -0.0652  0.5643
  135MOL   H22432652   3.408   7.239   0.152 -1.1390 -1.7836 -1.8741
  135MOL   H22532653   3.409   7.150   0.447  1.6837 -0.4967 -0.1374
  135MOL   H22632654   3.286   7.240   0.372  0.4502  0.7789 -0.1546
  135MOL   H22732655   3.455   7.305   0.367 -0.8219  1.2433 -0.1877
  135MOL   H22832656   3.590   7.037   0.286  3.2679  0.1208  0.1683
  135MOL   H22932657   3.651   7.193   0.254  0.6686 -0.4714  0.5934
  135MOL   O23032658   3.714   6.981   0.070 -0.0566  0.4123 -0.6453
  135MOL   C23132659   3.757   6.926   7.934 -0.2285 -0.2666  0.0626
  135MOL   C23232660   3.906   6.934   7.959 -0.0749 -0.7970  0.5136
  135MOL   C23332661   3.692   6.783   7.934  1.1120  0.2815 -0.5180
  135MOL   C23432662   3.548   6.784   7.877  0.1780 -0.4113  0.9958
  135MOL   O23532663   3.451   6.811   7.950 -0.0636 -0.8582 -0.4558
  135MOL   H23632664   3.730   6.980   7.843 -0.4308 -1.0449 -0.3441
  135MOL   H23732665   3.941   7.035   0.000  1.8480 -1.5193  0.9590
  135MOL   H23832666   3.960   6.900   7.870 -0.0703 -0.0389  0.2169
  135MOL   H23932667   3.934   6.865   0.058 -0.4763 -0.5921  0.8362
  135MOL   H24032668   3.693   6.740   0.054 -1.6129  2.1550  0.3692
  135MOL   H24132669   3.762   6.721   7.878 -0.1189 -1.3095 -0.3381
  135MOL   H24232670   3.544   6.769   7.769  1.2232 -1.6747  1.1291
  136MOL     O132671   0.755   4.427   0.561 -0.0373  0.2404  0.2298
  136MOL     C232672   0.847   4.394   0.665 -0.5174  0.1704  0.3761
  136MOL     C332673   0.951   4.515   0.677 -0.1699  0.6074  0.3828
  136MOL     C432674   0.761   4.372   0.782 -0.3240 -0.4255 -0.0681
  136MOL     C532675   0.823   4.297   0.895 -0.3496 -0.3802  0.2216
  136MOL     O632676   0.849   4.345   1.006  0.2116 -0.2645 -0.4710
  136MOL     H732677   0.902   4.303   0.640 -1.9453 -0.7428  0.4777
  136MOL     H832678   1.009   4.530   0.586 -0.9377  2.4937  0.1916
  136MOL     H932679   1.029   4.487   0.747 -0.8767 -1.0655  0.5255
  136MOL    H1032680   0.910   4.612   0.705 -2.6954 -0.5688  0.9177
  136MOL    H1132681   0.663   4.326   0.766 -0.7590  0.3317  0.4116
  136MOL    H1232682   0.731   4.468   0.823  0.1325 -0.7344  0.9948
  136MOL    H1332683   0.791   4.410   0.475  2.3856 -0.4363  1.3222
  136MOL    O1432684   0.843   4.168   0.866 -0.1180  0.1363 -0.2387
  136MOL    C1532685   0.881   4.078   0.969 -0.4690  0.1151 -0.1984
  136MOL    C1632686   0.743   4.039   1.031  0.6005  0.3788  0.3026
  136MOL    C1732687   0.959   3.954   0.914 -0.5565  0.7817 -0.1715
  136MOL    C1832688   1.115   3.986   0.895  0.6245 -0.5753  0.3439
  136MOL    O1932689   1.160   4.093   0.922  0.0282  0.1894 -0.1286
  136MOL    H2032690   0.936   4.129   1.049 -0.4620  0.5025 -0.4465
  136MOL    H2132691   0.671   4.120   1.044  0.4575  0.0717  1.5510
  136MOL    H2232692   0.749   3.981   1.124  0.8893 -0.5208 -0.2731
  136MOL    H2332693   0.687   3.982   0.958 -0.1221 -0.5846  1.5793
  136MOL    H2432694   0.905   3.908   0.831  1.6087  0.6433 -1.5392
  136MOL    H2532695   0.966   3.868   0.980  1.2002  1.1278  0.1241
  136MOL    O2632696   1.181   3.876   0.853  0.2222 -0.0748  0.5259
  136MOL    C2732697   1.324   3.870   0.860 -0.5220 -0.3270  0.8041
  136MOL    C2832698   1.346   3.806   1.000 -0.2748  0.0499  0.1859
  136MOL    C2932699   1.367   3.777   0.742  0.1611  0.8756  0.6304
  136MOL    C3032700   1.394   3.856   0.605 -0.8720 -0.1107 -0.0082
  136MOL    O3132701   1.339   3.962   0.567  0.6112  0.2330  0.0007
  136MOL    H3232702   1.365   3.971   0.850  1.5951 -1.3248 -1.1083
  136MOL    H3332703   1.283   3.850   1.078  0.3503  0.3192  0.5378
  136MOL    H3432704   1.453   3.816   1.017 -0.1264 -0.0477 -0.6856
  136MOL    H3532705   1.333   3.698   1.007  0.1775  0.1154  2.2449
  136MOL    H3632706   1.285   3.708   0.721  1.1479 -0.6548  1.6369
  136MOL    H3732707   1.461   3.725   0.760  0.2705  0.3790 -1.3589
  136MOL    O3832708   1.472   3.778   0.519  0.8159  0.4198 -0.2820
  136MOL    C3932709   1.495   3.824   0.385  0.9835  0.2328  0.0029
  136MOL    C4032710   1.631   3.893   0.385 -0.0304  0.0423  0.2780
  136MOL    C4132711   1.498   3.715   0.287 -0.2130 -0.7621 -0.9072
  136MOL    C4232712   1.418   3.751   0.164  0.0655  0.7509 -0.3316
  136MOL    O4332713   1.312   3.696   0.140  0.1643  0.0759 -0.0135
  136MOL    H4432714   1.430   3.910   0.369  2.4855  1.0726 -1.8292
  136MOL    H4532715   1.709   3.822   0.410 -2.1442 -1.8651  1.6461
  136MOL    H4632716   1.634   3.990   0.435 -3.6726  0.7842 -0.7945
  136MOL    H4732717   1.652   3.922   0.282  3.5281 -3.3073 -0.0645
  136MOL    H4832718   1.455   3.630   0.340  1.1306 -1.1485 -0.3960
  136MOL    H4932719   1.595   3.680   0.253  0.7068  2.3401 -1.6105
  136MOL    O5032720   1.474   3.855   0.090 -0.1138 -0.1848  0.4503
  136MOL    C5132721   1.417   3.882   7.946  0.3122  0.1643  0.3093
  136MOL    C5232722   1.442   4.024   7.894 -0.6330 -0.5996 -0.2973
  136MOL    C5332723   1.465   3.783   7.833 -0.6597  0.3750  0.2220
  136MOL    C5432724   1.615   3.783   7.816 -0.1222 -0.3844 -0.9407
  136MOL    O5532725   1.672   3.842   7.723  0.0101 -0.2793  0.2508
  136MOL    H5632726   1.309   3.883   7.961  0.0995  1.7165 -1.1347
  136MOL    H5732727   1.448   4.033   7.786 -0.4929 -0.5525 -0.2849
  136MOL    H5832728   1.534   4.067   7.933 -0.5811 -1.7404  0.8856
  136MOL    H5932729   1.357   4.085   7.925  0.6711  1.4170 -0.6049
  136MOL    H6032730   1.424   3.822   7.740 -0.7182 -0.2046  0.0022
  136MOL    H6132731   1.435   3.679   7.849 -1.7981  0.9186  1.6572
  136MOL    O6232732   1.674   3.712   7.906  0.5103  0.4538  0.4358
  136MOL    C6332733   1.810   3.702   7.917  0.3657  0.4295 -0.6415
  136MOL    C6432734   1.871   3.757   0.065  0.0927 -0.1169 -0.8740
  136MOL    C6532735   1.863   3.557   7.889  0.8056 -0.0952  0.0717
  136MOL    C6632736   1.835   3.444   0.013  0.0170  0.4744 -0.1313
  136MOL    O6732737   1.725   3.389   0.024  0.3720  0.4813 -0.1280
  136MOL    H6832738   1.856   3.757   7.835  0.6522  0.5024 -0.4329
  136MOL    H6932739   1.822   3.707   0.149 -0.0491  0.3569 -0.6726
  136MOL    H7032740   1.848   3.863   0.075  0.8749  0.0731 -1.0374
  136MOL    H7132741   1.979   3.740   0.068 -0.1645 -1.8285 -0.6380
  136MOL    H7232742   1.971   3.559   7.876  0.5417  0.9259 -2.2556
  136MOL    H7332743   1.816   3.508   7.803  0.3980 -0.3519  0.4404
  136MOL    O7432744   1.940   3.415   0.088  0.1965  0.0516  0.3578
  136MOL    C7532745   1.925   3.340   0.206 -0.9437 -0.0417  0.1198
  136MOL    C7632746   1.957   3.193   0.186 -0.2654  0.1576  0.7158
  136MOL    C7732747   2.026   3.397   0.310 -0.0227  0.2480  0.0011
  136MOL    C7832748   1.977   3.383   0.447  0.2082 -0.1184 -0.2052
  136MOL    O7932749   2.035   3.317   0.532  0.0414 -0.3856  0.3903
  136MOL    H8032750   1.821   3.347   0.236 -1.0784 -1.0478 -0.1053
  136MOL    H8132751   1.962   3.145   0.284 -0.5069  0.3861  0.8434
  136MOL    H8232752   2.060   3.187   0.150 -0.1362  0.2494  1.0581
  136MOL    H8332753   1.894   3.147   0.111  0.1592  1.4277 -0.4432
  136MOL    H8432754   2.034   3.505   0.298 -0.3342  0.5785  2.4517
  136MOL    H8532755   2.125   3.356   0.293 -1.1176 -2.5359 -0.0030
  136MOL    O8632756   1.858   3.441   0.469  0.2208  0.4064  0.1054
  136MOL    C8732757   1.796   3.432   0.593  0.8275  0.4918 -0.6686
  136MOL    C8832758   1.863   3.523   0.697  0.1154 -0.1650  0.7564
  136MOL    C8932759   1.654   3.486   0.563 -0.4852  0.4648 -0.4233
  136MOL    C9032760   1.558   3.383   0.508  0.6123  0.8701  0.4103
  136MOL    O9132761   1.447   3.360   0.559 -0.7376 -0.8794  0.0218
  136MOL    H9232762   1.794   3.328   0.625  3.0091  0.6843  0.1529
  136MOL    H9332763   1.879   3.626   0.665 -3.9088 -0.4003 -2.3873
  136MOL    H9432764   1.959   3.474   0.715 -0.5006 -1.8858 -0.5252
  136MOL    H9532765   1.801   3.537   0.785 -0.5057  0.4878  0.2204
  136MOL    H9632766   1.659   3.565   0.488 -0.2081  0.3438 -0.5347
  136MOL    H9732767   1.603   3.537   0.644 -1.5570 -0.1482 -0.6997
  136MOL    O9832768   1.606   3.330   0.392  0.7720  1.1108  0.1012
  136MOL    C9932769   1.540   3.220   0.330 -0.6772  0.4348 -0.0528
  136MOL   C10032770   1.434   3.281   0.235  0.3282  0.2322  0.4770
  136MOL   C10132771   1.640   3.136   0.261 -0.4579  0.3485 -0.4374
  136MOL   C10232772   1.612   2.987   0.249  0.1546  0.5471 -0.3899
  136MOL   O10332773   1.593   2.943   0.137 -0.2910  0.5029 -0.1954
  136MOL   H10432774   1.475   3.169   0.401 -0.6191 -1.3216 -1.2156
  136MOL   H10532775   1.483   3.344   0.160  0.3298  0.6035  0.7851
  136MOL   H10632776   1.367   3.356   0.276 -1.0128  0.5070 -2.1020
  136MOL   H10732777   1.383   3.200   0.183 -2.6333  1.7753  0.8837
  136MOL   H10832778   1.727   3.135   0.327 -0.7486  1.4251 -0.0399
  136MOL   H10932779   1.679   3.172   0.165  1.8893 -0.3330  0.2342
  136MOL   O11032780   1.605   2.925   0.365  0.6186  0.6833  0.0830
  136MOL   C11132781   1.589   2.786   0.361  0.2707 -0.1001 -0.1309
  136MOL   C11232782   1.715   2.729   0.424 -0.4393  0.2774  0.1012
  136MOL   C11332783   1.455   2.745   0.434  0.0192 -0.6459 -0.4441
  136MOL   C11432784   1.326   2.735   0.350  0.9002 -0.1613  1.6142
  136MOL   O11532785   1.235   2.652   0.363 -0.4356  0.1905  0.0549
  136MOL   H11632786   1.584   2.749   0.259 -0.4978 -1.2694  0.3131
  136MOL   H11732787   1.733   2.750   0.530  0.1784 -1.0226  0.2563
  136MOL   H11832788   1.804   2.766   0.373 -0.7580 -1.3030 -1.6366
  136MOL   H11932789   1.725   2.622   0.409  0.1091  0.2787  0.4164
  136MOL   H12032790   1.447   2.801   0.527  0.9730 -2.4048  0.7322
  136MOL   H12132791   1.454   2.640   0.465 -2.8975  0.4151  3.4684
  136MOL   O12232792   1.326   2.831   0.259  0.2890 -0.5572  0.0202
  136MOL   C12332793   1.231   2.837   0.160  0.1870  0.0823 -0.3759
  136MOL   C12432794   1.226   2.977   0.094  0.0016  0.9092 -0.3392
  136MOL   C12532795   1.235   2.723   0.049  0.1902  0.0570 -0.3104
  136MOL   C12632796   1.362   2.709   7.954 -0.8700  0.6301  0.9906
  136MOL   O12732797   1.454   2.644   0.018  0.2773  0.5338  0.3984
  136MOL   H12832798   1.133   2.823   0.206  0.3493  1.2491  0.3483
  136MOL   H12932799   1.153   2.983   0.014  1.1269 -0.1948 -1.4640
  136MOL   H13032800   1.313   3.010   0.037  1.1296  0.3961  1.0566
  136MOL   H13132801   1.192   3.052   0.166  1.0749  0.7913  0.3037
  136MOL   H13232802   1.150   2.728   7.961 -1.2647 -0.9376  1.3810
  136MOL   H13332803   1.229   2.627   0.101  0.7086  1.1162  1.7684
  136MOL   O13432804   1.360   2.773   7.846  0.2518 -0.1140 -0.0391
  136MOL   C13532805   1.470   2.771   7.756  0.7200 -0.0687 -0.0882
  136MOL   C13632806   1.410   2.817   7.626  0.0084  0.3525 -0.1438
  136MOL   C13732807   1.579   2.863   7.814 -0.1128  0.5260  0.0997
  136MOL   C13832808   1.697   2.892   7.721 -0.1261 -0.1661 -0.5398
  136MOL   O13932809   1.765   2.995   7.747 -0.9285  0.4840  0.9554
  136MOL   H14032810   1.492   2.664   7.757  1.2025  0.0204 -0.7936
  136MOL   H14132811   1.312   2.774   7.606 -0.5218  1.0399  0.9058
  136MOL   H14232812   1.476   2.796   7.541  1.8990  2.0095  0.8553
  136MOL   H14332813   1.400   2.926   7.627  1.8234  0.6006 -2.6780
  136MOL   H14432814   1.627   2.831   7.906 -1.0155 -0.9393  0.0772
  136MOL   H14532815   1.535   2.962   7.828  0.1834  0.7238 -0.3425
  136MOL   O14632816   1.727   2.802   7.624 -0.0521 -0.7190 -0.5753
  136MOL   C14732817   1.842   2.824   7.543  0.1545  0.1009  0.4260
  136MOL   C14832818   1.938   2.707   7.544  0.2926 -0.3911  1.3049
  136MOL   C14932819   1.797   2.862   7.399 -0.6736 -0.0072 -0.2311
  136MOL   C15032820   1.749   2.739   7.312 -0.3405 -0.8163  0.7390
  136MOL   O15132821   1.800   2.712   7.204  0.0918  0.7468  0.1012
  136MOL   H15232822   1.898   2.906   7.587  1.3282 -0.7214  0.5039
  136MOL   H15332823   1.894   2.613   7.509 -1.9216  1.0287  0.1759
  136MOL   H15432824   1.943   2.688   7.651 -2.5581 -0.0317  1.5593
  136MOL   H15532825   2.029   2.725   7.488  1.1449  1.1488  3.1398
  136MOL   H15632826   1.878   2.909   7.344  0.0469 -2.5278 -1.3752
  136MOL   H15732827   1.724   2.942   7.413 -0.8665 -0.5151  1.9449
  136MOL   O15832828   1.655   2.663   7.371  0.2401  0.1228  0.0497
  136MOL   C15932829   1.603   2.538   7.311 -0.5938  0.7537 -0.3518
  136MOL   C16032830   1.620   2.427   7.420  0.0040 -0.3391 -0.4536
  136MOL   C16132831   1.460   2.564   7.270  0.5370  0.8969  0.2253
  136MOL   C16232832   1.370   2.447   7.253 -0.1949  0.1600  0.2259
  136MOL   O16332833   1.262   2.449   7.313  0.2174 -0.4706  0.5759
  136MOL   H16432834   1.667   2.505   7.229 -2.1004 -3.7342  0.1911
  136MOL   H16532835   1.724   2.413   7.449 -0.5745 -1.1064  1.2762
  136MOL   H16632836   1.587   2.330   7.381  0.6822 -0.9963  0.5962
  136MOL   H16732837   1.558   2.461   7.503  2.6849  1.3954  0.9011
  136MOL   H16832838   1.458   2.619   7.177 -0.1583  1.2397  0.4370
  136MOL   H16932839   1.411   2.623   7.347  3.0733 -0.3710  2.9158
  136MOL   O17032840   1.406   2.341   7.166 -0.6265 -0.8527 -0.2947
  136MOL   C17132841   1.310   2.236   7.131 -0.2740  0.3363  0.2830
  136MOL   C17232842   1.318   2.179   6.983 -0.6760  0.6871 -0.0217
  136MOL   C17332843   1.321   2.122   7.232 -0.0273  0.1746  0.2434
  136MOL   C17432844   1.435   2.016   7.216 -0.5308  1.0194  0.2154
  136MOL   O17532845   1.412   1.896   7.226  0.2173 -0.0476 -0.1733
  136MOL   H17632846   1.216   2.292   7.131 -0.9811 -0.7444 -2.9767
  136MOL   H17732847   1.407   2.120   6.962 -0.0752  1.0200  1.5228
  136MOL   H17832848   1.312   2.257   6.908 -2.7202 -0.9918 -1.6715
  136MOL   H17932849   1.234   2.111   6.970  1.0146 -1.7153  1.2202
  136MOL   H18032850   1.225   2.069   7.240 -0.7163  1.2884 -0.5624
  136MOL   H18132851   1.341   2.163   7.331 -2.7393  1.2544  0.3878
  136MOL   O18232852   1.554   2.074   7.189 -0.0868  0.2082 -0.0737
  136MOL   C18332853   1.672   2.005   7.159 -0.5999  0.5663  0.0346
  136MOL   C18432854   1.699   2.007   7.012 -0.0012  0.1161 -0.6046
  136MOL   C18532855   1.794   2.062   7.220  0.2548 -0.2383 -0.5890
  136MOL   C18632856   1.823   2.028   7.369 -0.4071 -0.5425  0.0838
  136MOL   O18732857   1.913   1.945   7.405  0.1446 -1.3107  0.4363
  136MOL   H18832858   1.652   1.900   7.181  0.6077  0.2903 -0.0986
  136MOL   H18932859   1.800   1.977   6.984  1.3916  2.6527  1.4210
  136MOL   H19032860   1.677   2.103   6.964 -1.7990 -0.5598 -1.1646
  136MOL   H19132861   1.625   1.943   6.965  1.7447  0.7511 -4.4341
  136MOL   H19232862   1.802   2.170   7.206 -1.0351  0.2144  1.9042
  136MOL   H19332863   1.885   2.025   7.173  0.3693  0.1060 -0.6420
  136MOL   O19432864   1.750   2.100   7.450  0.7108  0.6503 -0.2622
  136MOL   C19532865   1.741   2.066   7.592  1.4878 -0.3348  0.0717
  136MOL   C19632866   1.861   2.128   7.659 -0.1219 -0.0244  0.0520
  136MOL   C19732867   1.614   2.126   7.649 -0.3547  0.0809  0.0943
  136MOL   C19832868   1.484   2.058   7.618 -0.1884  0.2489  0.0864
  136MOL   O19932869   1.400   2.122   7.556  0.2142  0.1452 -0.4434
  136MOL   H20032870   1.735   1.958   7.599  0.5974 -0.3165 -0.3385
  136MOL   H20132871   1.850   2.236   7.646  1.1497 -0.2063 -2.8853
  136MOL   H20232872   1.949   2.097   7.602 -1.6353  1.5449 -3.2647
  136MOL   H20332873   1.875   2.115   7.766 -0.3410 -2.8972 -0.2466
  136MOL   H20432874   1.600   2.228   7.612 -0.4907  0.2726  0.6598
  136MOL   H20532875   1.619   2.131   7.758 -3.1176 -0.2606  0.2792
  136MOL   O20632876   1.477   1.927   7.666 -0.2705 -0.6347  0.0976
  136MOL   C20732877   1.350   1.859   7.642  0.6304 -0.1439 -0.2954
  136MOL   C20832878   1.372   1.724   7.578 -0.0686 -0.1418  0.1258
  136MOL   C20932879   1.272   1.838   7.778 -0.2755  0.1365 -0.1309
  136MOL   C21032880   1.198   1.961   7.827 -0.2811  0.0997  0.7579
  136MOL   O21132881   1.075   1.962   7.798  0.4212  0.4167  0.2604
  136MOL   H21232882   1.280   1.914   7.579  2.4277  2.4836 -0.0569
  136MOL   H21332883   1.275   1.676   7.562 -0.5160  0.7972 -0.0137
  136MOL   H21432884   1.443   1.657   7.627  1.6988  1.4782 -0.1746
  136MOL   H21532885   1.422   1.746   7.484 -2.1312 -1.4543 -1.3198
  136MOL   H21632886   1.346   1.807   7.852 -0.5358  0.5525  0.3093
  136MOL   H21732887   1.187   1.772   7.766 -0.5483  0.7313 -1.5388
  136MOL   O21832888   1.280   2.043   7.896 -0.1825  0.0690 -0.5193
  136MOL   C21932889   1.226   2.152   7.966 -0.0752 -0.1839 -0.3221
  136MOL   C22032890   1.203   2.112   0.134 -0.0632  0.1231  0.5666
  136MOL   C22132891   1.322   2.275   7.943 -0.7447 -0.5789  0.0797
  136MOL   C22232892   1.298   2.338   7.806  0.6006  0.1028 -0.2624
  136MOL   O22332893   1.386   2.389   7.739 -0.3820 -0.3140  0.3472
  136MOL   H22432894   1.128   2.171   7.922  1.4868  1.0089 -3.4025
  136MOL   H22532895   1.294   2.084   0.186 -0.0376  0.3397  0.6402
  136MOL   H22632896   1.132   2.030   0.138  1.5962 -1.4633 -1.1819
  136MOL   H22732897   1.161   2.201   0.181 -1.6742  0.2654 -1.0472
  136MOL   H22832898   1.425   2.242   7.929 -0.6723 -0.4656  0.3486
  136MOL   H22932899   1.310   2.352   0.039 -2.4058 -0.8443  0.1175
  136MOL   O23032900   1.164   2.343   7.774  0.3916  0.1586  0.1945
  136MOL   C23132901   1.115   2.398   7.660 -1.3475 -0.1377  0.2443
  136MOL   C23232902   0.982   2.327   7.623 -0.5666 -1.0177 -0.3038
  136MOL   C23332903   1.103   2.554   7.669 -0.0113  0.3416  0.3704
  136MOL   C23432904   1.057   2.621   7.537 -0.5770 -0.4883  0.0606
  136MOL   O23532905   1.072   2.742   7.522 -0.0819  0.4323  0.5039
  136MOL   H23632906   1.182   2.387   7.574 -3.0389  0.5623 -1.2102
  136MOL   H23732907   1.006   2.223   7.605 -1.5401 -1.2378 -0.3743
  136MOL   H23832908   0.931   2.359   7.532 -0.4944 -0.2397 -0.0798
  136MOL   H23932909   0.917   2.345   7.709 -0.3005  1.7707 -0.6383
  136MOL   H24032910   1.202   2.593   7.690  1.4645 -2.0310 -1.8585
  136MOL   H24132911   1.035   2.574   7.752 -0.1053  0.9280  0.1514
  136MOL   H24232912   1.014   2.552   7.464  1.1265 -2.0714  0.5141
  137MOL     O132913   5.259   0.174   7.258  0.4943  0.2138 -0.2329
  137MOL     C232914   5.142   0.140   7.327 -0.0754  0.1464  0.5569
  137MOL     C332915   5.043   0.126   7.212 -0.7160  1.0235  0.1345
  137MOL     C432916   5.164   0.009   7.402 -0.1535 -0.0602  0.4395
  137MOL     C532917   5.053   7.940   7.496  0.5433 -0.7329  0.1989
  137MOL     O632918   5.047   0.007   7.613  0.5007  0.7778 -0.3756
  137MOL     H732919   5.115   0.221   7.394 -1.8652  1.1617 -1.3479
  137MOL     H832920   4.946   0.083   7.240 -0.3470  1.4963  2.1457
  137MOL     H932921   5.084   0.065   7.131  1.8130 -1.6867  3.3410
  137MOL    H1032922   5.013   0.223   7.171 -1.8297  0.8063  0.4037
  137MOL    H1132923   5.260   0.016   7.453 -0.0914  2.2244  0.0321
  137MOL    H1232924   5.161   7.913   7.324 -1.0403  1.2462 -0.8144
  137MOL    H1332925   5.327   0.191   7.322 -0.4714 -0.5506  1.0202
  137MOL    O1432926   4.961   7.846   7.443 -0.4032 -0.1518 -0.7192
  137MOL    C1532927   4.857   7.792   7.522  0.2131 -0.1568 -0.0059
  137MOL    C1632928   4.724   7.829   7.465  0.8323  0.0951 -0.2025
  137MOL    C1732929   4.874   7.649   7.533  0.6716  0.0930  0.2845
  137MOL    C1832930   4.777   7.571   7.619  0.2895 -0.3452 -0.4793
  137MOL    O1932931   4.698   7.491   7.569  0.1575  0.0727 -0.0761
  137MOL    H2032932   4.865   7.833   7.622 -0.4261  2.2821 -0.9220
  137MOL    H2132933   4.640   7.792   7.523  0.2096 -0.2343 -1.3056
  137MOL    H2232934   4.721   7.792   7.362  0.0173  0.7249 -0.4104
  137MOL    H2332935   4.710   7.937   7.458 -0.2629 -0.0350 -0.0058
  137MOL    H2432936   4.969   7.619   7.578 -0.4068 -5.0392 -0.4840
  137MOL    H2532937   4.879   7.607   7.432 -1.3080 -0.3779  0.3643
  137MOL    O2632938   4.788   7.605   7.755 -0.2984  0.0975 -0.0221
  137MOL    C2732939   4.687   7.559   7.850 -0.3071 -0.3496 -0.0519
  137MOL    C2832940   4.723   7.413   7.901  0.8013 -0.2790  0.6270
  137MOL    C2932941   4.669   7.663   7.970 -0.3368  0.4914  0.0293
  137MOL    C3032942   4.561   7.613   0.091  0.0987  0.1819  0.0873
  137MOL    O3132943   4.441   7.588   0.053  0.0345 -0.0333 -0.5017
  137MOL    H3232944   4.591   7.545   7.801  0.3768  0.9713 -1.7992
  137MOL    H3332945   4.818   7.395   7.951  1.7877  0.8143 -0.8020
  137MOL    H3432946   4.721   7.339   7.821  0.9302  1.3541 -0.9041
  137MOL    H3532947   4.644   7.375   7.966 -0.0475  0.5161  0.0571
  137MOL    H3632948   4.639   7.763   7.937 -0.7395  0.2311 -0.3953
  137MOL    H3732949   4.758   7.679   0.052  0.5593 -0.0122 -1.1302
  137MOL    O3832950   4.616   7.589   0.215  0.2294  0.3538  0.0700
  137MOL    C3932951   4.530   7.555   0.321  0.4739 -0.2540  0.0298
  137MOL    C4032952   4.592   7.440   0.401 -0.2443  0.0380  0.1582
  137MOL    C4132953   4.491   7.678   0.397 -1.0960 -0.8791 -0.1115
  137MOL    C4232954   4.409   7.647   0.523 -0.2200 -1.2009  0.0816
  137MOL    O4332955   4.444   7.697   0.628 -0.6039  0.7416  0.7201
  137MOL    H4432956   4.442   7.513   0.272  0.7332 -0.8593  0.0768
  137MOL    H4532957   4.519   7.404   0.473 -0.7860  0.6093 -0.0952
  137MOL    H4632958   4.680   7.471   0.456  0.3422 -2.2121  0.5319
  137MOL    H4732959   4.611   7.356   0.334  1.7777  0.5286  0.0914
  137MOL    H4832960   4.430   7.745   0.337 -1.5383  0.3231  1.6596
  137MOL    H4932961   4.582   7.735   0.414 -1.3141 -0.6024  0.1239
  137MOL    O5032962   4.303   7.557   0.509 -0.6974  0.6476  0.4453
  137MOL    C5132963   4.219   7.532   0.611  0.8577  0.3321 -0.5990
  137MOL    C5232964   4.101   7.624   0.583  0.3401 -0.2173 -0.2039
  137MOL    C5332965   4.180   7.379   0.604  0.3118  0.0788 -0.1313
  137MOL    C5432966   4.296   7.280   0.629 -0.2376  0.8952  0.3876
  137MOL    O5532967   4.400   7.303   0.687  0.1032 -0.0444 -0.4037
  137MOL    H5632968   4.276   7.562   0.700  2.6176  2.7943 -2.4717
  137MOL    H5732969   4.038   7.589   0.501  0.4760 -2.1748  0.5000
  137MOL    H5832970   4.117   7.730   0.563 -0.6933  0.4330  2.1712
  137MOL    H5932971   4.033   7.621   0.669 -0.2206 -0.6023 -0.6538
  137MOL    H6032972   4.127   7.356   0.511  0.1256 -0.9924  0.2325
  137MOL    H6132973   4.110   7.350   0.683 -0.0338  0.0375 -0.4492
  137MOL    O6232974   4.265   7.159   0.584 -0.1232  0.1663  0.7767
  137MOL    C6332975   4.340   7.041   0.632  0.1031  0.7510 -0.0251
  137MOL    C6432976   4.265   7.008   0.760 -0.5628 -0.0929  0.3338
  137MOL    C6532977   4.338   6.935   0.522  0.5057  0.2227  0.0351
  137MOL    C6632978   4.418   6.809   0.552  0.2254 -0.0572  0.4252
  137MOL    O6732979   4.391   6.698   0.510  0.4267  0.4172 -0.2791
  137MOL    H6832980   4.444   7.063   0.658  0.3393 -0.2012 -0.1504
  137MOL    H6932981   4.285   7.089   0.830 -2.7255  0.1319  0.7255
  137MOL    H7032982   4.286   6.910   0.803  0.4296 -0.0069  0.0489
  137MOL    H7132983   4.157   7.008   0.744 -0.3943  0.6137 -0.9060
  137MOL    H7232984   4.394   6.971   0.436 -1.5868 -0.0051 -1.4587
  137MOL    H7332985   4.238   6.908   0.487  1.2175 -1.4543 -0.7909
  137MOL    O7432986   4.525   6.834   0.626  0.2045  0.1834 -0.1403
  137MOL    C7532987   4.620   6.736   0.669  0.1554 -0.7997  0.0252
  137MOL    C7632988   4.761   6.784   0.640 -0.1115  0.6220 -0.1409
  137MOL    C7732989   4.586   6.707   0.817 -0.4059  0.6699 -0.3330
  137MOL    C7832990   4.636   6.821   0.908 -0.7889  0.4830  0.4555
  137MOL    O7932991   4.744   6.806   0.970  0.1950 -0.0530  0.1078
  137MOL    H8032992   4.607   6.644   0.613  1.1849 -0.3257 -1.0092
  137MOL    H8132993   4.840   6.713   0.668 -2.1038 -1.4423  0.4096
  137MOL    H8232994   4.785   6.875   0.695  3.2484  0.2159 -0.8009
  137MOL    H8332995   4.766   6.811   0.534 -0.1646 -0.4736 -0.4375
  137MOL    H8432996   4.633   6.612   0.840 -0.7114  0.6365  0.1617
  137MOL    H8532997   4.480   6.701   0.841 -0.1962  0.3668  0.5392
  137MOL    O8632998   4.558   6.921   0.918 -0.1995 -0.7417 -0.3073
  137MOL    C8732999   4.597   7.033   1.004  0.8044 -0.7556  0.1140
  137MOL    C8833000   4.578   7.162   0.925 -0.0462 -0.0176  0.5552
  137MOL    C8933001   4.506   7.031   1.130 -0.6469  0.3995 -0.3580
  137MOL    C9033002   4.530   7.137   1.235  0.3569 -0.0652 -0.1785
  137MOL    O9133003   4.437   7.194   1.297  0.0119 -0.4716 -0.1648
  137MOL    H9233004   4.697   7.024   1.044  0.3486  1.1828  1.7385
  137MOL    H9333005   4.475   7.186   0.900  0.3271 -0.2806 -1.3557
  137MOL    H9433006   4.620   7.148   0.825  1.0702  3.0927  0.5485
  137MOL    H9533007   4.618   7.250   0.975 -1.8679  2.3368 -1.9329
  137MOL    H9633008   4.526   6.936   1.179  1.0346  0.6110 -0.5982
  137MOL    H9733009   4.401   7.043   1.103 -0.1811 -1.1943 -3.1581
  137MOL    O9833010   4.670   7.159   1.245  0.2152  0.0496  0.5721
  137MOL    C9933011   4.733   7.266   1.318  0.5667  0.1189 -0.2936
  137MOL   C10033012   4.820   7.184   1.411  0.1722 -0.0207 -0.1903
  137MOL   C10133013   4.805   7.356   1.223 -0.0538 -0.4788 -0.4790
  137MOL   C10233014   4.936   7.307   1.157 -0.0473 -0.1622  0.2140
  137MOL   O10333015   5.038   7.372   1.168 -0.2853  0.0828  0.1759
  137MOL   H10433016   4.652   7.316   1.370 -0.1930  0.7172 -2.0299
  137MOL   H10533017   4.863   7.248   1.488  1.4409 -1.0457 -0.0333
  137MOL   H10633018   4.894   7.127   1.354 -0.4119  0.1708 -1.1521
  137MOL   H10733019   4.767   7.112   1.474  0.5836 -0.0289  0.1474
  137MOL   H10833020   4.833   7.439   1.288 -3.3385  1.5309 -1.4692
  137MOL   H10933021   4.736   7.401   1.152  0.3780  0.6346 -0.2051
  137MOL   O11033022   4.915   7.188   1.098  0.0719 -0.2813  0.0076
  137MOL   C11133023   5.022   7.126   1.017  0.1420 -0.6666 -0.3253
  137MOL   C11233024   5.059   6.991   1.083 -0.7063 -0.1995  0.2070
  137MOL   C11333025   4.977   7.121   0.871 -0.2159  0.0038  0.2929
  137MOL   C11433026   5.001   7.251   0.800  0.0828 -0.0406  0.5709
  137MOL   O11533027   5.088   7.269   0.716 -0.1149 -0.0313 -0.7520
  137MOL   H11633028   5.108   7.192   1.024 -1.8093  1.8652  0.2640
  137MOL   H11733029   5.143   6.943   1.033  0.6924  0.5676  1.7714
  137MOL   H11833030   4.972   6.926   1.086 -0.6436 -0.3377 -0.9713
  137MOL   H11933031   5.088   7.018   1.185 -0.0697 -0.7561  0.1721
  137MOL   H12033032   4.872   7.094   0.859  0.2247 -2.4704  1.6426
  137MOL   H12133033   5.033   7.037   0.830  1.0567 -0.1209  2.2086
  137MOL   O12233034   4.914   7.345   0.834 -0.6224  0.0633  0.2361
  137MOL   C12333035   4.930   7.477   0.781 -0.1034  0.1973  0.3195
  137MOL   C12433036   4.789   7.521   0.736 -0.2007 -0.1838 -0.0608
  137MOL   C12533037   4.996   7.566   0.887  0.2543 -0.3545  1.2586
  137MOL   C12633038   5.145   7.577   0.864  0.7121 -0.5098  0.3965
  137MOL   O12733039   5.186   7.668   0.797  0.4175  0.0015  0.2550
  137MOL   H12833040   4.990   7.484   0.691 -1.0849  2.5066 -0.1961
  137MOL   H12933041   4.745   7.461   0.656  1.0419  0.2261 -1.0584
  137MOL   H13033042   4.794   7.619   0.688 -1.1272 -0.7407 -1.3318
  137MOL   H13133043   4.718   7.524   0.819 -0.1802 -0.4748 -0.0322
  137MOL   H13233044   4.974   7.545   0.992  1.2340  2.2612  2.0119
  137MOL   H13333045   4.959   7.667   0.868  1.7133  0.4233  2.5454
  137MOL   O13433046   5.215   7.469   0.902 -0.2069 -0.1461 -0.8170
  137MOL   C13533047   5.359   7.468   0.886  0.4942 -0.4310 -0.2416
  137MOL   C13633048   5.428   7.529   1.010 -0.9379  0.1830 -0.0488
  137MOL   C13733049   5.411   7.342   0.824  0.3714 -0.4333  0.3772
  137MOL   C13833050   5.414   7.220   0.923  0.0571  0.1775  1.3615
  137MOL   O13933051   5.348   7.124   0.898 -0.4448  0.0392  0.4077
  137MOL   H14033052   5.382   7.530   0.799 -1.5026  1.2400  0.3764
  137MOL   H14133053   5.531   7.496   1.019 -1.1312 -0.7662 -1.1547
  137MOL   H14233054   5.384   7.507   1.107  1.6026 -3.1006  0.4102
  137MOL   H14333055   5.427   7.638   1.006 -0.8797  0.1466 -1.7174
  137MOL   H14433056   5.514   7.358   0.793 -0.2161  0.1264 -1.2875
  137MOL   H14533057   5.342   7.322   0.743  0.3229  2.0454 -0.2284
  137MOL   O14633058   5.495   7.236   1.026 -0.4486 -0.4447 -0.2253
  137MOL   C14733059   5.495   7.139   1.125 -0.1971  0.1225  0.4754
  137MOL   C14833060   5.636   7.119   1.177 -0.4567 -0.3348 -0.4136
  137MOL   C14933061   5.393   7.186   1.232  0.0355  0.2421  0.3949
  137MOL   C15033062   5.380   7.087   1.355  0.3580 -0.5829  0.2773
  137MOL   O15133063   5.381   7.124   1.472  0.0021  0.1632 -0.3324
  137MOL   H15233064   5.457   7.042   1.091 -3.6388  0.9276  1.7372
  137MOL   H15333065   5.680   7.207   1.223 -1.8194  0.6713 -0.9908
  137MOL   H15433066   5.706   7.078   1.104  0.1895  1.2998 -0.7454
  137MOL   H15533067   5.641   7.043   1.254  1.2032  1.8788  1.7533
  137MOL   H15633068   5.297   7.215   1.189  0.2237 -1.2633 -1.0916
  137MOL   H15733069   5.428   7.273   1.288 -0.9521  1.3201 -0.6336
  137MOL   O15833070   5.381   6.959   1.314  0.1283  0.2958 -0.2403
  137MOL   C15933071   5.419   6.851   1.395  0.3594 -0.2201 -0.3687
  137MOL   C16033072   5.322   6.730   1.399  0.6044  0.6130  0.2747
  137MOL   C16133073   5.565   6.808   1.368 -0.3194 -1.3545 -0.2271
  137MOL   C16233074   5.597   6.735   1.232  0.1949  0.2002  0.2087
  137MOL   O16333075   5.602   6.611   1.234 -0.0814 -0.4323 -0.1370
  137MOL   H16433076   5.428   6.887   1.498  0.2682 -0.8382 -0.1417
  137MOL   H16533077   5.324   6.671   1.308  0.6254 -0.6156  1.0555
  137MOL   H16633078   5.220   6.760   1.423  0.1002 -0.7715 -0.0915
  137MOL   H16733079   5.356   6.661   1.476 -0.1807  2.1818  2.0792
  137MOL   H16833080   5.589   6.739   1.449  2.3787  0.2755  0.4365
  137MOL   H16933081   5.638   6.883   1.402 -3.6836  1.6700  0.6012
  137MOL   O17033082   5.602   6.813   1.124  0.1783 -0.1674  0.1555
  137MOL   C17133083   5.628   6.759   0.996 -0.0947 -0.0830  0.5384
  137MOL   C17233084   5.499   6.710   0.932  0.5439 -0.0672 -0.3116
  137MOL   C17333085   5.681   6.875   0.911  0.3325 -0.0396  0.2340
  137MOL   C17433086   5.744   6.841   0.773 -0.7556  0.1063 -0.0808
  137MOL   O17533087   5.864   6.861   0.751  0.1796  0.1625 -0.0471
  137MOL   H17633088   5.709   6.687   0.986 -0.9324 -0.9780  0.2037
  137MOL   H17733089   5.515   6.660   0.836 -1.7309 -1.6703  0.1195
  137MOL   H17833090   5.423   6.787   0.936  1.0695  0.4246  0.3107
  137MOL   H17933091   5.455   6.634   0.996  0.8960  0.4688  0.5713
  137MOL   H18033092   5.754   6.928   0.972  0.0376  4.2718 -2.9312
  137MOL   H18133093   5.594   6.939   0.895 -1.0558 -1.8652  0.1929
  137MOL   O18233094   5.657   6.803   0.687  0.3261 -0.2038  0.0515
  137MOL   C18333095   5.697   6.762   0.554 -0.0189  0.8252  0.4651
  137MOL   C18433096   5.626   6.627   0.519 -0.3776 -0.2661 -0.0246
  137MOL   C18533097   5.663   6.868   0.447 -0.5898 -0.8256 -0.0808
  137MOL   C18633098   5.741   6.995   0.454 -0.1763 -0.3417 -0.0156
  137MOL   O18733099   5.863   6.996   0.430  0.4186 -0.3176  0.0761
  137MOL   H18833100   5.799   6.727   0.564 -0.6602 -0.8639  1.3002
  137MOL   H18933101   5.646   6.555   0.599  1.5013  0.2786  0.0355
  137MOL   H19033102   5.668   6.584   0.428 -2.0124  1.5646 -1.6710
  137MOL   H19133103   5.523   6.642   0.487  0.2334 -1.8617 -2.9007
  137MOL   H19233104   5.555   6.886   0.446 -0.5800 -0.5054 -3.8202
  137MOL   H19333105   5.695   6.828   0.351  2.1162 -2.4216  1.4250
  137MOL   O19433106   5.667   7.100   0.495 -0.0514  0.0202  0.3311
  137MOL   C19533107   5.732   7.225   0.523  0.2669  0.3102 -0.7759
  137MOL   C19633108   5.624   7.327   0.486  0.3025 -0.4542  0.1826
  137MOL   C19733109   5.766   7.230   0.675  0.1213  0.1528  0.5609
  137MOL   C19833110   5.844   7.353   0.708 -0.5889  0.1675  0.1763
  137MOL   O19933111   5.968   7.344   0.701  0.2326  0.0858 -0.2259
  137MOL   H20033112   5.823   7.249   0.468 -0.4683  0.4163 -1.9533
  137MOL   H20133113   5.583   7.305   0.387  0.5799 -1.0913  0.2070
  137MOL   H20233114   5.662   7.428   0.468 -2.1100  0.4955  0.3015
  137MOL   H20333115   5.548   7.332   0.563 -0.2834  2.4968 -0.5180
  137MOL   H20433116   5.839   7.156   0.707 -1.6646 -1.8835  0.0440
  137MOL   H20533117   5.682   7.217   0.743  1.2076 -1.0602  1.6958
  137MOL   O20633118   5.770   7.454   0.729 -0.3574  0.0660  0.8192
  137MOL   C20733119   5.819   7.585   0.704  0.0654 -0.4577 -0.0602
  137MOL   C20833120   5.703   7.666   0.666 -0.3412  0.0324 -0.4044
  137MOL   C20933121   5.893   7.639   0.834 -0.0217  0.4428  0.7364
  137MOL   C21033122   5.801   7.639   0.957  0.5832  0.2505  0.2003
  137MOL   O21133123   5.778   7.533   1.012 -0.0535 -0.1587 -0.6391
  137MOL   H21233124   5.884   7.588   0.616 -0.6879 -2.4127 -0.7320
  137MOL   H21333125   5.743   7.767   0.665 -0.7490  0.1886 -0.7133
  137MOL   H21433126   5.620   7.661   0.736  0.6794  0.1240  0.8337
  137MOL   H21533127   5.670   7.646   0.564  2.3142  0.0165 -1.3067
  137MOL   H21633128   5.921   7.742   0.809  2.0462 -0.2236  0.2131
  137MOL   H21733129   5.981   7.580   0.855 -1.7196 -2.9409 -1.2341
  137MOL   O21833130   5.769   7.765   1.003 -0.2796 -0.5090  0.2416
  137MOL   C21933131   5.664   7.800   1.095 -0.6215 -0.0302 -0.7835
  137MOL   C22033132   5.732   7.815   1.226 -0.0942 -0.1399 -0.1158
  137MOL   C22133133   5.582   7.921   1.043  0.0748 -0.3904 -0.0576
  137MOL   C22233134   5.466   7.941   1.141  0.0392  0.6157 -0.1898
  137MOL   O22333135   5.455   0.066   1.201  0.6489 -0.1173  0.1675
  137MOL   H22433136   5.604   7.710   1.109  0.9683 -1.1428 -1.0268
  137MOL   H22533137   5.671   7.829   1.315  1.6776 -1.0763  1.2734
  137MOL   H22633138   5.809   7.893   1.231 -2.5071  2.4304 -1.4484
  137MOL   H22733139   5.790   7.724   1.238 -2.5602 -1.6532  0.7278
  137MOL   H22833140   5.544   7.918   0.941 -0.1613  0.9180 -0.0281
  137MOL   H22933141   5.643   0.032   1.045 -0.8329  0.2168  0.4413
  137MOL   O23033142   5.384   7.829   1.153 -0.4209 -0.4454 -0.1082
  137MOL   C23133143   5.274   7.836   1.245  0.3832 -0.0873  0.1574
  137MOL   C23233144   5.164   7.746   1.199  0.1474 -0.1268 -0.0197
  137MOL   C23333145   5.325   7.784   1.383  0.2800 -0.2427  0.3342
  137MOL   C23433146   5.215   7.787   1.493  0.4524 -0.2270  0.7172
  137MOL   O23533147   5.177   7.896   1.539 -0.1058  0.3820 -0.2491
  137MOL   H23633148   5.235   7.937   1.256 -1.5468 -0.6071 -1.5337
  137MOL   H23733149   5.078   7.741   1.266 -0.9180  2.1454 -1.1521
  137MOL   H23833150   5.202   7.645   1.183  1.1000  0.4891 -1.6865
  137MOL   H23933151   5.116   7.792   1.113  0.3125 -0.6636 -0.4018
  137MOL   H24033152   5.404   7.854   1.408  0.8736 -1.0099  0.6129
  137MOL   H24133153   5.368   7.685   1.372  0.4186  0.0739 -2.3245
  137MOL   H24233154   5.189   7.684   1.517 -0.4551  0.4056  2.5312
  138MOL     O133155   4.428   4.103   2.742  0.2513  0.2629 -0.1051
  138MOL     C233156   4.490   4.014   2.832  0.0765  0.1746  0.0896
  138MOL     C333157   4.604   4.099   2.902  0.1968 -0.5376  0.0892
  138MOL     C433158   4.371   3.975   2.920 -0.0174 -0.1787 -0.7984
  138MOL     C533159   4.395   3.855   3.016 -0.8538 -0.0525 -0.2603
  138MOL     O633160   4.315   3.761   3.025  0.0835  0.7936  0.2708
  138MOL     H733161   4.516   3.922   2.779  2.1069  1.1376 -0.6440
  138MOL     H833162   4.569   4.197   2.935 -0.2428 -0.1949 -1.3600
  138MOL     H933163   4.683   4.121   2.830  0.9893  0.2755  1.1920
  138MOL    H1033164   4.647   4.042   2.984  0.6748 -0.3815 -0.0530
  138MOL    H1133165   4.280   3.949   2.867 -0.8692 -0.8506  0.9714
  138MOL    H1233166   4.340   4.042   3.000  1.7339 -0.0431 -0.2027
  138MOL    H1333167   4.443   4.067   2.656 -2.2175 -3.4203  0.9306
  138MOL    O1433168   4.496   3.871   3.097  0.4572  0.4450 -0.0494
  138MOL    C1533169   4.556   3.761   3.160 -0.1964 -0.3472 -0.2466
  138MOL    C1633170   4.707   3.778   3.136 -0.6148  0.1915 -0.2295
  138MOL    C1733171   4.508   3.739   3.311 -0.4618  0.2945  0.1647
  138MOL    C1833172   4.532   3.590   3.352  0.5306 -0.0638  0.2728
  138MOL    O1933173   4.603   3.556   3.450 -0.2035  0.2632  0.0695
  138MOL    H2033174   4.525   3.671   3.107 -1.6444 -0.6021  0.9963
  138MOL    H2133175   4.739   3.874   3.176  0.5305 -0.3141  0.0742
  138MOL    H2233176   4.728   3.770   3.029 -0.6103 -1.9789 -0.0865
  138MOL    H2333177   4.762   3.705   3.195  3.3721  3.2565  0.0488
  138MOL    H2433178   4.401   3.754   3.310 -0.7135 -1.4047 -2.0468
  138MOL    H2533179   4.551   3.809   3.383 -1.4708 -0.5213  1.5994
  138MOL    O2633180   4.461   3.503   3.273  0.2823  0.2805  0.3875
  138MOL    C2733181   4.476   3.362   3.281  0.1978 -0.1053  0.7431
  138MOL    C2833182   4.344   3.292   3.260  0.4937 -0.4823 -0.1073
  138MOL    C2933183   4.583   3.306   3.193  0.1617  0.1809  0.6863
  138MOL    C3033184   4.725   3.320   3.253  0.9792 -0.0452 -0.6389
  138MOL    O3133185   4.801   3.401   3.214  0.1847  0.1427  0.4559
  138MOL    H3233186   4.517   3.341   3.380 -1.0361 -1.5897  0.9627
  138MOL    H3333187   4.298   3.287   3.162 -1.3260  0.2854  0.6775
  138MOL    H3433188   4.273   3.342   3.327  0.1358 -0.1730 -0.7131
  138MOL    H3533189   4.345   3.192   3.302  2.4974 -0.4427 -0.0281
  138MOL    H3633190   4.569   3.374   3.109 -1.4640 -0.8145  0.1158
  138MOL    H3733191   4.552   3.207   3.161 -2.8548  0.7054  1.8332
  138MOL    O3833192   4.751   3.229   3.350 -0.4497 -0.0626  0.9919
  138MOL    C3933193   4.860   3.238   3.443 -1.0316  0.6615  0.3233
  138MOL    C4033194   4.815   3.273   3.592 -0.0484  0.3381  0.6580
  138MOL    C4133195   4.939   3.104   3.436  0.4564  0.5848 -0.5599
  138MOL    C4233196   5.081   3.112   3.475 -0.5502 -0.2390 -0.0686
  138MOL    O4333197   5.175   3.107   3.398 -0.3805 -0.1643  0.2711
  138MOL    H4433198   4.926   3.316   3.406  1.2669 -0.1005  2.7001
  138MOL    H4533199   4.740   3.196   3.613  2.1577 -2.3404 -0.9754
  138MOL    H4633200   4.778   3.375   3.587  0.5094  0.6349  2.3757
  138MOL    H4733201   4.897   3.270   3.663 -0.2835  0.8082  0.9542
  138MOL    H4833202   4.949   3.058   3.338  1.9551  0.6970 -0.4658
  138MOL    H4933203   4.885   3.031   3.497  0.9704 -0.2552 -1.0970
  138MOL    O5033204   5.092   3.120   3.608 -0.3119  0.0769  0.4309
  138MOL    C5133205   5.223   3.146   3.666  1.1139 -0.5945  0.0663
  138MOL    C5233206   5.204   3.281   3.744  0.6873 -0.2230  0.1999
  138MOL    C5333207   5.260   3.044   3.777 -0.8037 -0.1301 -0.3452
  138MOL    C5433208   5.411   3.050   3.832  0.2381  0.9579 -0.5053
  138MOL    O5533209   5.502   2.983   3.791  0.4748 -0.2504  0.0933
  138MOL    H5633210   5.301   3.159   3.592  2.2031 -1.1624  1.0896
  138MOL    H5733211   5.175   3.361   3.677 -0.4323 -0.5870  0.2353
  138MOL    H5833212   5.294   3.322   3.788  2.0460 -1.7069 -1.1151
  138MOL    H5933213   5.130   3.274   3.824 -0.5735  1.6289 -0.7737
  138MOL    H6033214   5.244   2.946   3.732  0.4299 -1.8643  2.8421
  138MOL    H6133215   5.188   3.048   3.859  1.9776  1.4063  2.1029
  138MOL    O6233216   5.414   3.142   3.924  0.3122 -0.3048 -0.3316
  138MOL    C6333217   5.539   3.182   3.989 -0.1606 -0.5164  0.0944
  138MOL    C6433218   5.628   3.263   3.899 -0.0381  0.2029 -0.0680
  138MOL    C6533219   5.497   3.253   4.118  0.2832 -0.6032  0.0599
  138MOL    C6633220   5.449   3.398   4.093 -0.4295 -0.1446  0.5707
  138MOL    O6733221   5.336   3.417   4.057 -0.1516  0.1365  0.2468
  138MOL    H6833222   5.603   3.097   4.011  0.9961 -0.0733 -1.5341
  138MOL    H6933223   5.581   3.352   3.858 -0.3477 -0.0131 -0.1785
  138MOL    H7033224   5.667   3.201   3.818  1.2486  0.1367  0.5898
  138MOL    H7133225   5.711   3.306   3.955  0.7836  2.0178 -2.5894
  138MOL    H7233226   5.571   3.246   4.197  0.9338  1.9438 -0.2854
  138MOL    H7333227   5.408   3.206   4.160  0.9682 -1.2321  0.8214
  138MOL    O7433228   5.548   3.493   4.117 -0.2182 -0.3574 -0.0830
  138MOL    C7533229   5.525   3.634   4.135 -0.6941 -0.0334  0.9456
  138MOL    C7633230   5.530   3.658   4.289  0.2777 -0.6000 -0.3577
  138MOL    C7733231   5.632   3.710   4.061  0.6383 -0.0561 -0.2853
  138MOL    C7833232   5.578   3.840   4.011 -0.6600  0.2540 -0.1454
  138MOL    O7933233   5.549   3.862   3.898 -0.1753  0.8384 -0.4646
  138MOL    H8033234   5.427   3.674   4.107 -1.0112 -1.9329 -0.8047
  138MOL    H8133235   5.510   3.763   4.310 -1.7834 -1.0780  0.2321
  138MOL    H8233236   5.628   3.635   4.330  0.3171  2.0943  1.1545
  138MOL    H8333237   5.468   3.586   4.343  0.1423  0.2909  0.6909
  138MOL    H8433238   5.670   3.656   3.975 -0.8115 -1.1096 -0.2873
  138MOL    H8533239   5.714   3.732   4.129  0.7292  0.6198 -0.6136
  138MOL    O8633240   5.576   3.934   4.113  0.6460 -0.1650 -0.2029
  138MOL    C8733241   5.505   4.057   4.092 -0.3197 -0.9231 -0.5417
  138MOL    C8833242   5.435   4.096   4.218  0.1552  0.6531  0.3558
  138MOL    C8933243   5.594   4.162   4.027 -0.6709  0.5118 -0.3397
  138MOL    C9033244   5.712   4.216   4.106  0.1980  0.5168 -0.0171
  138MOL    O9133245   5.735   4.338   4.113 -0.0473  0.1955  1.0782
  138MOL    H9233246   5.423   4.034   4.024 -1.8796  1.5516  0.4331
  138MOL    H9333247   5.502   4.140   4.292  1.8998  1.4378 -1.6429
  138MOL    H9433248   5.377   4.013   4.257 -1.8467  1.0318 -1.7328
  138MOL    H9533249   5.347   4.159   4.204 -0.9170 -0.8540  0.2930
  138MOL    H9633250   5.522   4.242   4.009 -4.4043 -1.9027  2.9525
  138MOL    H9733251   5.629   4.115   3.935  0.4677 -3.0311  1.7915
  138MOL    O9833252   5.796   4.127   4.163 -0.4097  0.1482  0.2068
  138MOL    C9933253   5.899   4.167   4.258 -0.0512 -0.8849  0.3617
  138MOL   C10033254   5.838   4.188   4.400 -0.9205  0.7036 -0.3967
  138MOL   C10133255   6.018   4.064   4.251 -0.3416  0.0166 -0.0211
  138MOL   C10233256   6.117   4.067   4.366  0.0533  0.2205  0.0089
  138MOL   O10333257   6.171   4.166   4.410 -0.1470 -0.2903 -0.2768
  138MOL   H10433258   5.954   4.253   4.218 -1.8297  1.0611  1.9646
  138MOL   H10533259   5.899   4.194   4.490 -0.1634  0.8623 -0.9141
  138MOL   H10633260   5.789   4.091   4.413 -0.0918 -0.0206 -2.4287
  138MOL   H10733261   5.753   4.255   4.392 -3.0944 -1.9979 -0.6997
  138MOL   H10833262   6.075   4.069   4.159 -1.6648 -3.6697 -1.1355
  138MOL   H10933263   5.970   3.966   4.253 -1.3520  0.5081  1.2277
  138MOL   O11033264   6.139   3.939   4.404  0.2204  0.4594  0.3173
  138MOL   C11133265   6.227   3.898   4.513 -0.5380 -0.6425 -0.2955
  138MOL   C11233266   6.176   3.771   4.576 -0.2809  0.5903  0.3881
  138MOL   C11333267   6.378   3.878   4.465  0.2015 -0.5321  0.0378
  138MOL   C11433268   6.454   4.005   4.475 -0.1549  0.3968  0.3355
  138MOL   O11533269   6.490   4.055   4.581  0.0421  0.0429 -0.1717
  138MOL   H11633270   6.219   3.971   4.594  1.5586 -1.1051  0.3587
  138MOL   H11733271   6.184   3.685   4.510 -2.9619 -0.1256  0.9218
  138MOL   H11833272   6.073   3.765   4.611 -0.2671  0.6476  0.4388
  138MOL   H11933273   6.247   3.747   4.655  2.1392  1.2670 -1.5105
  138MOL   H12033274   6.385   3.826   4.370 -1.4203 -0.8600  0.0820
  138MOL   H12133275   6.427   3.807   4.531 -0.1573  1.0476  2.0434
  138MOL   O12233276   6.481   4.060   4.348 -0.5357 -0.0837 -0.1755
  138MOL   C12333277   6.556   4.180   4.336  0.3610 -0.0276  0.2774
  138MOL   C12433278   6.656   4.171   4.217  0.6292  0.1036  0.3838
  138MOL   C12533279   6.455   4.300   4.315 -0.4560  0.8754 -0.0342
  138MOL   C12633280   6.383   4.310   4.178  0.2157 -0.3996 -0.5710
  138MOL   O12733281   6.346   4.212   4.114  0.4857 -0.2209 -0.7316
  138MOL   H12833282   6.607   4.202   4.430  1.9501 -0.7440 -0.4060
  138MOL   H12933283   6.604   4.166   4.121  0.9621  1.3865  0.1238
  138MOL   H13033284   6.711   4.078   4.229 -1.9256 -1.6050 -0.6369
  138MOL   H13133285   6.731   4.250   4.220  0.6698  0.0466  0.8745
  138MOL   H13233286   6.492   4.399   4.340  2.8790 -0.3441  0.0624
  138MOL   H13333287   6.383   4.279   4.394 -0.6826  1.6047 -0.0410
  138MOL   O13433288   6.358   4.438   4.142 -0.0892 -0.1457  0.3844
  138MOL   C13533289   6.280   4.458   4.027  0.4917 -0.5898  0.3716
  138MOL   C13633290   6.135   4.478   4.071  0.1586  0.2571  0.4077
  138MOL   C13733291   6.330   4.591   3.964  0.1184 -0.0335 -0.2197
  138MOL   C13833292   6.423   4.559   3.845 -0.0432 -0.3303 -0.0257
  138MOL   O13933293   6.542   4.577   3.849 -0.1142  0.2110 -0.2354
  138MOL   H14033294   6.282   4.372   3.961  2.0319  1.0341 -1.7766
  138MOL   H14133295   6.067   4.499   3.989  2.3345  2.2295 -0.9382
  138MOL   H14233296   6.117   4.557   4.145  3.7266 -1.4741  3.2874
  138MOL   H14333297   6.095   4.384   4.110 -1.1506  1.3676  1.8162
  138MOL   H14433298   6.382   4.663   4.027 -1.2930 -0.0415  0.9765
  138MOL   H14533299   6.244   4.636   3.915 -0.2004  1.0269  1.2839
  138MOL   O14633300   6.356   4.505   3.734 -0.2106  0.0728  0.0821
  138MOL   C14733301   6.432   4.447   3.633  0.1836 -0.2680  0.7097
  138MOL   C14833302   6.379   4.304   3.612  0.2823  0.1937 -0.3591
  138MOL   C14933303   6.408   4.512   3.497 -0.1499  0.5204 -0.3009
  138MOL   C15033304   6.473   4.650   3.485 -0.2796  0.3530 -0.2920
  138MOL   O15133305   6.417   4.753   3.503  0.5054 -0.0155 -0.4029
  138MOL   H15233306   6.539   4.446   3.651  0.4577  0.2188 -0.7610
  138MOL   H15333307   6.422   4.249   3.528  3.4732  2.6936 -0.4728
  138MOL   H15433308   6.275   4.319   3.585  0.2414  0.0747 -0.2663
  138MOL   H15533309   6.393   4.251   3.706 -0.4576  0.5645 -0.0420
  138MOL   H15633310   6.303   4.535   3.484 -0.0076  0.6578 -1.3313
  138MOL   H15733311   6.426   4.450   3.409 -1.0801  0.3114 -0.3474
  138MOL   O15833312   6.610   4.641   3.460 -0.6491 -0.7683  0.8037
  138MOL   C15933313   6.695   4.754   3.478  0.4575 -0.0599 -0.2973
  138MOL   C16033314   6.735   4.767   3.625  0.9732  0.1878  0.2132
  138MOL   C16133315   6.822   4.748   3.396 -0.6018 -0.3660 -0.5976
  138MOL   C16233316   6.803   4.790   3.254 -0.2517  0.5421 -0.6433
  138MOL   O16333317   6.693   4.777   3.204 -0.0983  0.1499  0.1924
  138MOL   H16433318   6.645   4.847   3.450  2.1780  0.5486 -1.4381
  138MOL   H16533319   6.653   4.752   3.695  0.5229 -3.8670 -1.0746
  138MOL   H16633320   6.793   4.856   3.651 -0.6564  1.1885  0.5654
  138MOL   H16733321   6.801   4.683   3.642  0.1519  0.0183  2.7532
  138MOL   H16833322   6.852   4.644   3.385  1.4069  0.0843  0.4715
  138MOL   H16933323   6.897   4.810   3.444 -0.2512  0.2016 -1.8475
  138MOL   O17033324   6.907   4.852   3.205 -1.1081 -0.2391  0.6246
  138MOL   C17133325   6.906   4.908   3.079 -0.0213 -0.1953 -0.2618
  138MOL   C17233326   6.869   5.061   3.098  0.5773 -0.4856 -0.8190
  138MOL   C17333327   7.047   4.889   3.032 -0.0607 -0.4810  0.2349
  138MOL   C17433328   7.083   4.929   2.888 -0.6007  0.9313  0.5517
  138MOL   O17533329   7.002   4.977   2.807 -0.1867  0.0941  0.6387
  138MOL   H17633330   6.827   4.867   3.017  0.0695  0.8428 -1.0883
  138MOL   H17733331   6.900   5.103   3.194 -0.9109  0.7127 -0.8516
  138MOL   H17833332   6.762   5.058   3.076  0.4159  0.5732 -0.2056
  138MOL   H17933333   6.911   5.129   3.024  1.0222  0.5126  0.3250
  138MOL   H18033334   7.069   4.783   3.048 -1.9162 -0.6765  1.6126
  138MOL   H18133335   7.106   4.947   3.102 -1.1078 -1.2620  1.7909
  138MOL   O18233336   7.220   4.910   2.860 -0.4769 -0.3770  0.0479
  138MOL   C18333337   7.273   4.956   2.736  1.2985  0.4108 -0.3114
  138MOL   C18433338   7.403   5.035   2.758 -0.2127 -0.3335 -0.7219
  138MOL   C18533339   7.297   4.829   2.645  1.1468  0.0989  0.3642
  138MOL   C18633340   7.193   4.808   2.530 -0.1240  0.4506 -0.1771
  138MOL   O18733341   7.099   4.727   2.542 -0.3393 -0.2116  0.3965
  138MOL   H18833342   7.200   5.018   2.684 -0.5533 -0.3150  1.3787
  138MOL   H18933343   7.434   5.087   2.667 -0.2160 -2.3126 -1.9026
  138MOL   H19033344   7.477   4.968   2.802 -0.8256 -1.4983 -1.4332
  138MOL   H19133345   7.388   5.122   2.821  2.3084  0.7889 -1.6004
  138MOL   H19233346   7.289   4.743   2.711 -0.6422 -2.1007 -2.6046
  138MOL   H19333347   7.393   4.827   2.593  0.1118  0.7603 -1.6140
  138MOL   O19433348   7.214   4.894   2.433 -0.4641  0.6538  0.4739
  138MOL   C19533349   7.129   4.894   2.324  0.7805  0.3033 -0.6607
  138MOL   C19633350   7.049   5.025   2.337 -0.4463 -0.5758  0.1267
  138MOL   C19733351   7.210   4.883   2.188  0.1880  0.2791  0.3876
  138MOL   C19833352   7.132   4.865   2.064  0.3461 -0.2272  0.3076
  138MOL   O19933353   7.074   4.761   2.049 -0.4206 -0.1915  0.6889
  138MOL   H20033354   7.065   4.806   2.324 -0.2435  1.0174 -2.4931
  138MOL   H20133355   7.122   5.107   2.341  0.3899 -1.0688 -3.4936
  138MOL   H20233356   6.984   5.039   2.423 -1.2627  1.5601 -0.8123
  138MOL   H20333357   6.985   5.037   2.250 -0.5752  5.1735  0.8192
  138MOL   H20433358   7.286   4.805   2.177  0.6274  1.0555 -2.4860
  138MOL   H20533359   7.272   4.972   2.181 -0.4326  0.8606  2.0677
  138MOL   O20633360   7.129   4.977   1.980  0.4418  0.2289 -0.0590
  138MOL   C20733361   7.071   4.970   1.855 -0.2975 -0.2025 -1.2064
  138MOL   C20833362   6.941   5.055   1.876  0.5893 -0.3250  0.2282
  138MOL   C20933363   7.179   5.023   1.754  0.7099  0.0979 -0.8543
  138MOL   C21033364   7.121   5.005   1.612 -0.6476  0.4592  0.1013
  138MOL   O21133365   7.030   5.078   1.566 -0.1369  0.3455  0.2099
  138MOL   H21233366   7.036   4.870   1.833  1.3977 -1.0957  0.0204
  138MOL   H21333367   6.868   5.042   1.796 -2.0637  0.0587  2.4920
  138MOL   H21433368   6.956   5.160   1.902 -0.6385 -0.2315  0.5806
  138MOL   H21533369   6.889   5.014   1.962 -0.2864 -0.6106 -0.4370
  138MOL   H21633370   7.276   4.973   1.759  0.2115 -0.8157 -0.2392
  138MOL   H21733371   7.207   5.124   1.783  1.9989 -0.1052 -1.3567
  138MOL   O21833372   7.172   4.898   1.551 -0.2683 -0.1580  0.5702
  138MOL   C21933373   7.136   4.855   1.419 -1.2926 -0.2367  0.3609
  138MOL   C22033374   7.231   4.921   1.321 -0.8725 -0.1918  0.2064
  138MOL   C22133375   7.170   4.705   1.407  0.0354  0.2616  0.0023
  138MOL   C22233376   7.072   4.603   1.476  0.4528  0.0066  0.9474
  138MOL   O22333377   7.022   4.511   1.408  1.0410  0.2024  0.4559
  138MOL   H22433378   7.036   4.885   1.386 -0.1690  1.4032 -1.7007
  138MOL   H22533379   7.330   4.880   1.343  0.2260  1.9077 -0.7432
  138MOL   H22633380   7.229   5.030   1.318  1.3993 -0.0510  2.4666
  138MOL   H22733381   7.204   4.903   1.217 -0.7001 -2.8361  0.5824
  138MOL   H22833382   7.264   4.692   1.460  0.5215 -0.0620 -0.9274
  138MOL   H22933383   7.181   4.675   1.303  0.9648  1.3587 -0.2227
  138MOL   O23033384   7.056   4.626   1.611 -0.0988 -0.4923  0.5565
  138MOL   C23133385   7.000   4.527   1.691 -0.3557 -0.1449 -0.0778
  138MOL   C23233386   7.111   4.446   1.758  0.2118  0.0473  0.3475
  138MOL   C23333387   6.894   4.599   1.785  0.0410  0.8416 -0.0093
  138MOL   C23433388   6.819   4.498   1.872 -0.0044  0.3501  0.1739
  138MOL   O23533389   6.713   4.450   1.836 -0.1073  0.1061  0.5284
  138MOL   H23633390   6.950   4.454   1.627  0.0564 -2.9078  2.6016
  138MOL   H23733391   7.177   4.405   1.681 -0.3932  2.2818 -1.4099
  138MOL   H23833392   7.077   4.363   1.820  0.4567  0.2674  0.7804
  138MOL   H23933393   7.168   4.517   1.818 -1.0636 -0.1664  1.8279
  138MOL   H24033394   6.825   4.642   1.713 -2.7288  1.3598  2.8695
  138MOL   H24133395   6.940   4.671   1.852  1.3959 -0.1563  0.1672
  138MOL   H24233396   6.861   4.465   1.967  1.1909  1.8793  0.1919
  139MOL     O133397   5.883   4.685   2.923  0.2642  0.1627  0.0749
  139MOL     C233398   5.969   4.747   3.012  0.5679  0.6404 -0.0005
  139MOL     C333399   5.981   4.899   2.979 -0.3880  0.3300  0.4184
  139MOL     C433400   5.917   4.726   3.159 -0.4634 -0.2111  0.5130
  139MOL     C533401   6.028   4.748   3.262  0.1768  0.1780  0.2822
  139MOL     O633402   6.121   4.668   3.271 -0.5760 -0.0664 -0.0878
  139MOL     H733403   6.069   4.705   3.003  0.4042  0.5284 -1.4744
  139MOL     H833404   5.878   4.933   2.978 -1.2053 -1.9921 -1.5504
  139MOL     H933405   6.024   4.916   2.880 -0.5812  0.8018  0.4149
  139MOL    H1033406   6.037   4.953   3.054  0.7902 -0.1706 -0.0746
  139MOL    H1133407   5.879   4.625   3.163  0.4711 -0.4938  4.0418
  139MOL    H1233408   5.839   4.797   3.187 -1.0546 -0.5465 -0.2800
  139MOL    H1333409   5.937   4.666   2.847  0.4569  1.5487 -0.1659
  139MOL    O1433410   6.016   4.870   3.321 -0.0238 -0.1102 -0.3022
  139MOL    C1533411   6.128   4.918   3.395 -0.8376 -0.3737  0.0696
  139MOL    C1633412   6.250   4.967   3.305  0.3096 -0.9055 -0.2496
  139MOL    C1733413   6.082   5.037   3.483 -0.9147  0.1440  0.5865
  139MOL    C1833414   6.188   5.094   3.579 -0.6363 -0.0933 -0.0847
  139MOL    O1933415   6.192   5.216   3.599  0.2772  0.3238  0.3634
  139MOL    H2033416   6.166   4.828   3.442  1.5903  0.3536 -0.4388
  139MOL    H2133417   6.285   4.896   3.230  1.0993 -0.6931 -0.0845
  139MOL    H2233418   6.338   4.989   3.365  0.4963  1.7061 -1.4212
  139MOL    H2333419   6.220   5.066   3.271  1.5604 -0.0788  1.0287
  139MOL    H2433420   5.991   5.008   3.535 -1.8241 -0.0276 -1.0470
  139MOL    H2533421   6.055   5.127   3.429  0.0134  2.2958  3.6029
  139MOL    O2633422   6.267   5.000   3.633 -0.0278  0.1673 -0.4736
  139MOL    C2733423   6.371   5.033   3.723 -0.4728  0.2005  1.1606
  139MOL    C2833424   6.382   4.918   3.821 -0.0227 -0.2145  0.2555
  139MOL    C2933425   6.508   5.054   3.655 -0.1597 -0.7654 -0.4002
  139MOL    C3033426   6.521   5.189   3.589 -0.8666  0.3366 -0.5990
  139MOL    O3133427   6.561   5.290   3.643 -0.1802 -0.3859 -0.0157
  139MOL    H3233428   6.335   5.123   3.773 -1.1235  1.1044 -0.8446
  139MOL    H3333429   6.291   4.911   3.881 -0.0527  0.1990  0.2560
  139MOL    H3433430   6.458   4.939   3.897 -1.1934  1.9464  0.8715
  139MOL    H3533431   6.410   4.826   3.769  0.1146 -0.9767  1.6256
  139MOL    H3633432   6.543   4.980   3.583  1.0307  0.1661 -0.7998
  139MOL    H3733433   6.583   5.058   3.734  0.2386 -0.2680 -0.8039
  139MOL    O3833434   6.470   5.180   3.461  0.0742 -0.2883  0.1276
  139MOL    C3933435   6.492   5.286   3.370  0.3470  0.8083  0.3467
  139MOL    C4033436   6.532   5.229   3.226 -0.1624 -0.4771 -0.6856
  139MOL    C4133437   6.362   5.376   3.359 -0.6133 -1.3088  0.7948
  139MOL    C4233438   6.374   5.503   3.275 -0.5495  0.0462  0.6396
  139MOL    O4333439   6.405   5.502   3.153  0.2202  0.1109  0.5432
  139MOL    H4433440   6.580   5.344   3.399  0.7000  0.2407  0.4138
  139MOL    H4533441   6.580   5.310   3.170 -0.0539 -0.1772 -0.1623
  139MOL    H4633442   6.448   5.186   3.172 -0.5769 -1.0314  0.3863
  139MOL    H4733443   6.594   5.140   3.239 -0.3946 -0.6455 -0.7327
  139MOL    H4833444   6.330   5.393   3.462 -0.8486 -1.0701  0.6835
  139MOL    H4933445   6.279   5.323   3.311 -0.6755 -0.6989  0.2162
  139MOL    O5033446   6.371   5.611   3.349 -0.2386 -0.6935 -0.4829
  139MOL    C5133447   6.381   5.740   3.290 -0.0248 -1.5011 -0.0410
  139MOL    C5233448   6.246   5.813   3.301 -0.0901  0.4676 -0.0994
  139MOL    C5333449   6.480   5.827   3.364  0.1762  0.2944  0.0322
  139MOL    C5433450   6.627   5.787   3.346 -0.1445  0.2470  0.0101
  139MOL    O5533451   6.710   5.868   3.309 -0.3445  0.1502  0.1177
  139MOL    H5633452   6.396   5.741   3.183 -1.8591 -0.4068 -0.2991
  139MOL    H5733453   6.213   5.832   3.403 -0.2529 -1.3208  0.1909
  139MOL    H5833454   6.170   5.751   3.253  0.8675 -0.8058 -0.0065
  139MOL    H5933455   6.237   5.907   3.247 -0.0499 -0.5883 -1.9681
  139MOL    H6033456   6.459   5.835   3.470 -0.0116  1.8584 -0.1160
  139MOL    H6133457   6.470   5.932   3.336  1.4783  0.3602 -0.2476
  139MOL    O6233458   6.650   5.666   3.399 -0.6897 -0.5443 -0.0187
  139MOL    C6333459   6.781   5.610   3.372  0.3512  0.3177 -0.5751
  139MOL    C6433460   6.820   5.530   3.490  0.7969  0.3857  0.3549
  139MOL    C6533461   6.767   5.522   3.250 -0.2804 -0.0752  0.1087
  139MOL    C6633462   6.895   5.449   3.197  0.2176 -0.0928 -0.7500
  139MOL    O6733463   6.909   5.329   3.192  0.2244  0.6054  0.4763
  139MOL    H6833464   6.851   5.692   3.353  1.8519 -0.6061  0.8338
  139MOL    H6933465   6.749   5.452   3.516  0.6321  0.1987 -0.6508
  139MOL    H7033466   6.827   5.599   3.575 -1.4467  2.1470 -0.8164
  139MOL    H7133467   6.914   5.481   3.466  0.7912  0.6498 -0.2196
  139MOL    H7233468   6.719   5.573   3.166 -1.4158  0.2681  0.9534
  139MOL    H7333469   6.694   5.443   3.265 -1.3917  0.9965  0.4730
  139MOL    O7433470   6.993   5.535   3.151  0.4725  0.2644  0.0308
  139MOL    C7533471   7.112   5.496   3.101  0.4460  0.0442 -0.6055
  139MOL    C7633472   7.161   5.575   2.976  0.6356 -0.3465 -0.5637
  139MOL    C7733473   7.211   5.486   3.218 -0.1071  0.2529  0.1554
  139MOL    C7833474   7.208   5.610   3.303  0.0154  0.2913 -0.0578
  139MOL    O7933475   7.167   5.614   3.418  0.3098 -0.2419  0.1162
  139MOL    H8033476   7.091   5.398   3.058 -2.2541 -0.5532  1.9281
  139MOL    H8133477   7.080   5.571   2.903  0.4624 -0.8144 -0.3492
  139MOL    H8233478   7.252   5.520   2.949  0.7528  0.7552 -2.5402
  139MOL    H8333479   7.194   5.677   2.997 -2.1293 -0.3848  4.4742
  139MOL    H8433480   7.315   5.473   3.188 -0.1921 -1.8100  0.6613
  139MOL    H8533481   7.189   5.395   3.275 -0.3186 -0.0919 -0.4747
  139MOL    O8633482   7.258   5.711   3.244 -0.5533 -0.4468  0.0516
  139MOL    C8733483   7.282   5.839   3.301 -0.5331 -0.0539 -0.0910
  139MOL    C8833484   7.391   5.827   3.403 -0.0734  0.4952 -0.5693
  139MOL    C8933485   7.328   5.944   3.188  0.0941 -0.3475 -0.1782
  139MOL    C9033486   7.221   5.973   3.086 -0.2899  0.2399  0.6615
  139MOL    O9133487   7.239   6.000   2.967 -0.2004 -0.2197 -0.0791
  139MOL    H9233488   7.190   5.876   3.347 -1.7964 -0.2349 -2.4457
  139MOL    H9333489   7.425   5.918   3.453  0.6669 -1.0720  1.8597
  139MOL    H9433490   7.479   5.782   3.357  0.0069 -1.9478  1.8672
  139MOL    H9533491   7.362   5.756   3.480  0.7468  0.8802  0.0971
  139MOL    H9633492   7.417   5.905   3.138  0.5442 -0.9460  1.0616
  139MOL    H9733493   7.360   6.039   3.232  1.1869 -0.4350 -0.7570
  139MOL    O9833494   7.103   5.988   3.144  0.4933  0.1382 -0.8057
  139MOL    C9933495   6.987   6.039   3.078 -0.0572  0.4630 -0.9882
  139MOL   C10033496   6.928   5.908   3.030  0.0823  0.7369 -0.1821
  139MOL   C10133497   6.906   6.115   3.181 -0.1578 -0.6590 -0.1607
  139MOL   C10233498   6.787   6.183   3.123 -0.1525 -0.2881  0.1300
  139MOL   O10333499   6.680   6.128   3.136  0.7538 -0.2115  0.3824
  139MOL   H10433500   7.008   6.115   3.003 -0.5030  3.3861  1.7775
  139MOL   H10533501   6.826   5.926   2.996 -0.8832 -2.3428  0.9384
  139MOL   H10633502   6.933   5.821   3.095 -1.5446  0.0753 -0.8955
  139MOL   H10733503   6.988   5.872   2.947 -0.3570 -0.3865 -0.0250
  139MOL   H10833504   6.963   6.197   3.225 -0.1169 -0.4447 -0.6092
  139MOL   H10933505   6.871   6.046   3.258 -0.8049 -1.3306 -1.0367
  139MOL   O11033506   6.810   6.305   3.070 -0.1307 -0.1542 -0.3744
  139MOL   C11133507   6.704   6.384   3.021 -0.6237 -0.1693 -0.2090
  139MOL   C11233508   6.744   6.523   3.077  0.9471 -0.2023  0.4434
  139MOL   C11333509   6.691   6.373   2.870 -1.1849  0.3614 -0.0115
  139MOL   C11433510   6.578   6.451   2.808 -0.3541  0.3014 -0.2990
  139MOL   O11533511   6.463   6.419   2.837 -0.0703 -0.0579  0.3986
  139MOL   H11633512   6.605   6.366   3.063 -0.8058 -0.1983 -0.6430
  139MOL   H11733513   6.722   6.524   3.183 -2.4449 -1.4607 -0.1920
  139MOL   H11833514   6.698   6.600   3.016 -1.2332 -0.6189  1.5324
  139MOL   H11933515   6.848   6.551   3.060  0.1918  2.1606 -0.5038
  139MOL   H12033516   6.663   6.270   2.852 -0.0782  0.2225 -0.9648
  139MOL   H12133517   6.788   6.395   2.826  0.0592 -1.3872  1.7827
  139MOL   O12233518   6.620   6.553   2.731  0.7563 -0.3781 -0.6737
  139MOL   C12333519   6.526   6.626   2.661 -0.0291 -0.3268 -0.1510
  139MOL   C12433520   6.557   6.768   2.710 -0.4034  0.2293 -0.0984
  139MOL   C12533521   6.546   6.607   2.511 -0.6474 -0.0520 -0.2875
  139MOL   C12633522   6.450   6.689   2.423  0.3914  0.8461 -0.0052
  139MOL   O12733523   6.345   6.730   2.471  0.3644  0.1899 -0.1645
  139MOL   H12833524   6.425   6.604   2.695 -0.5172  0.7526 -0.8757
  139MOL   H12933525   6.653   6.813   2.685 -2.1029  4.1633 -0.0053
  139MOL   H13033526   6.541   6.766   2.817 -5.7507  0.0100 -0.7289
  139MOL   H13133527   6.477   6.835   2.675 -1.7639 -0.2882  1.9497
  139MOL   H13233528   6.539   6.501   2.485  2.4552 -0.4983  0.5247
  139MOL   H13333529   6.645   6.643   2.482 -0.2202 -1.3288 -0.4452
  139MOL   O13433530   6.486   6.699   2.295  0.1418 -0.0305 -0.4884
  139MOL   C13533531   6.401   6.766   2.203  0.6343 -0.7265 -0.7347
  139MOL   C13633532   6.494   6.847   2.114  0.3074  0.6770  0.5492
  139MOL   C13733533   6.311   6.668   2.129 -0.9232  0.1593 -0.4724
  139MOL   C13833534   6.203   6.723   2.040 -0.8154  0.7806 -0.2342
  139MOL   O13933535   6.179   6.842   2.028 -0.2119 -0.0434  0.6142
  139MOL   H14033536   6.334   6.843   2.244 -0.1107 -0.8921 -1.6170
  139MOL   H14133537   6.550   6.774   2.055  0.9303  2.6039 -1.2873
  139MOL   H14233538   6.577   6.887   2.171  1.6211 -1.1131 -0.0583
  139MOL   H14333539   6.444   6.911   2.041 -2.3164 -1.0492  0.7322
  139MOL   H14433540   6.256   6.608   2.201 -1.2667  0.7170 -0.2668
  139MOL   H14533541   6.371   6.608   2.061  0.2639 -0.5316  1.1466
  139MOL   O14633542   6.138   6.628   1.981  0.0548 -0.5930 -0.0508
  139MOL   C14733543   6.017   6.653   1.906  0.3581 -0.0237 -0.1468
  139MOL   C14833544   6.031   6.567   1.780  0.0522 -0.2014 -0.0880
  139MOL   C14933545   5.892   6.637   1.984  0.3530  0.2414  0.3211
  139MOL   C15033546   5.866   6.497   2.047 -0.6202 -0.2829  0.6190
  139MOL   O15133547   5.916   6.463   2.157  0.4080 -0.3371 -0.1615
  139MOL   H15233548   6.029   6.754   1.867 -2.0410 -0.2510 -1.5163
  139MOL   H15333549   5.958   6.597   1.705 -1.5981 -0.7808  1.2272
  139MOL   H15433550   6.027   6.459   1.792  2.3939 -0.3741 -0.6384
  139MOL   H15533551   6.132   6.576   1.741  0.1767  0.3343  0.3569
  139MOL   H15633552   5.813   6.670   1.917 -0.5616  1.9277  2.1666
  139MOL   H15733553   5.893   6.701   2.072  1.2489 -0.6369  0.9663
  139MOL   O15833554   5.792   6.412   1.967  0.1538  0.6260  0.2805
  139MOL   C15933555   5.740   6.292   2.020  0.1264 -0.0380  0.3160
  139MOL   C16033556   5.588   6.312   2.055  0.6816 -0.7671  0.2168
  139MOL   C16133557   5.758   6.173   1.928 -0.0108 -0.3554 -0.4200
  139MOL   C16233558   5.904   6.124   1.910 -0.6168 -0.9456  0.0877
  139MOL   O16333559   6.003   6.198   1.924  0.6026 -0.2775 -0.0650
  139MOL   H16433560   5.787   6.249   2.108  0.2061 -0.6171 -0.0085
  139MOL   H16533561   5.527   6.304   1.965  1.1680  1.4581 -0.3373
  139MOL   H16633562   5.571   6.415   2.086  1.0290 -1.0894  1.4811
  139MOL   H16733563   5.546   6.239   2.123  1.4199 -1.8062 -0.4272
  139MOL   H16833564   5.718   6.199   1.830  0.5066 -1.3100 -0.8922
  139MOL   H16933565   5.704   6.088   1.971 -2.9339  1.4352 -0.4044
  139MOL   O17033566   5.914   5.994   1.896 -0.9064 -0.1773  0.1851
  139MOL   C17133567   6.039   5.934   1.911 -0.4464  0.0529 -0.1766
  139MOL   C17233568   6.024   5.813   2.005  0.0780 -0.2454 -0.7234
  139MOL   C17333569   6.084   5.892   1.767 -0.3617 -0.2305  0.0333
  139MOL   C17433570   6.204   5.981   1.729 -0.3131 -0.3122 -0.0846
  139MOL   O17533571   6.309   5.978   1.798  0.2611 -0.3083 -0.5745
  139MOL   H17633572   6.111   6.001   1.958 -1.2184  0.3981  0.5243
  139MOL   H17733573   6.110   5.747   2.003  0.1358 -0.1764 -0.5579
  139MOL   H17833574   5.939   5.749   1.982 -1.2150  0.3276  2.1788
  139MOL   H17933575   6.012   5.840   2.110  3.8711 -1.1643 -0.0025
  139MOL   H18033576   6.003   5.905   1.695 -2.4629 -1.2018  2.1399
  139MOL   H18133577   6.110   5.786   1.773  0.0504 -0.2803 -2.1953
  139MOL   O18233578   6.187   6.073   1.631 -0.3622  0.3573 -0.4537
  139MOL   C18333579   6.294   6.153   1.587 -0.0130  0.1064  0.3653
  139MOL   C18433580   6.269   6.164   1.433 -0.4804 -0.6291  0.7976
  139MOL   C18533581   6.290   6.284   1.661  0.1484 -0.0052 -0.0575
  139MOL   C18633582   6.405   6.378   1.628 -0.4548  0.0673  0.8251
  139MOL   O18733583   6.519   6.356   1.570  0.3854 -0.1099  0.0499
  139MOL   H18833584   6.385   6.096   1.606  0.7120  0.6624 -1.3595
  139MOL   H18933585   6.324   6.243   1.383 -2.2775  0.2369  0.1376
  139MOL   H19033586   6.167   6.185   1.401 -0.0112 -3.3091 -2.7034
  139MOL   H19133587   6.300   6.069   1.391 -0.3523 -0.4717  0.5438
  139MOL   H19233588   6.296   6.271   1.769 -0.2085  0.8603  0.0709
  139MOL   H19333589   6.200   6.343   1.644  0.5711  0.7728  0.3406
  139MOL   O19433590   6.378   6.499   1.675  0.6456 -0.1756 -0.0350
  139MOL   C19533591   6.476   6.610   1.670  0.2948 -0.2394  0.5252
  139MOL   C19633592   6.407   6.738   1.616  0.0046  0.1669 -0.3248
  139MOL   C19733593   6.535   6.640   1.805  0.4120 -0.3738 -0.7724
  139MOL   C19833594   6.620   6.532   1.877 -0.3642  0.4362  0.6086
  139MOL   O19933595   6.703   6.461   1.816  0.1334  0.0177 -0.0191
  139MOL   H20033596   6.558   6.594   1.599  1.4414  0.5583  1.6556
  139MOL   H20133597   6.316   6.767   1.668  0.4702  1.7326 -0.3526
  139MOL   H20233598   6.379   6.729   1.511  0.6915 -2.3928 -0.3382
  139MOL   H20333599   6.479   6.819   1.628  1.8233 -1.7581  2.5478
  139MOL   H20433600   6.450   6.658   1.871  0.8212  0.9197 -0.5854
  139MOL   H20533601   6.596   6.730   1.795  0.8918 -0.7182 -0.9359
  139MOL   O20633602   6.588   6.514   2.003  0.2374 -0.4672 -0.2699
  139MOL   C20733603   6.655   6.414   2.079 -0.6035 -0.6761 -0.1041
  139MOL   C20833604   6.780   6.472   2.142  0.3829  0.1258 -0.9534
  139MOL   C20933605   6.568   6.344   2.183  0.2071  0.2838 -0.2275
  139MOL   C21033606   6.453   6.260   2.126  0.1707  0.3637  0.3023
  139MOL   O21133607   6.440   6.245   2.003 -0.0340 -0.1037  0.2748
  139MOL   H21233608   6.696   6.332   2.020 -0.2068 -0.0770 -0.6759
  139MOL   H21333609   6.847   6.534   2.082  2.1049 -1.2215 -0.4837
  139MOL   H21433610   6.839   6.399   2.198 -0.3423  0.7684  0.6873
  139MOL   H21533611   6.748   6.551   2.210  1.2726 -0.2082 -0.1476
  139MOL   H21633612   6.522   6.410   2.256 -2.3524 -2.0012  0.3162
  139MOL   H21733613   6.620   6.273   2.248  1.9416  2.2309  0.5493
  139MOL   O21833614   6.380   6.207   2.226  0.1203  0.1204 -0.0211
  139MOL   C21933615   6.264   6.132   2.197 -0.5534 -0.4759 -0.1108
  139MOL   C22033616   6.255   6.015   2.297 -0.2222 -0.5292  0.0513
  139MOL   C22133617   6.126   6.207   2.178  0.3230  1.2695 -0.1141
  139MOL   C22233618   6.055   6.250   2.308  0.1197  0.3365  0.2577
  139MOL   O22333619   5.958   6.202   2.352 -0.2389  0.3635 -0.2470
  139MOL   H22433620   6.282   6.068   2.111  1.6324 -0.9867  0.6988
  139MOL   H22533621   6.167   5.954   2.274 -1.8320  0.9185  2.1727
  139MOL   H22633622   6.242   6.048   2.400 -0.3019 -1.2163  0.2690
  139MOL   H22733623   6.344   5.953   2.289  0.0330 -0.1081 -0.3262
  139MOL   H22833624   6.054   6.135   2.140 -0.5921  3.4079 -2.5365
  139MOL   H22933625   6.137   6.282   2.100 -1.0923  0.7194 -0.8633
  139MOL   O23033626   6.139   6.338   2.378 -0.6238  1.0587  0.2134
  139MOL   C23133627   6.107   6.380   2.510 -0.7809  0.1609 -0.4153
  139MOL   C23233628   6.243   6.405   2.584  0.2563  0.6443  0.5712
  139MOL   C23333629   6.004   6.494   2.522  0.1547  1.3113 -0.0436
  139MOL   C23433630   6.043   6.610   2.429 -0.5253 -0.2541 -0.2922
  139MOL   O23533631   5.977   6.715   2.440 -0.4917  0.4812 -0.6829
  139MOL   H23633632   6.047   6.300   2.551 -0.3066 -0.2483 -0.5106
  139MOL   H23733633   6.233   6.468   2.672 -3.2162  0.2606  0.4974
  139MOL   H23833634   6.291   6.477   2.518  0.2716  1.6241  1.6413
  139MOL   H23933635   6.304   6.315   2.594 -1.1760 -0.7134 -2.3535
  139MOL   H24033636   5.990   6.514   2.628 -0.2144  0.0477  0.1566
  139MOL   H24133637   5.909   6.455   2.484  0.1620  0.9247  0.3305
  139MOL   H24233638   6.119   6.601   2.352 -1.3691  1.3665 -1.3423
  140MOL     O133639   3.508   3.061   3.981  0.1100 -0.1648 -0.7615
  140MOL     C233640   3.490   2.935   3.921  1.1327 -0.2029 -0.0811
  140MOL     C333641   3.438   2.969   3.782 -0.2797 -0.9356  0.6308
  140MOL     C433642   3.625   2.863   3.906 -0.0364  0.0870 -0.2382
  140MOL     C533643   3.682   2.803   4.038 -0.0332 -0.1937  0.0450
  140MOL     O633644   3.628   2.807   4.149  0.6445  0.0506 -0.2353
  140MOL     H733645   3.414   2.872   3.967 -1.8100  2.2680 -1.4027
  140MOL     H833646   3.343   3.022   3.780 -0.3744 -1.1681 -1.6103
  140MOL     H933647   3.428   2.875   3.728 -1.5122  0.2549 -1.2708
  140MOL    H1033648   3.516   3.011   3.718 -0.4458 -0.7804  0.5320
  140MOL    H1133649   3.701   2.921   3.855 -1.2102  0.0355 -2.0814
  140MOL    H1233650   3.611   2.777   3.840 -2.6356  0.7575 -0.5972
  140MOL    H1333651   3.546   3.054   4.068 -1.2637 -0.8653 -0.2137
  140MOL    O1433652   3.791   2.732   4.009 -0.3482  0.1747  0.3295
  140MOL    C1533653   3.874   2.650   4.094  0.2933  0.1156  0.4018
  140MOL    C1633654   3.812   2.509   4.106 -0.3667 -0.1526  0.4347
  140MOL    C1733655   4.017   2.656   4.034 -1.0143 -0.2478  0.4707
  140MOL    C1833656   4.122   2.589   4.119  0.9931  0.5720 -0.1039
  140MOL    O1933657   4.151   2.472   4.095 -0.1194  0.3299  0.4125
  140MOL    H2033658   3.868   2.695   4.193  0.6325 -0.3979  0.6571
  140MOL    H2133659   3.792   2.474   4.005  1.3486  0.1198 -0.0132
  140MOL    H2233660   3.722   2.516   4.168 -0.6164 -0.5955  0.1195
  140MOL    H2333661   3.885   2.445   4.156 -0.0377 -0.2544 -0.1785
  140MOL    H2433662   4.047   2.758   4.009 -2.7130  0.1349 -0.0287
  140MOL    H2533663   4.029   2.619   3.932  0.9012 -0.5354  0.7710
  140MOL    O2633664   4.165   2.661   4.229  0.1831 -0.4327 -0.2463
  140MOL    C2733665   4.221   2.593   4.344  0.1728  0.2328  0.2982
  140MOL    C2833666   4.366   2.557   4.331  0.2071  0.2289  0.1844
  140MOL    C2933667   4.197   2.674   4.478 -0.0001 -0.7120  0.0128
  140MOL    C3033668   4.055   2.669   4.539 -0.2350  0.1052  0.8735
  140MOL    O3133669   3.960   2.659   4.462  0.9562  0.2162 -0.2495
  140MOL    H3233670   4.168   2.501   4.367  2.2001 -1.2660 -0.8004
  140MOL    H3333671   4.387   2.463   4.279 -0.5714 -0.8817  1.8466
  140MOL    H3433672   4.397   2.529   4.431 -0.5556  0.7024  0.5531
  140MOL    H3533673   4.432   2.636   4.294  0.3406  0.5152  1.0395
  140MOL    H3633674   4.234   2.774   4.459 -0.3992 -0.0204  2.6607
  140MOL    H3733675   4.266   2.634   4.552 -0.5150 -1.4162  0.1182
  140MOL    O3833676   4.062   2.688   4.667  0.3807 -0.0263 -0.2734
  140MOL    C3933677   3.937   2.699   4.736  0.1527  0.0064  0.1855
  140MOL    C4033678   3.951   2.631   4.872  0.1985  0.7448  0.0374
  140MOL    C4133679   3.878   2.840   4.742  0.0775  0.3756 -0.3145
  140MOL    C4233680   3.959   2.938   4.826  0.3789 -0.2226  0.0492
  140MOL    O4333681   4.056   2.998   4.770 -0.1550 -0.0371  0.1697
  140MOL    H4433682   3.866   2.633   4.686 -0.5584  0.6174  0.3783
  140MOL    H4533683   3.856   2.645   4.923 -0.2800  0.4356 -0.7497
  140MOL    H4633684   4.027   2.679   4.934  0.8039  0.3745 -0.4075
  140MOL    H4733685   3.982   2.529   4.850  0.3384  0.6519  0.6586
  140MOL    H4833686   3.778   2.830   4.784 -0.5027 -0.3064 -1.8133
  140MOL    H4933687   3.857   2.881   4.643  0.0493 -1.5317 -1.1279
  140MOL    O5033688   3.926   2.938   4.954  0.2010  0.8031  0.3114
  140MOL    C5133689   4.005   3.011   5.051 -0.6390  0.7934 -0.6605
  140MOL    C5233690   3.945   3.142   5.115 -0.4353  0.3787  0.0948
  140MOL    C5333691   4.053   2.916   5.167  0.2580 -0.3855  0.7564
  140MOL    C5433692   3.942   2.855   5.257  0.2848  0.0589 -0.1802
  140MOL    O5533693   3.820   2.859   5.229 -0.6179  0.2528  0.1999
  140MOL    H5633694   4.099   3.043   5.006 -0.2613 -0.7556 -1.0019
  140MOL    H5733695   3.845   3.141   5.159  0.0714  0.1453  1.2549
  140MOL    H5833696   3.939   3.215   5.034 -3.0969  2.7440  2.3127
  140MOL    H5933697   4.018   3.164   5.192 -1.8031 -1.5284  1.9823
  140MOL    H6033698   4.106   2.976   5.240  2.0039 -0.2363 -0.6084
  140MOL    H6133699   4.133   2.844   5.148  0.2626  0.2844 -1.8858
  140MOL    O6233700   3.990   2.798   5.376  0.5907  0.7477  0.4955
  140MOL    C6333701   3.902   2.722   5.460 -0.0536 -0.6437  0.3122
  140MOL    C6433702   3.939   2.577   5.440  0.7876  0.3061  0.2199
  140MOL    C6533703   3.935   2.778   5.600 -0.2232  0.7155  0.0957
  140MOL    C6633704   3.824   2.751   5.704 -0.1067 -0.2130 -0.2924
  140MOL    O6733705   3.814   2.826   5.805  0.0254 -0.1797  0.1964
  140MOL    H6833706   3.796   2.743   5.449  0.1423  0.1418 -0.1126
  140MOL    H6933707   3.920   2.544   5.338 -1.3193  1.9131  0.0526
  140MOL    H7033708   3.865   2.521   5.496  1.8544  0.0830  1.4204
  140MOL    H7133709   4.040   2.548   5.468 -0.1105 -1.4297  1.7641
  140MOL    H7233710   3.929   2.886   5.584  0.6721  0.4391 -2.3739
  140MOL    H7333711   4.038   2.773   5.635 -0.4619 -0.2444  0.6713
  140MOL    O7433712   3.760   2.633   5.686  0.1363  0.4050  0.1790
  140MOL    C7533713   3.628   2.616   5.749 -0.2582  0.4116 -0.2686
  140MOL    C7633714   3.520   2.675   5.662 -0.3817  1.2241 -0.5303
  140MOL    C7733715   3.602   2.465   5.782  0.6863 -0.6584 -0.2040
  140MOL    C7833716   3.690   2.390   5.877 -0.2055 -0.2489 -0.0773
  140MOL    O7933717   3.752   2.291   5.837 -0.0897  0.4286 -0.4903
  140MOL    H8033718   3.621   2.669   5.844 -1.3426 -1.5542  0.7650
  140MOL    H8133719   3.525   2.782   5.639 -1.7239  1.5132  0.4758
  140MOL    H8233720   3.427   2.660   5.716  0.4461  0.8294  0.8127
  140MOL    H8333721   3.516   2.624   5.566  2.0905 -0.5258  0.2528
  140MOL    H8433722   3.589   2.402   5.695  0.7037 -0.6065 -0.2437
  140MOL    H8533723   3.502   2.460   5.825  1.1927 -0.4517  1.0373
  140MOL    O8633724   3.691   2.441   6.002  0.2811 -0.0152 -0.0550
  140MOL    C8733725   3.771   2.372   6.100 -0.1475  0.4632  0.0819
  140MOL    C8833726   3.923   2.403   6.090 -0.5539  0.1931  0.1812
  140MOL    C8933727   3.711   2.409   6.241 -0.1770 -0.7134  0.8897
  140MOL    C9033728   3.743   2.329   6.367  0.0893 -0.5423  0.1408
  140MOL    O9133729   3.790   2.385   6.468 -0.3123  0.1260  0.3287
  140MOL    H9233730   3.761   2.266   6.079  0.3848  0.6484 -1.1864
  140MOL    H9333731   3.963   2.399   5.989  0.1615 -2.4088  0.5187
  140MOL    H9433732   3.977   2.338   6.159  2.4686  0.3601 -1.8987
  140MOL    H9533733   3.939   2.507   6.118  0.4050 -0.0740  0.6323
  140MOL    H9633734   3.603   2.409   6.231 -0.0386  0.3234 -0.9064
  140MOL    H9733735   3.752   2.506   6.269  0.6013 -0.6488 -0.4182
  140MOL    O9833736   3.717   2.198   6.352 -0.2045  0.4839  0.3776
  140MOL    C9933737   3.784   2.105   6.439  0.1965 -0.1465 -0.1161
  140MOL   C10033738   3.678   2.007   6.493  0.1628 -0.1385  0.0612
  140MOL   C10133739   3.884   2.044   6.337  0.2259 -0.3967  0.0676
  140MOL   C10233740   3.982   1.936   6.394  1.0953 -0.0137  0.3076
  140MOL   O10333741   3.985   1.900   6.511 -0.3230  0.1833 -0.2869
  140MOL   H10433742   3.835   2.150   6.524 -3.7283  1.7816  1.3588
  140MOL   H10533743   3.724   1.945   6.571  0.3205  2.1206  1.8123
  140MOL   H10633744   3.635   1.957   6.406  2.0700  1.5549 -1.9018
  140MOL   H10733745   3.597   2.068   6.534 -0.7304 -0.9003 -0.5183
  140MOL   H10833746   3.958   2.120   6.314  0.8595 -0.1200  2.8016
  140MOL   H10933747   3.827   2.014   6.249 -2.5023 -0.8969  1.9127
  140MOL   O11033748   4.077   1.884   6.302  0.1645  0.2704  0.0290
  140MOL   C11133749   4.162   1.783   6.350 -0.7883  0.1709 -0.2976
  140MOL   C11233750   4.179   1.684   6.233  0.3827 -1.0063 -0.3939
  140MOL   C11333751   4.298   1.842   6.394 -0.0651 -0.1441  0.8359
  140MOL   C11433752   4.291   1.879   6.544  0.4017  0.6977  0.5812
  140MOL   O11533753   4.297   1.995   6.581  0.0193 -0.5138 -0.2260
  140MOL   H11633754   4.113   1.718   6.423 -1.3227 -1.1050 -1.7579
  140MOL   H11733755   4.234   1.731   6.152  0.3229  1.6557  1.0480
  140MOL   H11833756   4.082   1.656   6.191  0.7386 -1.8253 -0.6874
  140MOL   H11933757   4.233   1.590   6.250  2.1355 -0.2698 -1.7697
  140MOL   H12033758   4.331   1.927   6.335  1.7388 -2.3316 -1.4806
  140MOL   H12133759   4.381   1.771   6.386 -0.4622 -0.5340  0.1148
  140MOL   O12233760   4.287   1.767   6.625 -0.0248  0.0980 -0.2071
  140MOL   C12333761   4.271   1.784   6.766  0.6233  0.2445 -0.5565
  140MOL   C12433762   4.197   1.666   6.819  0.6152  0.0263  0.4634
  140MOL   C12533763   4.406   1.827   6.835  0.0359 -0.0240 -0.2812
  140MOL   C12633764   4.511   1.719   6.842 -0.7415 -0.2657  0.1796
  140MOL   O12733765   4.538   1.668   6.951 -0.6343  0.3430 -0.1725
  140MOL   H12833766   4.194   1.860   6.781 -1.3277 -1.9238  0.7442
  140MOL   H12933767   4.115   1.653   6.748  1.3503  1.0105 -0.5746
  140MOL   H13033768   4.167   1.705   6.916  2.2064  0.8632  0.6408
  140MOL   H13133769   4.258   1.576   6.827  1.4620  0.6686  1.4117
  140MOL   H13233770   4.389   1.879   6.929 -0.7036  0.6964 -0.8031
  140MOL   H13333771   4.461   1.899   6.775  1.5886 -1.0510 -0.1266
  140MOL   O13433772   4.575   1.694   6.722  0.4034 -0.0109 -0.3720
  140MOL   C13533773   4.673   1.599   6.716  0.6175  0.2219  0.3820
  140MOL   C13633774   4.615   1.474   6.640 -0.1608  0.5609  0.3434
  140MOL   C13733775   4.797   1.662   6.646 -0.2499 -0.3375 -0.2310
  140MOL   C13833776   4.899   1.711   6.752  0.0434  0.1718  1.1240
  140MOL   O13933777   5.012   1.674   6.747 -0.4379 -0.2315 -0.7322
  140MOL   H14033778   4.708   1.565   6.814 -1.5312 -2.8220  0.1577
  140MOL   H14133779   4.698   1.410   6.611 -0.4997  0.8488 -1.3322
  140MOL   H14233780   4.567   1.504   6.547  0.2064 -0.9070 -0.3319
  140MOL   H14333781   4.548   1.411   6.697 -1.2631  0.0593 -1.4766
  140MOL   H14433782   4.765   1.736   6.573 -3.1042 -1.8681 -0.6112
  140MOL   H14533783   4.848   1.583   6.591 -0.2142 -0.0609 -0.5930
  140MOL   O14633784   4.853   1.805   6.828  0.4137 -0.2480 -0.1483
  140MOL   C14733785   4.923   1.864   6.938 -0.4081 -0.2090 -0.0031
  140MOL   C14833786   4.961   2.005   6.902 -0.6361  0.0615 -0.2230
  140MOL   C14933787   4.836   1.830   7.056  0.6363  0.0805 -0.3147
  140MOL   C15033788   4.891   1.884   7.189  0.3197  0.8117 -0.0082
  140MOL   O15133789   4.826   1.951   7.266 -0.2904 -0.3123  0.1409
  140MOL   H15233790   5.018   1.811   6.939  0.4640  1.3152  0.1769
  140MOL   H15333791   5.029   2.047   6.976  0.1974 -2.1234  0.2958
  140MOL   H15433792   4.878   2.072   6.883 -1.2135 -1.4222 -3.1916
  140MOL   H15533793   5.018   1.988   6.811 -1.5606 -0.1920 -0.7538
  140MOL   H15633794   4.808   1.725   7.062 -1.3085  0.6187  0.4382
  140MOL   H15733795   4.733   1.864   7.046  0.0937 -1.3307  0.3562
  140MOL   O15833796   5.014   1.841   7.211 -0.8360 -0.0067  0.3218
  140MOL   C15933797   5.085   1.869   7.327 -0.7999  0.0368 -0.3856
  140MOL   C16033798   5.163   1.738   7.362  0.0125 -0.0250 -0.3453
  140MOL   C16133799   5.177   1.991   7.315 -0.6352  0.0743 -0.3717
  140MOL   C16233800   5.296   1.973   7.221  0.5726  0.1950  0.2103
  140MOL   O16333801   5.406   1.978   7.275 -0.1812 -0.0755  0.0324
  140MOL   H16433802   5.013   1.888   7.406 -0.5963 -0.2272 -0.1376
  140MOL   H16533803   5.088   1.659   7.360  3.1044 -3.1478  0.3236
  140MOL   H16633804   5.187   1.740   7.468  0.9109  1.6076 -0.5648
  140MOL   H16733805   5.254   1.727   7.303  1.1202 -0.4925  1.4014
  140MOL   H16833806   5.224   2.007   7.412 -1.5854 -0.1693  0.1353
  140MOL   H16933807   5.126   2.086   7.297  1.5413  1.0369 -1.6411
  140MOL   O17033808   5.264   1.942   7.091  0.7891  0.3175 -0.2741
  140MOL   C17133809   5.347   1.875   7.004 -0.6556 -0.0038 -0.5122
  140MOL   C17233810   5.318   1.727   6.994  0.4409 -0.4760 -0.2243
  140MOL   C17333811   5.326   1.943   6.871  0.5104 -0.1722 -0.5574
  140MOL   C17433812   5.426   1.899   6.764 -0.0712  0.1002  0.5715
  140MOL   O17533813   5.401   1.829   6.668 -0.1760  0.1896  0.1414
  140MOL   H17633814   5.451   1.886   7.035 -0.4025  0.0416 -1.3504
  140MOL   H17733815   5.319   1.669   7.086 -0.1561  2.3667  1.6429
  140MOL   H17833816   5.359   1.677   6.906  0.3819 -0.0489 -0.4975
  140MOL   H17933817   5.211   1.714   6.974  0.2495  0.0862  0.4202
  140MOL   H18033818   5.334   2.052   6.873  0.5859 -0.1815 -0.2870
  140MOL   H18133819   5.225   1.916   6.843  0.3722 -0.1559 -0.0724
  140MOL   O18233820   5.548   1.937   6.795 -0.0810  0.1402 -0.1411
  140MOL   C18333821   5.660   1.913   6.709 -0.1040  0.3670  0.3918
  140MOL   C18433822   5.756   2.035   6.752 -0.4066  0.2297  0.6792
  140MOL   C18533823   5.723   1.775   6.723  0.1192  0.3057  0.1797
  140MOL   C18633824   5.813   1.771   6.848 -0.2199 -0.5184  0.2039
  140MOL   O18733825   5.933   1.776   6.834  0.1990 -0.6788 -0.0989
  140MOL   H18833826   5.628   1.927   6.606  0.5528 -1.5264 -0.1003
  140MOL   H18933827   5.705   2.131   6.745  0.1089  0.6622  2.7021
  140MOL   H19033828   5.846   2.037   6.690  0.4949  0.7879  1.9904
  140MOL   H19133829   5.778   2.026   6.858  0.9970 -3.4094  0.1558
  140MOL   H19233830   5.791   1.758   6.639  2.9276  2.0941  2.0176
  140MOL   H19333831   5.651   1.695   6.735 -0.4677  0.5925 -1.3218
  140MOL   O19433832   5.739   1.770   6.966  0.8250 -0.0936 -0.0903
  140MOL   C19533833   5.811   1.785   7.083  0.1922 -1.3394  0.5072
  140MOL   C19633834   5.713   1.862   7.170 -0.3901  0.7786 -0.3231
  140MOL   C19733835   5.851   1.656   7.150  0.1318 -0.0960  0.0084
  140MOL   C19833836   5.969   1.672   7.249  1.0591 -0.0183  0.6690
  140MOL   O19933837   5.953   1.683   7.366 -0.0965  0.1890  0.0795
  140MOL   H20033838   5.901   1.846   7.077 -0.7265 -0.1426 -1.7528
  140MOL   H20133839   5.622   1.805   7.189 -1.0599  1.0237 -2.5859
  140MOL   H20233840   5.685   1.954   7.119 -2.5515  0.7291  0.6894
  140MOL   H20333841   5.770   1.887   7.259 -0.9294 -1.8355  0.8268
  140MOL   H20433842   5.877   1.576   7.080 -1.0204  0.0219 -0.5609
  140MOL   H20533843   5.768   1.621   7.211  0.3415  0.1141  0.4139
  140MOL   O20633844   6.087   1.660   7.184  0.6034 -0.4536  0.0590
  140MOL   C20733845   6.213   1.704   7.242  0.2323 -0.2657 -0.5690
  140MOL   C20833846   6.317   1.641   7.150  0.4267 -1.1171 -0.2399
  140MOL   C20933847   6.215   1.852   7.275  0.3631  0.7979  0.3366
  140MOL   C21033848   6.252   1.952   7.165 -0.4865  0.3742  0.9692
  140MOL   O21133849   6.365   1.965   7.120 -0.3301  0.4511  0.0382
  140MOL   H21233850   6.213   1.652   7.338 -0.0476  2.0353  0.7127
  140MOL   H21333851   6.357   1.692   7.062  0.5094  1.1060  1.0644
  140MOL   H21433852   6.296   1.539   7.117 -2.1638 -0.8372  0.4666
  140MOL   H21533853   6.411   1.640   7.205  0.4479 -0.7186 -0.2699
  140MOL   H21633854   6.291   1.862   7.353 -0.1409 -1.0703  1.1052
  140MOL   H21733855   6.126   1.888   7.327  0.3618 -0.3960  1.1823
  140MOL   O21833856   6.144   2.021   7.110 -0.7196 -0.1070 -0.0057
  140MOL   C21933857   6.161   2.128   7.020  0.1964  0.5411  0.2877
  140MOL   C22033858   6.038   2.152   6.921  0.0452  0.4138  0.2144
  140MOL   C22133859   6.207   2.260   7.092 -0.1241  0.1168 -0.0442
  140MOL   C22233860   6.305   2.333   7.009  0.3068  0.3093 -0.3404
  140MOL   O22333861   6.427   2.309   7.017  0.1098 -0.0683  0.5664
  140MOL   H22433862   6.243   2.098   6.954 -0.0106  1.0527 -0.2013
  140MOL   H22533863   6.078   2.208   6.836 -1.4608  3.2459  1.2877
  140MOL   H22633864   5.956   2.214   6.958 -0.2219 -0.7355  1.5908
  140MOL   H22733865   6.009   2.049   6.901  2.5036 -0.0411 -1.1855
  140MOL   H22833866   6.257   2.234   7.185 -4.0275  0.5162  2.3103
  140MOL   H22933867   6.125   2.321   7.131 -1.6358 -1.8772  0.0310
  140MOL   O23033868   6.246   2.422   6.929 -0.3404 -0.0300  0.1195
  140MOL   C23133869   6.326   2.525   6.863 -0.4559 -0.6221  0.6791
  140MOL   C23233870   6.293   2.548   6.721 -0.1191  0.9186 -0.3472
  140MOL   C23333871   6.309   2.666   6.930 -0.0990  0.3614 -0.4792
  140MOL   C23433872   6.166   2.706   6.937  0.4968  0.1821 -0.5051
  140MOL   O23533873   6.124   2.819   6.909  0.1820 -0.3873  0.0136
  140MOL   H23633874   6.431   2.498   6.874  0.1929  2.2949  2.3122
  140MOL   H23733875   6.358   2.629   6.690  1.0293  0.7819  1.5807
  140MOL   H23833876   6.199   2.595   6.696  0.8335  2.0833 -1.8103
  140MOL   H23933877   6.318   2.453   6.673  1.3531  0.5856  1.0004
  140MOL   H24033878   6.366   2.737   6.871  1.1133 -0.9430 -0.9028
  140MOL   H24133879   6.345   2.655   7.032 -0.6942  1.9647 -0.0923
  140MOL   H24233880   6.092   2.631   6.965 -0.0946  0.9414  0.0052
  141MOL     O133881   6.838   5.479   0.854  0.6546  0.2904  0.8558
  141MOL     C233882   6.816   5.621   0.860 -0.4682 -0.4173 -0.1171
  141MOL     C333883   6.721   5.659   0.742  0.2053  0.5898 -0.4519
  141MOL     C433884   6.762   5.648   1.003  0.8295  0.1210 -0.3899
  141MOL     C533885   6.734   5.795   1.043  0.1480 -0.6358 -0.5558
  141MOL     O633886   6.760   5.895   0.974 -0.5547 -0.4635 -0.4534
  141MOL     H733887   6.903   5.686   0.848 -0.7938 -0.2905 -2.0035
  141MOL     H833888   6.767   5.672   0.643  0.2602 -0.0148 -0.5129
  141MOL     H933889   6.661   5.746   0.767  0.2321  1.3357 -2.8303
  141MOL    H1033890   6.643   5.584   0.731  0.6732 -0.0633  0.5944
  141MOL    H1133891   6.846   5.618   1.066  0.3178  1.2104  0.8355
  141MOL    H1233892   6.676   5.586   1.027  1.5952 -0.0554  2.1243
  141MOL    H1333893   6.877   5.460   0.770 -0.9578 -1.1484  0.3894
  141MOL    O1433894   6.663   5.798   1.159  0.5730 -0.3515  0.0947
  141MOL    C1533895   6.629   5.925   1.218  0.0691 -0.4342  0.2481
  141MOL    C1633896   6.483   5.968   1.194  0.5551  0.3880  0.3108
  141MOL    C1733897   6.672   5.911   1.369 -0.0100 -0.1046 -0.3781
  141MOL    C1833898   6.724   6.039   1.434 -0.4248 -0.3098  0.4326
  141MOL    O1933899   6.761   6.132   1.368 -0.0980 -0.1325  0.6161
  141MOL    H2033900   6.692   6.002   1.173  1.2301 -1.3998  0.1968
  141MOL    H2133901   6.461   6.063   1.242 -0.5278  0.6545 -0.6862
  141MOL    H2233902   6.415   5.892   1.233  2.2815 -1.8189 -0.8359
  141MOL    H2333903   6.474   5.989   1.087  0.6092  2.7968  0.7504
  141MOL    H2433904   6.751   5.839   1.391 -0.0717  0.0081  0.2145
  141MOL    H2533905   6.583   5.871   1.417  1.1523 -2.4018 -0.0462
  141MOL    O2633906   6.718   6.033   1.568  0.0300 -0.3862 -0.2092
  141MOL    C2733907   6.783   6.137   1.637 -0.1656  0.1084  0.6154
  141MOL    C2833908   6.719   6.148   1.778 -0.2042  0.4739 -0.6253
  141MOL    C2933909   6.935   6.110   1.644  0.1397 -0.2196  0.6616
  141MOL    C3033910   7.024   6.205   1.726  0.8632  0.0143 -0.1448
  141MOL    O3133911   7.102   6.168   1.811  0.1715  0.3587  0.2293
  141MOL    H3233912   6.773   6.235   1.590  2.1527  1.1120  2.1076
  141MOL    H3333913   6.611   6.160   1.785  0.1050  2.2702  1.4465
  141MOL    H3433914   6.754   6.224   1.847 -0.2998  2.0375 -2.2337
  141MOL    H3533915   6.736   6.056   1.832  0.1674  1.8246  1.5993
  141MOL    H3633916   6.964   6.108   1.538 -1.0517 -1.6972  0.3402
  141MOL    H3733917   6.957   6.009   1.680  3.8060 -0.4971 -2.0250
  141MOL    O3833918   7.010   6.333   1.692 -0.3114  0.2469  0.0161
  141MOL    C3933919   7.105   6.431   1.736  0.6029  0.7281 -0.5267
  141MOL    C4033920   7.139   6.528   1.615 -0.2819  0.0639 -0.7711
  141MOL    C4133921   7.044   6.509   1.857  0.5316  0.3557 -0.1009
  141MOL    C4233922   7.155   6.607   1.913  0.2784 -0.0295 -0.0855
  141MOL    O4333923   7.160   6.723   1.873  0.3153  0.4826 -0.1161
  141MOL    H4433924   7.200   6.388   1.768  0.7497  0.0936 -1.7735
  141MOL    H4533925   7.168   6.462   1.534  0.6173 -1.0367  0.4216
  141MOL    H4633926   7.222   6.595   1.642 -0.5011 -0.0640  0.2506
  141MOL    H4733927   7.048   6.579   1.586 -0.8185  2.0393  3.8267
  141MOL    H4833928   7.012   6.434   1.928 -2.8771  1.6144 -0.1887
  141MOL    H4933929   6.956   6.568   1.830 -1.0236 -1.2558  1.3533
  141MOL    O5033930   7.251   6.551   1.994 -0.7314  0.5731 -0.3115
  141MOL    C5133931   7.346   6.636   2.063 -0.5605  0.1159  0.1221
  141MOL    C5233932   7.394   6.577   2.196 -0.3809 -0.1959  0.1494
  141MOL    C5333933   7.459   6.680   1.967 -0.0888  0.7986 -0.1467
  141MOL    C5433934   7.538   6.563   1.901 -0.0287  0.0894  0.0540
  141MOL    O5533935   7.479   6.506   1.803  0.2084 -0.0635  0.3921
  141MOL    H5633936   7.288   6.724   2.089  0.1586  0.3028  1.0974
  141MOL    H5733937   7.472   6.643   2.232 -0.4253  0.0602 -0.2223
  141MOL    H5833938   7.427   6.473   2.195  0.5358  0.0905 -0.0155
  141MOL    H5933939   7.315   6.577   2.271 -0.4228 -1.6062  0.1213
  141MOL    H6033940   7.523   6.751   2.019 -1.3635 -0.3417  3.1238
  141MOL    H6133941   7.428   6.754   1.893  3.0610  2.3707 -0.0015
  141MOL    O6233942   7.648   6.530   1.969 -0.2495 -0.2175 -0.1828
  141MOL    C6333943   7.714   6.409   1.939  0.3438 -0.4775 -0.1422
  141MOL    C6433944   7.862   6.437   1.926  0.3493 -0.0363  0.1271
  141MOL    C6533945   7.675   6.287   2.027 -0.4472 -0.2348  0.0895
  141MOL    C6633946   7.717   6.293   2.171  0.7328  0.0095  0.1697
  141MOL    O6733947   7.798   6.371   2.216 -0.0991 -0.2182  0.0617
  141MOL    H6833948   7.682   6.385   1.838 -0.7179  0.4216 -0.0200
  141MOL    H6933949   7.883   6.498   1.838 -0.8351  1.3174  0.7662
  141MOL    H7033950   7.919   6.344   1.929 -0.8075 -0.8414 -1.8303
  141MOL    H7133951   7.896   6.497   2.011 -1.4076  0.0772  0.7709
  141MOL    H7233952   7.717   6.193   1.993 -0.0565 -0.9633  2.4519
  141MOL    H7333953   7.567   6.279   2.026 -0.6496  2.1492 -1.3711
  141MOL    O7433954   7.649   6.187   2.241 -0.2835 -0.1499 -0.5555
  141MOL    C7533955   7.649   6.177   2.384 -0.1952  0.1687  0.0169
  141MOL    C7633956   7.554   6.287   2.450 -0.2201  0.0993  1.2930
  141MOL    C7733957   7.594   6.039   2.425  0.0973  0.3978  0.1002
  141MOL    C7833958   7.602   6.008   2.570 -0.5776 -0.2104  0.5579
  141MOL    O7933959   7.686   6.060   2.646  0.3177  0.4061 -0.1213
  141MOL    H8033960   7.756   6.184   2.401 -0.4483  0.9683  1.2757
  141MOL    H8133961   7.589   6.384   2.416 -0.3938 -0.3606 -0.2513
  141MOL    H8233962   7.557   6.272   2.557  0.2040 -1.2409  1.1058
  141MOL    H8333963   7.451   6.269   2.417  0.8033 -1.1120 -1.4135
  141MOL    H8433964   7.657   5.975   2.362 -3.4510 -0.6516 -2.5862
  141MOL    H8533965   7.492   6.021   2.391  0.4537  0.3524 -0.9751
  141MOL    O8633966   7.520   5.903   2.601  0.2544  0.2209 -0.0329
  141MOL    C8733967   7.504   5.862   2.737  0.3279  0.2588  0.1631
  141MOL    C8833968   7.364   5.792   2.729  0.2775  1.0566 -0.5992
  141MOL    C8933969   7.619   5.766   2.783  0.0155 -0.7703  0.3116
  141MOL    C9033970   7.627   5.742   2.931  0.4787 -0.2619  0.1062
  141MOL    O9133971   7.626   5.842   3.014 -0.5014  0.1101 -0.3057
  141MOL    H9233972   7.500   5.950   2.801 -1.5522  0.4901 -0.2326
  141MOL    H9333973   7.352   5.759   2.832  2.5633  3.2610  0.4420
  141MOL    H9433974   7.368   5.707   2.660 -1.2048  1.1027 -0.7597
  141MOL    H9533975   7.285   5.865   2.713 -0.4472  0.9452  2.2573
  141MOL    H9633976   7.712   5.822   2.772 -1.0444  0.5641 -2.5473
  141MOL    H9733977   7.625   5.676   2.722  2.0502 -0.0762 -0.5607
  141MOL    O9833978   7.628   5.607   2.964  0.6162 -0.5515 -0.7398
  141MOL    C9933979   7.639   5.562   3.100  0.3076 -0.5876  0.5227
  141MOL   C10033980   7.578   5.428   3.117  0.3085 -0.1096  0.0966
  141MOL   C10133981   7.791   5.562   3.117  0.4865  0.0328 -0.1439
  141MOL   C10233982   7.833   5.508   3.254  0.5026  0.3275  0.1660
  141MOL   O10333983   7.822   5.582   3.352  0.0945  0.2622  0.3716
  141MOL   H10433984   7.606   5.635   3.174 -1.1969 -1.4200  0.6823
  141MOL   H10533985   7.542   5.419   3.219  1.7065 -0.5100  0.5661
  141MOL   H10633986   7.636   5.343   3.081  1.1585 -0.4506  2.2346
  141MOL   H10733987   7.489   5.420   3.054 -0.5036  0.8438  1.0851
  141MOL   H10833988   7.835   5.661   3.113 -3.1405  1.7858  0.7069
  141MOL   H10933989   7.829   5.502   3.035  1.4924  1.7507 -0.9498
  141MOL   O11033990   7.868   5.377   3.250 -0.4679  0.1092  0.0945
  141MOL   C11133991   7.929   5.316   3.364 -0.2245  0.1496  0.3052
  141MOL   C11233992   7.824   5.237   3.446  0.2909  0.6963 -0.3300
  141MOL   C11333993   0.059   5.230   3.305  0.5637  0.1143 -0.1207
  141MOL   C11433994   0.175   5.205   3.395  0.6342 -0.2519  0.2322
  141MOL   O11533995   0.266   5.286   3.407 -0.7666 -0.5471 -0.2840
  141MOL   H11633996   7.967   5.401   3.420  0.2532  1.4808 -1.9776
  141MOL   H11733997   7.787   5.150   3.391 -0.3585  0.8793 -0.1837
  141MOL   H11833998   7.743   5.300   3.481  0.0919  1.0673 -1.4578
  141MOL   H11933999   7.871   5.200   3.537  1.6078  1.3999 -0.7065
  141MOL   H12034000   0.100   5.289   3.223 -0.8746  0.4430 -0.6181
  141MOL   H12134001   0.014   5.144   3.255  1.6452  0.0078 -0.9163
  141MOL   O12234002   0.169   5.078   3.445  1.0426 -0.2745 -0.4377
  141MOL   C12334003   0.260   5.038   3.549  0.2420  0.0091  0.0056
  141MOL   C12434004   0.179   4.957   3.649  0.2619 -0.0480 -0.6126
  141MOL   C12534005   0.375   4.949   3.489  0.8110  0.5275 -0.2151
  141MOL   C12634006   0.467   4.889   3.602 -0.5109  0.1096  0.3800
  141MOL   O12734007   0.451   4.777   3.640 -0.1349  0.4616 -0.6238
  141MOL   H12834008   0.306   5.130   3.586 -2.5008  1.6272 -0.4975
  141MOL   H12934009   0.134   4.866   3.610 -1.7147 -0.9807  3.4777
  141MOL   H13034010   0.102   5.023   3.688  1.3118  0.4771  0.6113
  141MOL   H13134011   0.238   4.942   3.740  1.0131  0.9482 -0.9148
  141MOL   H13234012   0.441   5.004   3.423  0.2520 -1.0410 -2.1176
  141MOL   H13334013   0.343   4.866   3.426  1.0624  0.4366 -0.2248
  141MOL   O13434014   0.561   4.974   3.646 -0.4608 -0.1671 -0.1374
  141MOL   C13534015   0.647   4.926   3.751  0.0514  0.3396 -0.3071
  141MOL   C13634016   0.776   4.872   3.699 -0.2110  0.8680  0.5036
  141MOL   C13734017   0.645   5.029   3.864  0.1437  0.3956 -0.4168
  141MOL   C13834018   0.520   5.035   3.951  0.3872 -0.8334 -0.9055
  141MOL   O13934019   0.445   5.133   3.950  0.2878 -0.2601  0.5166
  141MOL   H14034020   0.600   4.841   3.802 -0.7093 -0.0211 -1.6072
  141MOL   H14134021   0.834   4.943   3.639 -1.0741  0.0032 -1.4039
  141MOL   H14234022   0.758   4.795   3.624 -1.8971 -0.7394  2.5158
  141MOL   H14334023   0.829   4.835   3.786  0.4544 -0.5677 -0.4877
  141MOL   H14434024   0.680   5.127   3.832 -2.1154  1.3658 -0.0003
  141MOL   H14534025   0.730   5.005   3.927 -1.1805 -0.8967  0.9222
  141MOL   O14634026   0.488   4.919   4.012  0.1310  0.2356 -0.3571
  141MOL   C14734027   0.365   4.903   4.099  0.6018 -0.6238 -0.2519
  141MOL   C14834028   0.265   4.804   4.037 -0.9739 -0.4777 -0.4077
  141MOL   C14934029   0.410   4.877   4.244  0.0304 -0.3669 -0.6363
  141MOL   C15034030   0.295   4.876   4.341 -0.4348 -0.4435  0.1563
  141MOL   O15134031   0.246   4.986   4.373 -0.2664  0.4321  1.0176
  141MOL   H15234032   0.320   5.002   4.089  1.8402 -0.1797 -1.5128
  141MOL   H15334033   0.166   4.810   4.082 -0.0312 -1.5150  1.8845
  141MOL   H15434034   0.305   4.702   4.037  1.0829  0.3061  0.1056
  141MOL   H15534035   0.249   4.831   3.933 -0.8038 -0.2677 -0.3787
  141MOL   H15634036   0.477   4.961   4.263 -0.6809  0.1661 -0.4839
  141MOL   H15734037   0.473   4.790   4.264 -1.3987 -1.2685  0.0108
  141MOL   O15834038   0.251   4.745   4.380  0.2252  0.1998 -0.2231
  141MOL   C15934039   0.158   4.720   4.485  1.1468 -0.6566 -0.2772
  141MOL   C16034040   0.024   4.676   4.422 -0.1201  0.2876 -0.3831
  141MOL   C16134041   0.220   4.619   4.578  0.7775  0.5232 -1.2937
  141MOL   C16234042   0.165   4.628   4.727 -0.2206  0.0407  0.1232
  141MOL   O16334043   0.064   4.694   4.754  0.4105 -0.6977  0.2666
  141MOL   H16434044   0.140   4.811   4.543 -0.9670 -0.9029 -0.5012
  141MOL   H16534045   0.039   4.577   4.379  0.6193 -0.9381  2.5663
  141MOL   H16634046   7.964   4.746   4.348 -1.1949 -1.8355 -1.8527
  141MOL   H16734047   7.929   4.679   4.501  0.5069 -2.1739  0.3265
  141MOL   H16834048   0.329   4.627   4.585  0.9512 -1.6044 -1.1626
  141MOL   H16934049   0.213   4.515   4.545 -1.4512  0.4566 -0.6671
  141MOL   O17034050   0.241   4.564   4.816 -0.2668 -0.0542  0.4719
  141MOL   C17134051   0.186   4.520   4.941  0.6686 -0.4301 -0.2539
  141MOL   C17234052   0.229   4.370   4.962  0.7566  0.0499  0.5002
  141MOL   C17334053   0.203   4.618   5.059 -0.5316 -0.6203  0.4334
  141MOL   C17434054   0.354   4.645   5.092  0.0791  0.4203 -0.2031
  141MOL   O17534055   0.406   4.757   5.063  0.2408 -0.5409  0.2285
  141MOL   H17634056   0.079   4.519   4.921  0.1153 -0.5270  2.4310
  141MOL   H17734057   0.178   4.336   5.053 -1.4157 -0.1077 -0.7454
  141MOL   H17834058   0.334   4.357   4.990  0.7325 -1.2852 -0.0108
  141MOL   H17934059   0.190   4.307   4.882  3.8504 -1.1924 -0.1331
  141MOL   H18034060   0.168   4.575   5.152 -0.8722 -0.1303  0.5331
  141MOL   H18134061   0.149   4.710   5.039  3.5601  1.9711  0.6262
  141MOL   O18234062   0.414   4.534   5.164  0.3596 -0.4464  0.2162
  141MOL   C18334063   0.545   4.552   5.217 -0.1321  0.5315 -0.2337
  141MOL   C18434064   0.531   4.497   5.360  0.5476 -0.0478  0.2089
  141MOL   C18534065   0.644   4.456   5.147  0.2679 -0.8333 -0.1908
  141MOL   C18634066   0.688   4.494   5.001  0.3285 -0.0897  0.4340
  141MOL   O18734067   0.799   4.524   4.967 -0.0725  0.3268 -0.6437
  141MOL   H18834068   0.580   4.654   5.211  0.4996  0.3564  0.4186
  141MOL   H18934069   0.459   4.557   5.415  1.1270  0.0479  0.8806
  141MOL   H19034070   0.627   4.507   5.412  0.9770 -0.5387 -0.4825
  141MOL   H19134071   0.511   4.390   5.356 -0.0085  0.0819 -0.6598
  141MOL   H19234072   0.609   4.354   5.133 -0.3443 -0.2614 -3.2219
  141MOL   H19334073   0.733   4.454   5.211 -1.0076  0.6631  1.6838
  141MOL   O19434074   0.579   4.485   4.920  0.2559 -0.2893 -0.1623
  141MOL   C19534075   0.588   4.520   4.781  0.1446 -0.6392  0.0614
  141MOL   C19634076   0.513   4.412   4.692 -0.5533  0.3965  0.0302
  141MOL   C19734077   0.543   4.663   4.741 -0.9264 -0.2990 -0.0838
  141MOL   C19834078   0.607   4.720   4.611 -0.2973 -0.0791  0.2497
  141MOL   O19934079   0.542   4.781   4.530  0.4640  0.1671  0.0249
  141MOL   H20034080   0.693   4.511   4.755  0.1339 -2.7313  0.5977
  141MOL   H20134081   0.405   4.402   4.703 -0.7730  2.3539 -0.2572
  141MOL   H20234082   0.567   4.317   4.687 -0.4728  0.4550 -0.2183
  141MOL   H20334083   0.538   4.443   4.591 -1.1067  2.3582  0.4645
  141MOL   H20434084   0.562   4.744   4.811 -0.9324  0.5590 -1.0552
  141MOL   H20534085   0.436   4.669   4.720 -1.4601  0.6099  2.6846
  141MOL   O20634086   0.736   4.681   4.591  0.8891 -0.7195 -0.2788
  141MOL   C20734087   0.803   4.727   4.481 -0.0419 -0.3082 -0.2128
  141MOL   C20834088   0.951   4.714   4.523  0.3942 -0.6067  0.2378
  141MOL   C20934089   0.765   4.639   4.365 -0.2656  0.7956  0.2434
  141MOL   C21034090   0.798   4.700   4.224 -0.1180  0.7531 -0.4987
  141MOL   O21134091   0.829   4.818   4.207  0.2404 -0.1944  0.1583
  141MOL   H21234092   0.776   4.829   4.455 -1.1898  0.1016  2.4790
  141MOL   H21334093   0.979   4.611   4.547 -1.2650 -1.2313 -0.4691
  141MOL   H21434094   0.974   4.767   4.616 -0.0194 -0.8305  0.4665
  141MOL   H21534095   1.025   4.745   4.449  3.3505  0.6823  3.5575
  141MOL   H21634096   0.663   4.602   4.372 -0.0581  0.4723  1.8687
  141MOL   H21734097   0.817   4.544   4.371 -1.1414  0.1802 -1.5950
  141MOL   O21834098   0.789   4.604   4.135 -0.5522 -0.0327 -0.0673
  141MOL   C21934099   0.800   4.632   3.998  0.3936 -0.6677  0.0854
  141MOL   C22034100   0.898   4.538   3.932  0.2044 -0.3241 -1.0779
  141MOL   C22134101   0.655   4.629   3.933 -0.3564 -0.5914  0.5502
  141MOL   C22234102   0.585   4.491   3.946  0.1854 -0.7036  0.4606
  141MOL   O22334103   0.629   4.392   3.881  0.3272  0.4882 -0.4587
  141MOL   H22434104   0.830   4.737   3.989 -0.5422 -0.2683  1.4785
  141MOL   H22534105   0.995   4.542   3.981 -0.4440 -0.4734  0.2586
  141MOL   H22634106   0.914   4.564   3.827 -1.5032  2.1228 -0.7578
  141MOL   H22734107   0.858   4.437   3.946 -0.6106  0.1231 -0.1847
  141MOL   H22834108   0.661   4.646   3.825 -0.0810 -0.1749  0.6289
  141MOL   H22934109   0.589   4.704   3.978 -0.6716 -0.7878  0.4173
  141MOL   O23034110   0.467   4.487   4.017  0.1747 -0.1908 -0.1164
  141MOL   C23134111   0.382   4.371   4.025 -0.2742 -0.1613  0.1371
  141MOL   C23234112   0.330   4.337   4.173 -0.1811  0.0260  0.5353
  141MOL   C23334113   0.263   4.394   3.924  0.2549 -0.6274  0.4095
  141MOL   C23434114   0.253   4.275   3.834  0.6471 -0.1438  0.0333
  141MOL   O23534115   0.256   4.306   3.714  0.5562 -0.1204 -0.4551
  141MOL   H23634116   0.443   4.285   4.000 -0.8744 -0.3716 -0.6431
  141MOL   H23734117   0.267   4.420   4.206 -0.8108 -0.0245 -0.5145
  141MOL   H23834118   0.410   4.335   4.247  0.1018  0.9122  0.2538
  141MOL   H23934119   0.278   4.241   4.179 -1.6287  0.6818 -0.8148
  141MOL   H24034120   0.302   4.477   3.863  1.2359 -0.9495  0.5830
  141MOL   H24134121   0.164   4.419   3.963 -0.6338 -0.7504 -1.6981
  141MOL   H24234122   0.242   4.170   3.861 -0.8253  0.5252  2.1372
  142MOL     O134123   4.805   6.134   5.877 -0.4007  0.3664  0.3097
  142MOL     C234124   4.731   6.205   5.784 -0.1125 -0.2659  0.4363
  142MOL     C334125   4.622   6.300   5.845 -0.3399 -0.4553  0.0137
  142MOL     C434126   4.830   6.297   5.702 -0.8176 -0.1795  0.7839
  142MOL     C534127   4.782   6.357   5.574 -0.7713  0.2467 -0.3697
  142MOL     O634128   4.813   6.466   5.544  0.0066  0.5165 -0.3080
  142MOL     H734129   4.681   6.134   5.718  0.9500 -1.9417  1.4019
  142MOL     H834130   4.564   6.244   5.919 -0.5797  0.4655  0.5334
  142MOL     H934131   4.549   6.322   5.768  1.5632  1.5701 -1.2699
  142MOL    H1034132   4.666   6.389   5.890 -2.1613 -0.3727  1.7224
  142MOL    H1134133   4.912   6.228   5.683 -0.8453 -0.1456  0.5432
  142MOL    H1234134   4.871   6.368   5.774  1.5879 -0.4003 -0.2982
  142MOL    H1334135   4.833   6.199   5.940 -3.0813  0.8597  1.0325
  142MOL    O1434136   4.711   6.268   5.494 -0.4187 -0.2469  0.0566
  142MOL    C1534137   4.668   6.294   5.358 -0.0383  0.0915  0.3742
  142MOL    C1634138   4.638   6.162   5.285  0.2187  0.3880  0.1746
  142MOL    C1734139   4.539   6.385   5.359 -0.2139  0.0281 -0.2834
  142MOL    C1834140   4.520   6.436   5.226 -0.3996 -0.6411  0.4295
  142MOL    O1934141   4.449   6.384   5.142  0.2225 -0.2455 -0.0485
  142MOL    H2034142   4.749   6.343   5.303  1.9768 -1.7274  1.6440
  142MOL    H2134143   4.601   6.173   5.183  1.7951 -1.8918 -0.6932
  142MOL    H2234144   4.568   6.102   5.342  0.0237 -1.0890 -1.5623
  142MOL    H2334145   4.735   6.113   5.276  0.0983  0.5679 -2.6206
  142MOL    H2434146   4.549   6.464   5.433  0.6100 -0.9279  0.6475
  142MOL    H2534147   4.453   6.333   5.402 -0.7034 -0.6925 -2.0854
  142MOL    O2634148   4.608   6.537   5.207 -0.3140 -0.0615 -0.0209
  142MOL    C2734149   4.635   6.602   5.082  0.0478 -0.3403 -0.9640
  142MOL    C2834150   4.526   6.697   5.043 -0.8082 -0.2109  0.0617
  142MOL    C2934151   4.772   6.668   5.074 -0.3307 -0.3688 -0.3793
  142MOL    C3034152   4.839   6.678   4.936 -0.3072 -0.0526  0.0384
  142MOL    O3134153   4.850   6.580   4.861 -0.1759  0.2406 -0.3374
  142MOL    H3234154   4.638   6.523   5.007 -0.3954 -2.5174  1.2494
  142MOL    H3334155   4.547   6.746   4.948 -0.3250 -0.0413  0.2552
  142MOL    H3434156   4.518   6.780   5.114  2.9495 -1.3547  1.9220
  142MOL    H3534157   4.425   6.656   5.035 -0.3622 -1.0680 -1.2649
  142MOL    H3634158   4.836   6.609   5.140 -1.3214 -1.9163 -0.7786
  142MOL    H3734159   4.761   6.767   5.117  0.8420 -0.5738  0.4172
  142MOL    O3834160   4.860   6.803   4.906  0.3969 -0.4928 -0.0078
  142MOL    C3934161   4.891   6.848   4.775  0.2357 -0.2012 -0.3046
  142MOL    C4034162   4.774   6.936   4.726  0.2789 -0.0552 -0.2095
  142MOL    C4134163   5.018   6.936   4.773 -0.0232  0.4448  0.1003
  142MOL    C4234164   5.146   6.854   4.794  0.4891  0.1052 -0.3741
  142MOL    O4334165   5.229   6.832   4.700  0.4596 -0.5816  0.6311
  142MOL    H4434166   4.907   6.757   4.717 -1.2576 -0.7154  0.0690
  142MOL    H4534167   4.677   6.886   4.719  0.1495  0.3260 -1.3513
  142MOL    H4634168   4.802   6.976   4.628  1.9576 -0.9779 -0.1291
  142MOL    H4734169   4.763   7.024   4.789  1.4670 -0.7657  1.0106
  142MOL    H4834170   5.022   7.018   4.844  0.7829  1.0472 -0.6262
  142MOL    H4934171   5.028   6.986   4.676 -0.5468  1.1680  0.4114
  142MOL    O5034172   5.163   6.809   4.922  0.2100 -0.2280  0.1824
  142MOL    C5134173   5.274   6.723   4.961  0.8989  0.2857 -0.5357
  142MOL    C5234174   5.327   6.762   5.097 -0.4208  0.2294  0.8293
  142MOL    C5334175   5.226   6.575   4.963  0.5007 -0.1359  0.0987
  142MOL    C5434176   5.293   6.480   4.861 -0.2409  0.1517 -0.9833
  142MOL    O5534177   5.406   6.440   4.885  0.2177  0.5671 -0.6275
  142MOL    H5634178   5.358   6.734   4.893  0.9632  1.0401 -0.3443
  142MOL    H5734179   5.404   6.690   5.124 -1.0857  0.0001  2.1310
  142MOL    H5834180   5.247   6.770   5.170 -1.6319  1.0465 -0.5604
  142MOL    H5934181   5.359   6.866   5.099  0.4643 -0.0395  0.7841
  142MOL    H6034182   5.119   6.572   4.943  0.6063  1.2795 -0.7926
  142MOL    H6134183   5.228   6.536   5.065 -2.6754  0.3338  0.3813
  142MOL    O6234184   5.215   6.451   4.759 -0.3507  0.1948  0.1107
  142MOL    C6334185   5.271   6.390   4.644 -0.5447  0.4232  0.3700
  142MOL    C6434186   5.177   6.269   4.619 -0.5711  0.3456  0.2769
  142MOL    C6534187   5.274   6.495   4.538  1.0261 -0.3207 -0.1855
  142MOL    C6634188   5.416   6.544   4.506  0.0009  0.1610 -0.0090
  142MOL    O6734189   5.492   6.578   4.594 -0.0126 -0.3582 -0.2062
  142MOL    H6834190   5.371   6.350   4.665 -1.1346 -0.9450  0.6682
  142MOL    H6934191   5.168   6.191   4.695 -1.4037 -0.4037 -0.5805
  142MOL    H7034192   5.219   6.219   4.532  0.4861  1.5702  0.0786
  142MOL    H7134193   5.075   6.295   4.590 -0.2536 -0.2941 -1.4317
  142MOL    H7234194   5.210   6.582   4.554  0.4650 -0.8873  0.7062
  142MOL    H7334195   5.227   6.457   4.447 -0.5777 -0.8575  0.8337
  142MOL    O7434196   5.435   6.549   4.378  0.2330 -0.2656 -0.4463
  142MOL    C7534197   5.565   6.587   4.328  0.2558  0.0457 -0.1165
  142MOL    C7634198   5.600   6.510   4.204 -0.0709  0.7822  0.1442
  142MOL    C7734199   5.561   6.735   4.286 -0.7209  0.0558 -0.6149
  142MOL    C7834200   5.596   6.822   4.406 -0.0775  0.6812  0.5049
  142MOL    O7934201   5.513   6.891   4.465 -0.5212  0.5665 -0.1625
  142MOL    H8034202   5.650   6.564   4.393 -0.8397  0.8001  1.6163
  142MOL    H8134203   5.698   6.536   4.164  0.5243  1.4252  1.9942
  142MOL    H8234204   5.543   6.520   4.112 -2.1612  0.3763  1.3729
  142MOL    H8334205   5.600   6.403   4.227 -0.1601  0.9284  0.8220
  142MOL    H8434206   5.461   6.757   4.248 -1.1952  0.0883  0.6088
  142MOL    H8534207   5.629   6.753   4.203 -0.1578  0.6471 -0.0318
  142MOL    O8634208   5.734   6.823   4.418 -0.0317 -0.8182  0.0308
  142MOL    C8734209   5.795   6.908   4.515  0.0884  0.3610  0.5716
  142MOL    C8834210   5.848   6.829   4.631  0.6467 -0.1806 -0.6973
  142MOL    C8934211   5.889   6.990   4.431  0.3540 -0.2320 -0.4031
  142MOL    C9034212   5.915   7.124   4.493  0.0382 -0.6451 -0.7082
  142MOL    O9134213   6.022   7.152   4.555  0.0779 -0.2064  0.4691
  142MOL    H9234214   5.714   6.974   4.547 -0.3780  0.0153  0.1160
  142MOL    H9334215   5.896   6.897   4.701  1.1798 -0.6116 -0.6416
  142MOL    H9434216   5.920   6.757   4.592  0.5370 -0.3478 -0.5881
  142MOL    H9534217   5.763   6.770   4.664 -1.7525  2.5041 -1.7826
  142MOL    H9634218   5.853   7.010   4.331  1.1074 -0.6776 -0.7671
  142MOL    H9734219   5.978   6.932   4.408  0.8768  0.6351 -0.5589
  142MOL    O9834220   5.809   7.208   4.478  0.0447  1.0027  0.4547
  142MOL    C9934221   5.812   7.342   4.525  0.6342 -0.2567  0.5877
  142MOL   C10034222   5.716   7.411   4.430  0.0424 -0.2401  0.1698
  142MOL   C10134223   5.777   7.350   4.680  0.4176 -0.3219  0.2047
  142MOL   C10234224   5.821   7.487   4.741  0.0219 -0.1512 -0.6890
  142MOL   O10334225   5.878   7.572   4.676 -0.5739 -0.4633 -0.1477
  142MOL   H10434226   5.910   7.383   4.503  0.3831 -0.1847 -0.4300
  142MOL   H10534227   5.728   7.518   4.450  0.3453  0.0318 -1.3650
  142MOL   H10634228   5.613   7.384   4.454 -0.5980  0.0687 -2.0662
  142MOL   H10734229   5.734   7.396   4.323  1.6456  2.0247  0.0794
  142MOL   H10834230   5.828   7.271   4.734  2.3608  0.5263 -0.3417
  142MOL   H10934231   5.674   7.333   4.712  0.4059  0.4359  0.5794
  142MOL   O11034232   5.785   7.493   4.867  0.4281  0.4002 -0.2581
  142MOL   C11134233   5.820   7.602   4.949  0.0104  0.1976  0.5774
  142MOL   C11234234   5.711   7.610   5.059  0.6817 -0.4530 -0.6747
  142MOL   C11334235   5.972   7.605   4.991 -0.4462  0.6054  0.3388
  142MOL   C11434236   6.017   7.746   5.032 -0.4031 -0.4676 -0.4095
  142MOL   O11534237   6.080   7.759   5.133 -0.4154 -0.4515  0.0483
  142MOL   H11634238   5.803   7.688   4.884  2.6119  0.1295 -0.2176
  142MOL   H11734239   5.735   7.545   5.143  2.1012  0.7422 -0.1304
  142MOL   H11834240   5.609   7.581   5.033 -0.5525  1.6099  1.6672
  142MOL   H11934241   5.713   7.716   5.085  0.9447 -0.3779 -0.9960
  142MOL   H12034242   6.029   7.568   4.906 -1.2816 -2.9674  1.2537
  142MOL   H12134243   5.983   7.532   5.071 -1.4811  0.9594  0.7969
  142MOL   O12234244   5.999   7.833   4.941 -0.1756 -0.0516  0.0170
  142MOL   C12334245   6.051   7.966   4.947  0.1486  0.2021 -0.1698
  142MOL   C12434246   6.135   0.015   4.819 -0.4473  0.2495  0.7766
  142MOL   C12534247   5.939   0.088   4.966  0.1096 -0.7514  0.2131
  142MOL   C12634248   5.982   0.233   4.978  0.8439 -0.0038 -0.2965
  142MOL   O12734249   6.027   0.301   4.885  0.3755  0.3426 -0.2591
  142MOL   H12834250   6.114   0.001   5.035 -0.7254 -2.2882  0.9270
  142MOL   H12934251   6.062   0.043   4.743 -0.1136  0.2723  0.4700
  142MOL   H13034252   6.188   7.906   4.785 -0.9780  0.7421 -1.4087
  142MOL   H13134253   6.204   0.096   4.842  1.1652 -0.7892 -0.3727
  142MOL   H13234254   5.881   0.057   5.053 -0.6734 -3.6383 -1.2777
  142MOL   H13334255   5.869   0.082   4.883  2.2847 -1.6727 -1.6422
  142MOL   O13434256   5.948   0.290   5.092 -0.2868 -0.0389  0.7846
  142MOL   C13534257   5.959   0.432   5.118 -0.1480 -0.3349 -1.2854
  142MOL   C13634258   5.817   0.496   5.087  0.6716  0.4011  0.1345
  142MOL   C13734259   6.013   0.457   5.263  0.7065  0.5216 -0.0540
  142MOL   C13834260   6.072   0.596   5.284 -0.2708 -0.0166 -0.7048
  142MOL   O13934261   6.174   0.635   5.230  0.0777 -0.3040 -0.2696
  142MOL   H14034262   6.028   0.475   5.045 -0.2240  2.2614  0.0966
  142MOL   H14134263   5.740   0.431   5.127  0.3936 -0.4165 -1.6833
  142MOL   H14234264   5.797   0.482   4.981  2.7209  2.0993 -0.5192
  142MOL   H14334265   5.807   0.600   5.120  2.4589  0.1295  1.6343
  142MOL   H14434266   6.078   0.375   5.292  0.8377  0.5217 -0.3440
  142MOL   H14534267   5.922   0.450   5.323 -0.5217 -1.9686 -2.1088
  142MOL   O14634268   5.998   0.671   5.362  0.2775 -0.1222 -0.4845
  142MOL   C14734269   6.014   0.817   5.361  0.5767  0.3591 -0.0453
  142MOL   C14834270   5.911   0.892   5.278  0.4943 -0.2417  0.2908
  142MOL   C14934271   6.004   0.852   5.513 -0.3874 -0.1315 -0.5208
  142MOL   C15034272   6.138   0.846   5.586 -0.1305  0.0834 -0.5552
  142MOL   O15134273   6.160   0.927   5.676 -0.1393 -0.3820 -0.3399
  142MOL   H15234274   6.115   0.842   5.328  0.0028 -1.2181 -3.1426
  142MOL   H15334275   5.814   0.846   5.301  0.9413 -0.6961  1.2786
  142MOL   H15434276   5.945   0.881   5.175 -1.1652  1.4539 -0.4840
  142MOL   H15534277   5.908   0.998   5.303 -0.1621 -0.0031 -0.7536
  142MOL   H15634278   5.925   0.788   5.554 -1.3677  0.5637 -1.2956
  142MOL   H15734279   5.956   0.947   5.536  0.1604 -0.1494  0.7264
  142MOL   O15834280   6.218   0.747   5.540  0.2764  0.5888 -1.5661
  142MOL   C15934281   6.354   0.743   5.571 -0.0734 -0.2448 -0.6694
  142MOL   C16034282   6.365   0.646   5.685 -0.6002  0.2413 -0.0271
  142MOL   C16134283   6.411   0.709   5.434  0.0877 -0.2098 -0.4430
  142MOL   C16234284   6.565   0.705   5.422 -0.2553 -0.0918 -0.4518
  142MOL   O16334285   6.631   0.802   5.398 -0.3072 -0.4916  0.3259
  142MOL   H16434286   6.390   0.838   5.611  0.5168 -1.5504  1.9936
  142MOL   H16534287   6.293   0.565   5.680 -0.1487 -0.1750  0.1947
  142MOL   H16634288   6.323   0.693   5.774 -0.5374  1.6596 -0.7389
  142MOL   H16734289   6.460   0.613   5.726  0.3727  0.7905 -1.7951
  142MOL   H16834290   6.374   0.792   5.375  0.7574  1.7481  1.8209
  142MOL   H16934291   6.368   0.623   5.382  0.9832 -0.0230 -1.4981
  142MOL   O17034292   6.609   0.590   5.475 -0.5811 -0.2047  0.2108
  142MOL   C17134293   6.745   0.557   5.506 -0.3061  0.5281  0.3320
  142MOL   C17234294   6.746   0.441   5.601  0.3274 -0.3404 -0.8939
  142MOL   C17334295   6.819   0.537   5.377  0.8487 -0.1628  0.0597
  142MOL   C17434296   6.969   0.507   5.371  0.5582  1.2780  0.0450
  142MOL   O17534297   7.014   0.463   5.271  0.1653 -0.2805 -0.3879
  142MOL   H17634298   6.800   0.639   5.553  0.8604  0.4777 -0.8947
  142MOL   H17734299   6.848   0.431   5.640  0.1051 -0.0623 -0.2303
  142MOL   H17834300   6.708   0.354   5.548 -0.0029 -1.3333  0.9415
  142MOL   H17934301   6.676   0.460   5.682  0.7623  1.1236 -0.8391
  142MOL   H18034302   6.808   0.618   5.306 -0.9002 -1.2992 -0.9937
  142MOL   H18134303   6.757   0.453   5.346 -2.1942  1.1625  2.3060
  142MOL   O18234304   7.037   0.553   5.492 -0.5522  0.2946  0.0112
  142MOL   C18334305   7.173   0.532   5.522 -0.2613 -0.0855  0.1417
  142MOL   C18434306   7.229   0.660   5.582 -0.3930 -0.3675 -0.4226
  142MOL   C18534307   7.190   0.413   5.618  0.2957  0.8277  0.5256
  142MOL   C18634308   7.153   0.282   5.535  0.1826 -0.4717  0.2909
  142MOL   O18734309   7.060   0.211   5.565  0.3817  0.3515 -0.2660
  142MOL   H18834310   7.220   0.515   5.425  0.6120 -1.7302  0.8304
  142MOL   H18934311   7.220   0.731   5.500  0.5356 -0.5319 -0.6743
  142MOL   H19034312   7.336   0.658   5.607 -1.0387 -2.5446  2.5719
  142MOL   H19134313   7.182   0.696   5.674 -0.6963  0.0161 -0.7280
  142MOL   H19234314   7.125   0.434   5.703 -0.5412  0.3926 -0.0033
  142MOL   H19334315   7.292   0.410   5.656  0.7734 -4.0258 -0.7110
  142MOL   O19434316   7.247   0.254   5.439  0.2561  0.0325 -0.4926
  142MOL   C19534317   7.234   0.133   5.360  0.0819  0.5991 -0.6245
  142MOL   C19634318   7.159   0.162   5.229 -0.5462  0.3479  0.5265
  142MOL   C19734319   7.378   0.068   5.323 -0.1151  0.1623 -0.4296
  142MOL   C19834320   7.460   0.019   5.444  0.3235 -0.6672  0.2492
  142MOL   O19934321   7.399   7.953   5.541 -0.0146  0.2053  0.2465
  142MOL   H20034322   7.175   0.063   5.420  0.6176  0.4757 -0.2375
  142MOL   H20134323   7.066   0.211   5.260 -0.6252  1.4591 -1.4184
  142MOL   H20234324   7.149   0.069   5.175  0.2710  0.7604 -0.3415
  142MOL   H20334325   7.219   0.225   5.164  2.3952 -0.9950  1.8363
  142MOL   H20434326   7.435   0.133   5.257 -0.2774  0.4762 -0.2620
  142MOL   H20534327   7.362   7.958   5.263  3.3649 -1.0169  0.2713
  142MOL   O20634328   7.590   0.032   5.436 -0.2417  0.5632 -0.3983
  142MOL   C20734329   7.688   7.978   5.538  0.0368 -0.0520 -0.1672
  142MOL   C20834330   7.811   7.909   5.470  0.1114 -0.0135  0.2681
  142MOL   C20934331   7.730   0.129   5.606 -0.1244  0.4838 -0.2477
  142MOL   C21034332   7.767   0.245   5.511 -0.3754  0.0465 -0.3681
  142MOL   O21134333   7.879   0.250   5.466  0.0709 -0.4753  0.3425
  142MOL   H21234334   7.656   7.914   5.620  2.3607 -0.0700  0.7614
  142MOL   H21334335   7.854   7.972   5.392  0.6723 -1.2560 -0.4469
  142MOL   H21434336   7.776   7.817   5.424 -2.5065  0.0844  1.9628
  142MOL   H21534337   7.885   7.877   5.543  0.3565  1.5560  0.7264
  142MOL   H21634338   7.810   0.110   5.677 -0.5906 -0.5356  0.0177
  142MOL   H21734339   7.644   0.163   5.663 -1.0609 -1.3089 -0.5550
  142MOL   O21834340   7.660   0.328   5.482  0.2355  0.2010  0.1500
  142MOL   C21934341   7.666   0.455   5.416  0.1397  0.0610 -1.0816
  142MOL   C22034342   7.534   0.474   5.341 -0.2274  0.9266  0.1729
  142MOL   C22134343   7.687   0.567   5.522 -0.3034 -0.0974  0.6051
  142MOL   C22234344   7.711   0.710   5.469 -0.5272 -0.1144 -0.2981
  142MOL   O22334345   7.622   0.797   5.458  0.0045  0.5115  0.3933
  142MOL   H22434346   7.753   0.459   5.350  0.3805 -0.4041 -0.7930
  142MOL   H22534347   7.520   0.405   5.258  0.4639 -1.9672  2.3742
  142MOL   H22634348   7.523   0.576   5.305 -0.3710  0.5956 -0.7510
  142MOL   H22734349   7.442   0.449   5.393 -1.0033 -0.0060 -1.5827
  142MOL   H22834350   7.771   0.526   5.580 -0.8974 -0.0183  1.5376
  142MOL   H22934351   7.602   0.577   5.589 -0.8989  2.1608 -0.4574
  142MOL   O23034352   7.837   0.732   5.430 -0.5121 -0.7520  0.6093
  142MOL   C23134353   7.886   0.860   5.385 -0.0853 -0.1167  0.0548
  142MOL   C23234354   7.957   0.951   5.493 -0.7393  0.2698 -0.1962
  142MOL   C23334355   7.979   0.836   5.266 -0.3673  0.1930  0.5124
  142MOL   C23434356   0.034   0.964   5.178  0.0124 -0.0587 -0.0520
  142MOL   O23534357   7.915   1.027   5.142  0.0588 -0.2182  0.1959
  142MOL   H23634358   7.808   0.926   5.346 -0.7942  0.1800  1.9210
  142MOL   H23734359   7.975   1.051   5.453  2.1363  0.3113  1.1058
  142MOL   H23834360   0.069   0.901   5.524 -0.2703  0.8236 -0.6691
  142MOL   H23934361   7.897   0.956   5.584  0.5276  0.8913  0.6213
  142MOL   H24034362   7.938   0.757   5.203  1.5615 -0.0158 -0.5096
  142MOL   H24134363   0.087   0.790   5.310 -1.1818 -1.5714  0.3400
  142MOL   H24234364   0.138   0.985   5.155 -0.0650  1.2913  0.7688
  143MOL     O134365   0.543   2.733   6.691 -0.3068 -0.7340  0.1630
  143MOL     C234366   0.614   2.788   6.807  0.9132 -0.1470 -0.0434
  143MOL     C334367   0.607   2.938   6.820  0.7857  0.4197 -0.2749
  143MOL     C434368   0.576   2.710   6.932  1.0865 -0.0851 -0.9225
  143MOL     C534369   0.667   2.735   7.053  0.4178 -0.4459 -0.2823
  143MOL     O634370   0.676   2.842   7.106  0.3560 -0.1023  0.7197
  143MOL     H734371   0.721   2.769   6.797  1.1790 -1.2696  3.9197
  143MOL     H834372   0.600   2.986   6.722 -1.1409  3.0238  1.0966
  143MOL     H934373   0.702   2.975   6.858  1.7804 -0.3528 -1.9330
  143MOL    H1034374   0.525   2.974   6.882  0.0865 -0.1927 -0.8303
  143MOL    H1134375   0.561   2.607   6.900 -1.4395 -0.0148 -0.1004
  143MOL    H1234376   0.475   2.730   6.967  2.1622  1.3301  1.5475
  143MOL    H1334377   0.451   2.749   6.707 -0.2672 -2.6606  2.4904
  143MOL    O1434378   0.732   2.624   7.082 -0.4660 -0.4816  0.4730
  143MOL    C1534379   0.818   2.623   7.199 -0.5564  0.4139  0.1526
  143MOL    C1634380   0.758   2.534   7.309  0.7285  0.1865 -0.4124
  143MOL    C1734381   0.958   2.547   7.162 -0.3919 -0.7260  0.6192
  143MOL    C1834382   0.953   2.400   7.123  0.2041 -0.3979 -0.2760
  143MOL    O1934383   0.945   2.364   7.002  0.0101 -0.2414  0.4584
  143MOL    H2034384   0.845   2.723   7.234 -0.9218  1.3844 -2.2437
  143MOL    H2134385   0.835   2.517   7.385  1.0527  0.1641 -0.7415
  143MOL    H2234386   0.718   2.443   7.265 -3.9294  0.6283  2.6809
  143MOL    H2334387   0.669   2.573   7.358  0.0634  0.9841 -2.1923
  143MOL    H2434388   1.030   2.565   7.242  1.1298 -0.5002 -0.7751
  143MOL    H2534389   1.011   2.590   7.076 -0.8011  0.3638  0.8996
  143MOL    O2634390   0.947   2.308   7.220 -0.0037 -0.2393 -0.6328
  143MOL    C2734391   0.928   2.174   7.198  0.8146 -0.2163 -0.5190
  143MOL    C2834392   0.968   2.116   7.339  0.7592 -0.1875 -0.2187
  143MOL    C2934393   0.786   2.145   7.156 -0.3803  0.4617  0.6437
  143MOL    C3034394   0.781   1.999   7.112 -0.1563 -0.3833  0.1384
  143MOL    O3134395   0.742   1.909   7.184 -0.1583  0.2465 -0.4001
  143MOL    H3234396   0.998   2.140   7.122 -0.7315 -2.1331 -1.1346
  143MOL    H3334397   0.999   2.014   7.318  0.3732 -0.1029 -1.2019
  143MOL    H3434398   0.896   2.121   7.421 -1.7240  1.3097 -2.4108
  143MOL    H3534399   1.064   2.157   7.369  0.4444  0.8848 -0.6535
  143MOL    H3634400   0.756   2.201   7.067  1.1434 -1.4367 -1.1346
  143MOL    H3734401   0.708   2.161   7.230 -0.6526  2.5905 -0.0722
  143MOL    O3834402   0.815   1.982   6.986 -0.2556  0.3125 -0.0925
  143MOL    C3934403   0.823   1.852   6.925 -0.6860  0.7534 -0.9213
  143MOL    C4034404   0.755   1.858   6.785  0.0476  0.8190  0.0965
  143MOL    C4134405   0.971   1.797   6.906  0.5125 -0.2897 -0.4134
  143MOL    C4234406   1.062   1.792   7.028  0.1844  0.1668  0.2563
  143MOL    O4334407   1.127   1.891   7.063 -0.1564 -0.6155  0.1021
  143MOL    H4434408   0.762   1.779   6.978  1.0945  0.4706  0.7732
  143MOL    H4534409   0.803   1.932   6.722 -0.3739  1.4608  0.5172
  143MOL    H4634410   0.652   1.885   6.807  0.2439 -0.0792  2.2328
  143MOL    H4734411   0.758   1.756   6.748 -0.5670  1.2106 -1.0454
  143MOL    H4834412   1.012   1.867   6.834 -0.5836  0.3452 -0.4334
  143MOL    H4934413   0.979   1.697   6.863  0.1743 -1.0496  1.2472
  143MOL    O5034414   1.069   1.666   7.086 -0.6044 -0.0599  0.7629
  143MOL    C5134415   1.162   1.639   7.187  0.0019  0.4000 -0.1009
  143MOL    C5234416   1.093   1.559   7.304  0.8402  0.4293 -0.6312
  143MOL    C5334417   1.291   1.559   7.137 -0.0206  0.1959  0.2159
  143MOL    C5434418   1.259   1.426   7.069 -0.3736 -0.3777 -0.4172
  143MOL    O5534419   1.247   1.321   7.133  0.0810 -0.5120  0.1668
  143MOL    H5634420   1.199   1.735   7.225  0.5042 -0.5061  1.7753
  143MOL    H5734421   1.024   1.615   7.367 -1.1346 -1.3755 -1.1255
  143MOL    H5834422   1.167   1.514   7.369 -0.2598 -1.1434 -0.4304
  143MOL    H5934423   1.036   1.474   7.265  1.3090  0.0547 -0.5094
  143MOL    H6034424   1.364   1.542   7.217 -0.4295  2.6117  1.1351
  143MOL    H6134425   1.351   1.625   7.073 -1.1519  1.2460  0.2317
  143MOL    O6234426   1.226   1.436   6.939 -0.0262  0.1553  0.1540
  143MOL    C6334427   1.207   1.318   6.862 -0.0316  0.8399  1.3230
  143MOL    C6434428   1.121   1.353   6.740  0.6940  0.0930  0.1210
  143MOL    C6534429   1.342   1.245   6.830  0.2400  0.1277 -0.0325
  143MOL    C6634430   1.316   1.097   6.791 -0.8734  0.2584  0.3923
  143MOL    O6734431   1.331   1.056   6.679 -0.3407 -0.2361 -0.1719
  143MOL    H6834432   1.148   1.256   6.930 -0.2668  1.0801  1.3447
  143MOL    H6934433   1.196   1.394   6.672  1.4278  0.2845  1.0334
  143MOL    H7034434   1.049   1.432   6.761 -0.9164 -1.5149  0.7869
  143MOL    H7134435   1.068   1.276   6.684  3.1903 -2.8809  1.7467
  143MOL    H7234436   1.405   1.246   6.919 -1.7086 -1.5861  1.4315
  143MOL    H7334437   1.409   1.298   6.763 -1.7061 -0.6488 -2.6454
  143MOL    O7434438   1.278   1.019   6.898 -0.2150 -0.0871  0.2294
  143MOL    C7534439   1.272   0.882   6.881 -0.6339  0.2029 -0.3269
  143MOL    C7634440   1.378   0.825   6.980 -0.1166 -0.1624  0.5862
  143MOL    C7734441   1.129   0.825   6.898  0.1006 -0.3381 -0.6208
  143MOL    C7834442   1.077   0.838   7.044 -0.4270 -0.2950  0.0874
  143MOL    O7934443   1.043   0.740   7.111  0.3545  0.5698 -0.0624
  143MOL    H8034444   1.289   0.854   6.777  0.1550  0.5936 -0.3067
  143MOL    H8134445   1.364   0.718   6.997 -2.1265  0.2562  1.7108
  143MOL    H8234446   1.372   0.877   7.076  1.5978  1.3870 -0.1274
  143MOL    H8334447   1.477   0.833   6.935 -1.5682  1.1265 -2.5098
  143MOL    H8434448   1.115   0.717   6.884 -0.7066 -0.6479  2.2517
  143MOL    H8534449   1.055   0.867   6.832 -0.6335  1.5624  1.3655
  143MOL    O8634450   1.072   0.968   7.087 -0.2894 -0.2714 -0.5256
  143MOL    C8734451   1.043   0.999   7.226 -0.2654  0.4325  0.7279
  143MOL    C8834452   1.174   1.004   7.313  0.4631 -0.5738  1.0548
  143MOL    C8934453   0.963   1.132   7.230 -0.1019  0.1320 -0.1101
  143MOL    C9034454   0.887   1.154   7.358  0.0970  0.2010 -0.9165
  143MOL    O9134455   0.794   1.083   7.393 -0.0889  0.0099  0.6950
  143MOL    H9234456   0.979   0.925   7.272 -0.6800  0.9329  0.9643
  143MOL    H9334457   1.182   0.900   7.346  0.5203 -0.9784 -0.2076
  143MOL    H9434458   1.154   1.071   7.396  1.6830  0.3661  0.6136
  143MOL    H9534459   1.267   1.026   7.260 -0.7019  1.9624  0.0249
  143MOL    H9634460   0.882   1.114   7.159 -0.8342  1.4825  0.3505
  143MOL    H9734461   1.025   1.220   7.210 -2.4936  1.9424  0.1048
  143MOL    O9834462   0.930   1.264   7.424  0.2185  0.2702 -0.2697
  143MOL    C9934463   0.856   1.313   7.535 -0.3492  0.5223 -1.1141
  143MOL   C10034464   0.951   1.398   7.627  0.5788  0.3089  0.4914
  143MOL   C10134465   0.728   1.384   7.497 -0.0571  0.0943 -0.3234
  143MOL   C10234466   0.630   1.379   7.609  0.4079 -0.3776  0.6054
  143MOL   O10334467   0.530   1.308   7.596  0.0852 -0.9353  0.3565
  143MOL   H10434468   0.837   1.222   7.593  1.4153  0.3487 -0.7627
  143MOL   H10534469   0.992   1.483   7.571  0.6620 -0.6287 -0.9008
  143MOL   H10634470   1.043   1.346   7.653  0.2644  0.1591  1.3073
  143MOL   H10734471   0.898   1.426   7.718  1.0486  0.2016  0.8007
  143MOL   H10834472   0.662   1.350   7.417  1.9775 -0.8516 -1.6557
  143MOL   H10934473   0.746   1.485   7.462  0.2996  0.2391  0.2898
  143MOL   O11034474   0.648   1.470   7.712  0.0784  0.3112  0.4623
  143MOL   C11134475   0.546   1.486   7.812 -0.5275  0.4416  0.2357
  143MOL   C11234476   0.548   1.362   7.913 -0.3230  0.0931  0.3909
  143MOL   C11334477   0.545   1.617   7.883  0.6284  0.1416  0.1680
  143MOL   C11434478   0.637   1.636   0.014 -0.4981 -0.6965 -0.2055
  143MOL   O11534479   0.593   1.652   0.130 -0.2204 -0.4454 -0.1280
  143MOL   H11634480   0.454   1.473   7.755 -0.9176 -1.4412  1.2699
  143MOL   H11734481   0.649   1.363   7.954  0.6114 -1.0593 -1.7825
  143MOL   H11834482   0.536   1.268   7.859  0.7605 -0.6089  1.3621
  143MOL   H11934483   0.473   1.373   0.011 -2.6711 -0.1434 -1.7741
  143MOL   H12034484   0.442   1.635   7.912  1.1814  1.4473  1.3889
  143MOL   H12134485   0.566   1.697   7.812  2.4022 -0.5441 -0.1095
  143MOL   O12234486   0.770   1.639   7.954 -0.0991 -0.0637 -0.1126
  143MOL   C12334487   0.868   1.646   0.073  0.1931 -0.7177 -0.0300
  143MOL   C12434488   0.913   1.504   0.100 -0.3020  0.6212  0.4382
  143MOL   C12534489   0.985   1.746   0.034 -0.4344 -0.8572 -0.0804
  143MOL   C12634490   1.099   1.748   0.142  0.2297 -0.2986  0.7437
  143MOL   O12734491   1.218   1.747   0.106  0.5686  0.6989 -0.5329
  143MOL   H12834492   0.824   1.687   0.164 -1.8439  0.7757 -1.6481
  143MOL   H12934493   0.828   1.437   0.098  2.1666 -2.6163  0.7763
  143MOL   H13034494   0.965   1.492   0.195 -0.4286 -1.6415  0.2431
  143MOL   H13134495   0.979   1.480   0.016  1.7637 -1.2330  2.5103
  143MOL   H13234496   0.937   1.843   0.046 -1.2622 -1.3346  0.5264
  143MOL   H13334497   1.030   1.739   7.915 -1.0631 -1.6115 -0.3139
  143MOL   O13434498   1.050   1.750   0.274 -0.2527  0.2557  0.5141
  143MOL   C13534499   1.131   1.734   0.396 -0.1203 -0.3294  0.3063
  143MOL   C13634500   1.202   1.602   0.387  0.2691  0.1978 -0.9623
  143MOL   C13734501   1.224   1.860   0.417  0.6943  0.2282  0.1094
  143MOL   C13834502   1.165   1.976   0.492 -0.2610 -0.4596  0.0393
  143MOL   O13934503   1.211   2.010   0.600  0.0691 -0.4220 -0.4836
  143MOL   H14034504   1.067   1.715   0.482  0.5457 -0.7389  0.7158
  143MOL   H14134505   1.273   1.573   0.464 -1.7581 -3.6393 -0.3995
  143MOL   H14234506   1.260   1.596   0.295  1.8692  0.6111  0.0071
  143MOL   H14334507   1.133   1.520   0.364  0.6822 -0.7754  1.1665
  143MOL   H14434508   1.271   1.897   0.325 -0.8230 -0.6012 -1.0307
  143MOL   H14534509   1.316   1.821   0.461  0.6993 -0.7917 -0.7618
  143MOL   O14634510   1.054   2.024   0.430 -0.2450  0.0834  0.0177
  143MOL   C14734511   0.963   2.117   0.499  0.1399  0.9791 -0.8008
  143MOL   C14834512   0.916   2.222   0.399 -0.4644  0.3800  0.0231
  143MOL   C14934513   0.847   2.035   0.562 -0.9272 -0.4941  0.0934
  143MOL   C15034514   0.756   1.959   0.471  0.0796 -0.7436 -0.4841
  143MOL   O15134515   0.772   1.960   0.351  0.3545 -0.3113  0.2705
  143MOL   H15234516   1.008   2.176   0.579  0.8075 -2.1760  1.2470
  143MOL   H15334517   0.936   2.188   0.297  0.9150  0.2380  0.3291
  143MOL   H15434518   0.977   2.312   0.395 -0.2652  0.2219 -0.5695
  143MOL   H15534519   0.808   2.238   0.406 -0.4737 -0.0025  0.9389
  143MOL   H15634520   0.791   2.103   0.626  0.9261 -1.6265  3.0332
  143MOL   H15734521   0.893   1.962   0.628  0.3884  0.6594  0.4689
  143MOL   O15834522   0.656   1.895   0.524 -0.2573  0.0861 -0.6333
  143MOL   C15934523   0.579   1.801   0.457  0.9508  0.3184 -0.3019
  143MOL   C16034524   0.607   1.677   0.533 -0.7460  0.6712  0.3076
  143MOL   C16134525   0.439   1.859   0.458  0.4103 -0.1187 -0.0743
  143MOL   C16234526   0.337   1.760   0.406 -0.2992  0.6069  0.4228
  143MOL   O16334527   0.348   1.727   0.286  0.2275 -0.0297 -0.7278
  143MOL   H16434528   0.607   1.776   0.355  0.6191  1.6203 -0.7244
  143MOL   H16534529   0.567   1.597   0.471 -0.3157  1.1846 -0.6423
  143MOL   H16634530   0.562   1.669   0.633 -0.6244  0.9242  0.3824
  143MOL   H16734531   0.713   1.655   0.544 -0.9380 -0.2047  0.4442
  143MOL   H16834532   0.434   1.945   0.392  2.2378 -1.1239 -1.5622
  143MOL   H16934533   0.422   1.877   0.565  0.0087  0.6670 -0.2719
  143MOL   O17034534   0.264   1.697   0.488  0.6370 -0.1337 -0.0019
  143MOL   C17134535   0.143   1.626   0.446 -0.7369 -0.5307  0.6450
  143MOL   C17234536   0.172   1.472   0.437  0.5223  0.2286  0.3278
  143MOL   C17334537   0.024   1.656   0.539 -0.0471 -0.1205 -0.5764
  143MOL   C17434538   7.937   1.791   0.522 -0.2553  0.6712  0.1833
  143MOL   O17534539   7.833   1.807   0.458 -0.1323  0.0603  0.1936
  143MOL   H17634540   0.112   1.655   0.346  2.2738  0.4122 -0.0616
  143MOL   H17734541   0.083   1.415   0.409  0.1527 -0.1408  2.1835
  143MOL   H17834542   0.196   1.424   0.533 -2.0901 -0.1333  0.8523
  143MOL   H17934543   0.245   1.449   0.359 -2.1099  0.9135 -2.3970
  143MOL   H18034544   0.066   1.634   0.637  0.5599 -1.7983 -1.1994
  143MOL   H18134545   7.934   1.575   0.515  0.0325  0.4053 -2.6899
  143MOL   O18234546   0.029   1.889   0.586 -0.4410  0.0781 -0.5187
  143MOL   C18334547   7.980   2.029   0.556  0.2031  0.0918 -0.0207
  143MOL   C18434548   7.890   2.091   0.668 -0.3105  0.0462 -0.3972
  143MOL   C18534549   0.126   2.118   0.543 -0.0413  0.3838 -0.1280
  143MOL   C18634550   0.190   2.108   0.400 -0.5324 -0.0491  0.0727
  143MOL   O18734551   0.147   2.036   0.311  0.3117  0.1345  0.5222
  143MOL   H18834552   7.928   2.021   0.460  2.5998 -0.7454 -1.2794
  143MOL   H18934553   7.853   2.188   0.637 -2.5827 -0.4347  0.7074
  143MOL   H19034554   7.952   2.096   0.757  1.5034 -3.0616 -1.4076
  143MOL   H19134555   7.795   2.045   0.697  0.4404 -1.3291 -0.0717
  143MOL   H19234556   0.194   2.103   0.626 -0.7106 -2.9339 -0.1042
  143MOL   H19334557   0.106   2.224   0.559 -3.4249  0.0984 -1.9112
  143MOL   O19434558   0.306   2.185   0.387 -0.1262  0.4196 -0.0622
  143MOL   C19534559   0.374   2.190   0.263  0.6049 -0.2599  0.3162
  143MOL   C19634560   0.323   2.305   0.179 -0.1161  0.6770  0.2393
  143MOL   C19734561   0.522   2.212   0.297 -0.1778 -0.1325  0.3250
  143MOL   C19834562   0.609   2.241   0.176  0.5157 -0.0694 -0.1323
  143MOL   O19934563   0.666   2.345   0.158 -0.3903  0.0923  0.2266
  143MOL   H20034564   0.354   2.103   0.201 -1.2930  0.2821  0.1360
  143MOL   H20134565   0.367   2.289   0.081 -0.2883 -0.0373  0.2762
  143MOL   H20234566   0.349   2.399   0.228  2.7417 -0.7116  1.5132
  143MOL   H20334567   0.215   2.293   0.184 -0.1345  0.3187 -0.9436
  143MOL   H20434568   0.572   2.125   0.339  2.3044  0.0684 -2.0229
  143MOL   H20534569   0.549   2.297   0.360 -1.2327  1.8486 -1.8260
  143MOL   O20634570   0.593   2.135   0.085  0.3159 -0.3415 -0.0892
  143MOL   C20734571   0.665   2.126   7.940  0.4425 -0.0392 -0.2701
  143MOL   C20834572   0.780   2.019   7.951  0.9399 -0.1124  0.4406
  143MOL   C20934573   0.567   2.087   7.834 -0.0592 -0.6348  0.0035
  143MOL   C21034574   0.635   2.058   7.706  1.0964 -0.4256 -0.7329
  143MOL   O21134575   0.654   2.152   7.631 -0.5514 -0.5232  0.5091
  143MOL   H21234576   0.711   2.218   7.903  1.2263 -0.0524  0.6480
  143MOL   H21334577   0.845   2.020   7.863 -1.7051  0.4192 -1.5582
  143MOL   H21434578   0.721   1.928   7.955 -1.0523  1.0751 -0.9850
  143MOL   H21534579   0.835   2.022   0.066 -0.8328 -3.4831  1.6589
  143MOL   H21634580   0.495   2.168   7.824  1.9314  1.3893  1.2510
  143MOL   H21734581   0.504   2.004   7.866 -1.9575  1.0558  0.7663
  143MOL   O21834582   0.654   1.926   7.680 -0.1169  0.1540  0.4996
  143MOL   C21934583   0.715   1.875   7.556  0.6673 -0.2916 -0.1614
  143MOL   C22034584   0.857   1.848   7.598  0.7439 -0.5450  0.5247
  143MOL   C22134585   0.648   1.746   7.506  0.2484  0.3309 -0.2294
  143MOL   C22234586   0.512   1.771   7.451 -0.2979 -0.3923 -0.2564
  143MOL   O22334587   0.425   1.697   7.481  0.5931  1.0972 -0.3866
  143MOL   H22434588   0.707   1.956   7.483 -0.2182  1.1059  1.4568
  143MOL   H22534589   0.855   1.765   7.669  1.9925 -1.0041  0.0453
  143MOL   H22634590   0.901   1.939   7.639 -1.1946  1.0694 -0.8633
  143MOL   H22734591   0.924   1.816   7.518  1.1872  1.0277  0.2588
  143MOL   H22834592   0.655   1.665   7.578  1.0344  1.8692  1.4445
  143MOL   H22934593   0.700   1.709   7.418  0.6920  0.2802  0.0542
  143MOL   O23034594   0.510   1.876   7.363 -0.9848 -0.1923 -0.3218
  143MOL   C23134595   0.388   1.934   7.322  0.1938  0.8718 -0.6461
  143MOL   C23234596   0.388   2.078   7.373  0.8844  0.1841  0.6163
  143MOL   C23334597   0.379   1.917   7.170  0.3548 -0.0728  0.3210
  143MOL   C23434598   0.373   1.775   7.126 -0.2080  0.5715  0.3430
  143MOL   O23534599   0.351   1.740   7.013  0.4058 -0.6404  0.7614
  143MOL   H23634600   0.316   1.875   7.379  1.2423  0.0129 -0.1921
  143MOL   H23734601   0.460   2.136   7.315  2.3240 -0.9005  1.2906
  143MOL   H23834602   0.445   2.091   7.465 -0.2739 -0.1902  1.3958
  143MOL   H23934603   0.287   2.119   7.371  0.1424 -1.6195  0.6748
  143MOL   H24034604   0.459   1.970   7.118  0.2106 -0.2449 -0.0786
  143MOL   H24134605   0.290   1.970   7.138 -1.6945 -0.7188  4.6121
  143MOL   H24234606   0.402   1.697   7.197 -2.0790 -0.6588 -0.1989
  144MOL     O134607   3.578   6.837   6.062  0.0608  0.1992 -0.5018
  144MOL     C234608   3.455   6.873   6.015  0.1805 -0.3658 -0.3386
  144MOL     C334609   3.461   7.017   5.969 -0.0262  0.0125 -0.7937
  144MOL     C434610   3.409   6.782   5.897  0.0266  0.0995 -0.2262
  144MOL     C534611   3.252   6.775   5.872  0.0091 -0.2840  0.2117
  144MOL     O634612   3.193   6.669   5.891 -0.0410 -0.2224 -0.3458
  144MOL     H734613   3.390   6.865   6.102  1.1919 -1.0120  0.3590
  144MOL     H834614   3.519   7.079   6.037  1.5123 -0.7162 -1.4066
  144MOL     H934615   3.363   7.061   5.946 -0.9309 -2.4553 -1.7667
  144MOL    H1034616   3.520   7.012   5.877 -0.6657  0.2767 -1.2239
  144MOL    H1134617   3.442   6.681   5.920  0.3490  0.3048  0.2282
  144MOL    H1234618   3.464   6.812   5.807 -1.4807  2.0198 -0.5449
  144MOL    H1334619   3.562   6.848   6.155 -2.2827 -0.7474 -0.7595
  144MOL    O1434620   3.197   6.893   5.818  0.2253 -0.2160  0.0589
  144MOL    C1534621   3.058   6.924   5.817  0.0648  0.8658  0.1631
  144MOL    C1634622   3.033   7.024   5.932 -0.1690 -0.4520 -0.6630
  144MOL    C1734623   3.029   6.966   5.673  0.4899 -0.0259 -0.5158
  144MOL    C1834624   2.886   7.017   5.656  0.0076  0.0343  0.1851
  144MOL    O1934625   2.860   7.132   5.642 -0.0304 -0.0129  0.2029
  144MOL    H2034626   3.007   6.833   5.847  0.6602  0.5541  0.2450
  144MOL    H2134627   3.058   6.975   6.026  3.1076 -1.1464 -1.8011
  144MOL    H2234628   2.927   7.047   5.936  0.1054  0.8880 -0.8469
  144MOL    H2334629   3.084   7.120   5.927 -1.5415  0.2205 -2.0916
  144MOL    H2434630   3.039   6.868   5.626 -0.2343 -0.3034 -0.0862
  144MOL    H2534631   3.087   7.048   5.630 -0.4496  2.3704  2.6418
  144MOL    O2634632   2.797   6.916   5.674 -0.4769 -0.1026  0.1582
  144MOL    C2734633   2.661   6.925   5.640 -0.4573 -0.0767 -0.0047
  144MOL    C2834634   2.626   6.828   5.536 -0.2917  0.3572  0.3857
  144MOL    C2934635   2.574   6.906   5.765 -0.4382 -0.2769 -0.3477
  144MOL    C3034636   2.598   6.778   5.848  0.0889  0.0448 -0.0360
  144MOL    O3134637   2.575   6.668   5.800  0.2394  0.6393 -0.0946
  144MOL    H3234638   2.644   7.026   5.603  1.5038  0.5117  0.6863
  144MOL    H3334639   2.645   6.723   5.562 -2.2814 -0.1598 -0.1331
  144MOL    H3434640   2.683   6.845   5.445  0.5783 -2.0650  0.4378
  144MOL    H3534641   2.520   6.838   5.515  0.2665 -0.8446 -3.4741
  144MOL    H3634642   2.466   6.901   5.748 -0.5162 -0.3085  0.1669
  144MOL    H3734643   2.601   6.991   5.827 -0.5234 -0.9033  0.5550
  144MOL    O3834644   2.635   6.806   5.970  0.1031  0.4876  0.6171
  144MOL    C3934645   2.683   6.705   6.061 -0.9536 -0.9479 -0.3955
  144MOL    C4034646   2.838   6.721   6.071  0.9020 -0.1984 -0.1764
  144MOL    C4134647   2.601   6.711   6.202  0.0837 -0.0636  0.4078
  144MOL    C4234648   2.608   6.587   6.290  0.8613  0.2499  0.1877
  144MOL    O4334649   2.523   6.564   6.375  0.3812 -0.2465 -0.0478
  144MOL    H4434650   2.684   6.608   6.011 -0.3563 -0.7388 -0.7978
  144MOL    H4534651   2.878   6.705   5.971  1.0897  0.4862 -0.2154
  144MOL    H4634652   2.890   6.655   6.140  2.0689  1.8084  0.9184
  144MOL    H4734653   2.882   6.817   6.096  2.6695 -1.4167  1.5819
  144MOL    H4834654   2.498   6.744   6.188  0.8779  1.6267 -1.7615
  144MOL    H4934655   2.644   6.797   6.254  2.0293 -0.3887 -0.6109
  144MOL    O5034656   2.709   6.504   6.265  0.4422 -0.5115 -0.5630
  144MOL    C5134657   2.736   6.387   6.350  0.1712  1.0989  0.1848
  144MOL    C5234658   2.768   6.267   6.261  0.6402 -0.0929  0.0477
  144MOL    C5334659   2.839   6.409   6.462 -0.0284 -0.0636  0.7427
  144MOL    C5434660   2.993   6.420   6.439  0.5761  0.3491 -0.0091
  144MOL    O5534661   3.060   6.384   6.538 -0.0984  0.7545  0.4402
  144MOL    H5634662   2.647   6.342   6.394  1.3532 -0.9987  0.4808
  144MOL    H5734663   2.809   6.183   6.317  1.4143 -0.1617 -0.6221
  144MOL    H5834664   2.836   6.290   6.179 -0.8328  0.7316 -0.9717
  144MOL    H5934665   2.687   6.230   6.197  2.2254 -1.5536 -1.1394
  144MOL    H6034666   2.828   6.321   6.525 -1.4060 -1.0988 -0.9015
  144MOL    H6134667   2.794   6.488   6.521  2.2380  0.3017  2.0452
  144MOL    O6234668   3.038   6.473   6.319  0.1764 -0.2967 -0.0024
  144MOL    C6334669   3.180   6.473   6.303 -0.4081 -0.0579 -0.1523
  144MOL    C6434670   3.206   6.346   6.224  0.3363  0.0455  0.4282
  144MOL    C6534671   3.222   6.607   6.230 -0.1032 -0.0943 -0.1383
  144MOL    C6634672   3.215   6.724   6.331  0.2087 -0.7267 -0.2948
  144MOL    O6734673   3.249   6.705   6.448  0.3962 -0.0512 -0.4648
  144MOL    H6834674   3.227   6.465   6.401  1.1978  1.4946 -0.7692
  144MOL    H6934675   3.312   6.324   6.211  1.1310  4.1451 -0.6779
  144MOL    H7034676   3.166   6.369   6.125  1.2445 -0.0408  0.0364
  144MOL    H7134677   3.159   6.257   6.266  1.6492 -0.7129  0.3180
  144MOL    H7234678   3.163   6.627   6.141  2.3447 -0.3545 -1.8596
  144MOL    H7334679   3.325   6.606   6.194  0.0555 -1.8738  0.3385
  144MOL    O7434680   3.175   6.845   6.281  0.0952  0.4680  0.0381
  144MOL    C7534681   3.180   6.969   6.355 -0.2650 -0.5260 -0.2065
  144MOL    C7634682   3.298   7.068   6.329  0.1945 -0.3552  0.2055
  144MOL    C7734683   3.045   7.038   6.337  0.3894 -0.0861  0.3540
  144MOL    C7834684   2.939   6.969   6.424  0.8697  0.6704 -0.0542
  144MOL    O7934685   2.823   6.934   6.381  0.3828  0.1661 -0.1304
  144MOL    H8034686   3.198   6.953   6.462 -0.1467  1.0933  0.0375
  144MOL    H8134687   3.313   7.088   6.223  3.0456  1.6109  0.9189
  144MOL    H8234688   3.390   7.027   6.370  0.7595  0.0487 -0.6387
  144MOL    H8334689   3.286   7.162   6.382 -0.1734  0.2091 -0.8778
  144MOL    H8434690   3.013   7.056   6.235  3.2896  1.8986 -0.2782
  144MOL    H8534691   3.044   7.137   6.384 -0.9999 -0.0305  0.2242
  144MOL    O8634692   2.979   6.955   6.553 -0.3179  0.3649 -0.2383
  144MOL    C8734693   2.902   6.883   6.650 -0.4338 -0.1686 -0.0116
  144MOL    C8834694   2.754   6.926   6.673  0.4105  0.5882 -0.0132
  144MOL    C8934695   2.934   6.735   6.629 -0.2803  0.4794 -0.4249
  144MOL    C9034696   2.944   6.661   6.757  0.6039  0.4029 -0.2797
  144MOL    O9134697   2.846   6.620   6.812  0.2040  0.3740 -0.1175
  144MOL    H9234698   2.954   6.922   6.737  0.1232 -0.9662  0.0174
  144MOL    H9334699   2.708   6.874   6.757  0.2511  1.1430  0.2446
  144MOL    H9434700   2.688   6.925   6.587  1.2426 -0.4128 -0.6579
  144MOL    H9534701   2.745   7.032   6.699  0.3547  0.0833  2.1936
  144MOL    H9634702   3.020   6.709   6.568  1.2723  0.1168  1.8575
  144MOL    H9734703   2.848   6.696   6.575 -0.1134 -1.5899  0.7500
  144MOL    O9834704   3.062   6.667   6.809 -0.6498 -0.0736  0.1437
  144MOL    C9934705   3.092   6.593   6.929 -0.4238 -0.5333 -0.3603
  144MOL   C10034706   3.196   6.487   6.891  0.0118  0.1551 -0.9522
  144MOL   C10134707   3.146   6.681   7.044  0.1674  0.0686  0.0987
  144MOL   C10234708   3.053   6.796   7.092 -0.4044  0.5503 -0.0766
  144MOL   O10334709   3.095   6.906   7.071 -0.0873  0.0422 -0.2643
  144MOL   H10434710   3.000   6.549   6.967 -0.7818  0.1861 -0.3756
  144MOL   H10534711   3.274   6.536   6.833  0.4599  0.1755 -0.3420
  144MOL   H10634712   3.144   6.412   6.832 -1.0667  0.5376 -0.5119
  144MOL   H10734713   3.239   6.440   6.980 -0.8652 -1.6328 -1.4555
  144MOL   H10834714   3.249   6.711   7.025  1.0793 -2.7725  0.4545
  144MOL   H10934715   3.159   6.614   7.128  0.3102 -0.3866 -0.2838
  144MOL   O11034716   2.942   6.750   7.154 -0.3209 -0.0717  0.2512
  144MOL   C11134717   2.836   6.831   7.206 -0.0752  0.0746 -0.5011
  144MOL   C11234718   2.718   6.805   7.112  0.0600 -0.1005 -0.5000
  144MOL   C11334719   2.805   6.795   7.357  0.2259  0.5160 -0.5477
  144MOL   C11434720   2.694   6.875   7.420  0.0531 -0.2302  0.2664
  144MOL   O11534721   2.605   6.818   7.479 -0.2663 -0.2052  0.4016
  144MOL   H11634722   2.861   6.937   7.200  0.4188 -0.1016 -1.5627
  144MOL   H11734723   2.674   6.707   7.127  0.2498  0.1888  2.2038
  144MOL   H11834724   2.752   6.815   7.008  1.6581 -0.4036 -0.0232
  144MOL   H11934725   2.641   6.881   7.124 -1.1740 -1.3456 -0.4372
  144MOL   H12034726   2.899   6.816   7.409  0.7910  2.7960 -2.3776
  144MOL   H12134727   2.778   6.690   7.368  1.2618  0.2743 -0.2548
  144MOL   O12234728   2.707   7.007   7.407  0.1733 -0.5997  0.4009
  144MOL   C12334729   2.598   7.087   7.449 -0.2693 -0.2679 -0.0247
  144MOL   C12434730   2.636   7.171   7.574 -0.8096  0.4224 -0.0504
  144MOL   C12534731   2.545   7.167   7.331 -0.0469 -0.1587 -0.9747
  144MOL   C12634732   2.645   7.262   7.260 -0.0819 -0.8414 -0.1108
  144MOL   O12734733   2.657   7.375   7.297  0.7536  0.1133 -0.3518
  144MOL   H12834734   2.508   7.030   7.474 -1.7820  0.8384 -2.6938
  144MOL   H12934735   2.698   7.117   7.646 -0.5920 -0.2097 -0.6932
  144MOL   H13034736   2.548   7.205   7.627 -0.8912  1.6900 -0.9793
  144MOL   H13134737   2.685   7.262   7.539  0.7916 -0.6602 -0.7005
  144MOL   H13234738   2.470   7.235   7.371 -0.4760  0.3280 -2.5704
  144MOL   H13334739   2.479   7.109   7.267  0.4350 -0.8866 -0.8199
  144MOL   O13434740   2.689   7.213   7.151  0.2094 -0.3725  0.6188
  144MOL   C13534741   2.780   7.284   7.070 -0.4186 -0.3736  0.2466
  144MOL   C13634742   2.911   7.196   7.046  0.6324 -0.6489  0.1877
  144MOL   C13734743   2.697   7.307   6.943  1.2949  0.4155  0.8192
  144MOL   C13834744   2.758   7.412   6.845 -0.5282 -0.2856 -0.6259
  144MOL   O13934745   2.719   7.532   6.841  0.3673  0.2625  0.5378
  144MOL   H14034746   2.809   7.377   7.119 -0.5633  0.3224 -0.9496
  144MOL   H14134747   2.980   7.264   6.997 -0.6211  0.2273 -0.4034
  144MOL   H14234748   2.893   7.112   6.978  2.4876 -0.2163 -0.8477
  144MOL   H14334749   2.945   7.165   7.144  0.3125 -1.5007  0.0364
  144MOL   H14434750   2.595   7.328   6.976  0.2982 -0.3022 -1.7269
  144MOL   H14534751   2.705   7.208   6.898  0.4592  0.3105  0.9069
  144MOL   O14634752   2.860   7.360   6.778 -0.0022 -0.2591  0.1682
  144MOL   C14734753   2.921   7.431   6.668  0.3429 -0.1092  0.4646
  144MOL   C14834754   3.021   7.534   6.718  0.5595 -0.2554 -0.1837
  144MOL   C14934755   2.965   7.327   6.565  0.1472 -0.2680  0.1003
  144MOL   C15034756   2.995   7.390   6.434  0.0559  0.4046  0.7571
  144MOL   O15134757   2.905   7.430   6.361 -0.6370  0.6812  0.5573
  144MOL   H15234758   2.842   7.493   6.625  1.3760  0.1989 -1.0399
  144MOL   H15334759   3.099   7.489   6.780  0.9853  0.8699  0.1106
  144MOL   H15434760   2.974   7.607   6.784  1.7451  0.7475 -0.4267
  144MOL   H15534761   3.076   7.585   6.638 -0.0639  0.4819 -0.1462
  144MOL   H15634762   2.892   7.249   6.540  1.7387 -1.0393 -2.2716
  144MOL   H15734763   3.054   7.278   6.605  0.9440  0.3401 -0.9318
  144MOL   O15834764   3.130   7.402   6.414  0.6891 -0.2118  0.3583
  144MOL   C15934765   3.176   7.469   6.295 -0.4899  0.2742  0.4978
  144MOL   C16034766   3.266   7.577   6.347 -0.0780 -0.1584  0.2469
  144MOL   C16134767   3.239   7.369   6.191 -0.3360  0.3434 -0.2014
  144MOL   C16234768   3.275   7.425   6.056 -0.1384  0.6741  0.0545
  144MOL   O16334769   3.310   7.540   6.045  0.2767  0.3788  0.2787
  144MOL   H16434770   3.105   7.518   6.229  2.8401  0.8979 -2.8026
  144MOL   H16534771   3.269   7.656   6.272 -0.6681 -0.0382  0.3465
  144MOL   H16634772   3.365   7.537   6.370  0.2858 -0.7383 -2.1410
  144MOL   H16734773   3.224   7.630   6.432 -1.5776  0.4077 -0.8275
  144MOL   H16834774   3.174   7.286   6.164  1.1381 -0.6268 -0.8911
  144MOL   H16934775   3.327   7.321   6.234 -0.6184 -1.3765 -1.4983
  144MOL   O17034776   3.269   7.331   5.961  0.0234  0.5035  0.3401
  144MOL   C17134777   3.270   7.362   5.820 -0.0391  0.4892 -0.4150
  144MOL   C17234778   3.345   7.259   5.747  0.1752 -0.0110  0.5337
  144MOL   C17334779   3.127   7.391   5.775  0.1021  0.0102  0.0294
  144MOL   C17434780   3.121   7.459   5.638 -0.0314 -0.4031 -0.4562
  144MOL   O17534781   3.104   7.580   5.634  0.5937  0.2962 -0.1106
  144MOL   H17634782   3.328   7.453   5.807  0.6245 -0.0054 -0.9598
  144MOL   H17734783   3.297   7.161   5.753  0.7546 -0.2656  1.0781
  144MOL   H17834784   3.448   7.245   5.780  0.0755 -0.9276  0.4682
  144MOL   H17934785   3.354   7.285   5.642  0.7701 -0.1633  0.5471
  144MOL   H18034786   3.090   7.452   5.857 -0.5672  0.4411 -0.5913
  144MOL   H18134787   3.069   7.299   5.782  0.3107 -0.0590  1.0053
  144MOL   O18234788   3.141   7.380   5.531  0.5707  0.4402 -0.1381
  144MOL   C18334789   3.125   7.420   5.393 -0.1708  0.1190  0.4243
  144MOL   C18434790   3.260   7.422   5.337 -0.1339 -0.1266  0.5149
  144MOL   C18534791   3.042   7.320   5.318  0.4071  0.8378  0.2592
  144MOL   C18634792   2.890   7.342   5.332  0.3538  0.0643 -0.5527
  144MOL   O18734793   2.830   7.415   5.418  0.0454 -0.0676 -0.5518
  144MOL   H18834794   3.078   7.518   5.385  1.3428  0.8135 -0.0807
  144MOL   H18934795   3.340   7.475   5.388 -0.3170  1.0881 -0.4436
  144MOL   H19034796   3.252   7.437   5.229  0.6465 -0.3764  0.4215
  144MOL   H19134797   3.303   7.323   5.353  0.9318  0.3688  0.7651
  144MOL   H19234798   3.051   7.220   5.360  1.0857  1.5159  1.7519
  144MOL   H19334799   3.040   7.322   5.209 -1.9300  0.3412  0.2618
  144MOL   O19434800   2.823   7.263   5.252 -0.2044 -0.1808 -0.0839
  144MOL   C19534801   2.682   7.272   5.236 -0.3834 -0.2340  0.2187
  144MOL   C19634802   2.654   7.283   5.083 -0.4292 -0.3571  0.6580
  144MOL   C19734803   2.619   7.154   5.314  0.2569 -0.5463 -0.2026
  144MOL   C19834804   2.472   7.179   5.355  0.6648  0.2330 -0.3319
  144MOL   O19934805   2.405   7.275   5.317 -0.2773  0.0835  0.2091
  144MOL   H20034806   2.639   7.364   5.276  0.5873  0.0028  0.7317
  144MOL   H20134807   2.547   7.302   5.074 -0.2244  0.2674 -0.4336
  144MOL   H20234808   2.684   7.196   5.025  1.0985  0.3652  0.3356
  144MOL   H20334809   2.696   7.373   5.038  0.3165 -0.8020  0.4517
  144MOL   H20434810   2.668   7.137   5.410 -0.4521  1.7454  0.5982
  144MOL   H20534811   2.634   7.067   5.251  1.0161  0.0430 -0.8614
  144MOL   O20634812   2.432   7.079   5.432 -0.3980 -0.1776  1.2179
  144MOL   C20734813   2.294   7.076   5.459 -0.1454 -0.1304  1.2912
  144MOL   C20834814   2.250   6.928   5.467 -0.0523 -0.0977  0.3242
  144MOL   C20934815   2.276   7.149   5.596  0.0599 -0.3567  0.0201
  144MOL   C21034816   2.136   7.171   5.639 -0.2126 -0.3305  0.3468
  144MOL   O21134817   2.091   7.132   5.747 -0.3650  0.3078  0.1161
  144MOL   H21234818   2.234   7.129   5.384 -0.5717 -0.0093  1.7116
  144MOL   H21334819   2.285   6.892   5.564 -1.7857  0.9615  1.3596
  144MOL   H21434820   2.300   6.879   5.384  0.7641 -0.9755  1.3142
  144MOL   H21534821   2.142   6.924   5.456 -0.0376  1.6917 -0.7182
  144MOL   H21634822   2.313   7.252   5.593 -0.3530 -0.0981  2.6695
  144MOL   H21734823   2.322   7.099   5.681 -1.0533  2.5105  2.4177
  144MOL   O21834824   2.074   7.248   5.549  0.2471 -0.1378 -0.3823
  144MOL   C21934825   1.937   7.297   5.572  0.8840 -0.3438 -0.1309
  144MOL   C22034826   1.935   7.426   5.654 -0.0480 -0.4991  0.0023
  144MOL   C22134827   1.871   7.314   5.429  0.1450  0.7403 -0.2283
  144MOL   C22234828   1.832   7.184   5.360  0.4697 -0.0260 -0.9077
  144MOL   O22334829   1.900   7.084   5.354  0.4082 -0.7959 -0.5243
  144MOL   H22434830   1.894   7.213   5.627 -1.6227  0.0182 -1.4987
  144MOL   H22534831   1.831   7.460   5.662  0.7392  2.0880 -0.2345
  144MOL   H22634832   1.996   7.508   5.617 -0.7966 -0.3911 -1.0199
  144MOL   H22734833   1.968   7.408   5.756  0.0112 -2.3739 -0.3304
  144MOL   H22834834   1.950   7.358   5.368  1.1066 -0.1654  0.3329
  144MOL   H22934835   1.802   7.398   5.430  0.4295  0.9783 -0.4913
  144MOL   O23034836   1.712   7.183   5.311  0.0056  0.3891 -0.3223
  144MOL   C23134837   1.664   7.065   5.236  0.2248 -0.1647  0.0299
  144MOL   C23234838   1.566   6.991   5.317  0.1283 -0.1104 -1.3390
  144MOL   C23334839   1.607   7.118   5.101  0.5522 -0.8482 -0.7513
  144MOL   C23434840   1.707   7.174   5.001  0.2592  0.0841  0.6330
  144MOL   O23534841   1.749   7.291   5.020 -0.2435  0.0408  0.4360
  144MOL   H23634842   1.743   6.991   5.222 -0.9157 -1.7003  1.6378
  144MOL   H23734843   1.537   6.898   5.268  1.3171 -0.4560 -1.3882
  144MOL   H23834844   1.476   7.050   5.332  0.2854 -0.0805 -0.4975
  144MOL   H23934845   1.606   6.961   5.414  1.8134  0.5465 -1.8101
  144MOL   H24034846   1.524   7.188   5.103 -1.7017 -3.4128 -1.2855
  144MOL   H24134847   1.563   7.029   5.056 -0.4482 -0.4427 -0.5907
  144MOL   H24234848   1.721   7.107   4.916 -0.5419  4.4785 -3.2289
  145MOL     O134849   0.756   2.671   7.673  0.2140 -0.3363  0.1060
  145MOL     C234850   0.661   2.711   7.774  0.5494 -0.0765 -0.3876
  145MOL     C334851   0.547   2.793   7.710 -0.9639 -0.1579  0.8363
  145MOL     C434852   0.621   2.579   7.831  0.5462 -0.2102 -0.1208
  145MOL     C534853   0.503   2.591   7.932  1.3716 -0.3439 -0.3609
  145MOL     O634854   0.414   2.506   7.939 -0.6282  0.0341 -0.5249
  145MOL     H734855   0.711   2.770   7.850  1.6135 -0.5024 -0.7432
  145MOL     H834856   0.478   2.840   7.780  0.4644  0.9270  1.5525
  145MOL     H934857   0.493   2.727   7.643  0.7303 -2.5100  1.7139
  145MOL    H1034858   0.591   2.863   7.639  0.6001 -1.1018  0.8360
  145MOL    H1134859   0.700   2.518   7.875  0.6248  0.1790  0.2795
  145MOL    H1234860   0.570   2.528   7.750  0.8463  0.2167 -0.5875
  145MOL    H1334861   0.769   2.752   7.625  0.7902  0.3212  1.3462
  145MOL    O1434862   0.510   2.699   0.042  0.4900 -0.1417  0.2493
  145MOL    C1534863   0.400   2.723   0.128  0.3851 -0.3363  0.6551
  145MOL    C1634864   0.464   2.730   0.264  0.2803  0.4516 -0.1046
  145MOL    C1734865   0.342   2.866   0.097  0.0427  0.3385 -0.2782
  145MOL    C1834866   0.209   2.877   0.160 -0.8406 -0.3171 -0.2898
  145MOL    O1934867   0.116   2.809   0.121  0.1296 -0.2650  0.5948
  145MOL    H2034868   0.326   2.643   0.125  0.1415 -0.0733 -0.6098
  145MOL    H2134869   0.519   2.818   0.297  1.9267 -1.3410  2.0746
  145MOL    H2234870   0.505   2.633   0.292 -2.3780 -0.7946 -0.3625
  145MOL    H2334871   0.386   2.733   0.340  0.1887  2.3498 -0.2462
  145MOL    H2434872   0.332   2.870   7.968  0.2889  0.3342 -0.3030
  145MOL    H2534873   0.411   2.941   0.136  1.4761 -0.5089 -1.1024
  145MOL    O2634874   0.212   2.973   0.251 -0.1982 -0.0090  0.1279
  145MOL    C2734875   0.091   3.036   0.296 -0.0773  0.5737 -0.0694
  145MOL    C2834876   0.067   2.971   0.432  0.6382 -0.5349 -0.1718
  145MOL    C2934877   0.122   3.183   0.314  0.8253  0.6282 -0.0082
  145MOL    C3034878   7.974   3.270   0.285  1.5690  0.4530 -0.1402
  145MOL    O3134879   7.868   3.219   0.240 -0.2312 -0.0725 -0.5394
  145MOL    H3234880   0.012   3.016   0.224 -0.7408 -0.8209  1.0200
  145MOL    H3334881   7.962   3.017   0.481 -1.9724 -2.4742 -2.6680
  145MOL    H3434882   0.155   2.969   0.496  0.4613  1.4755  0.1645
  145MOL    H3534883   0.042   2.865   0.428  0.1543 -0.5192  2.1760
  145MOL    H3634884   0.187   3.229   0.238 -0.7949  1.0189 -1.1875
  145MOL    H3734885   0.177   3.199   0.407  0.7965  0.5387  0.0236
  145MOL    O3834886   0.016   3.401   0.313 -0.4178  0.1520 -0.1747
  145MOL    C3934887   7.902   3.501   0.282  0.3050  0.0947  0.4011
  145MOL    C4034888   7.959   3.622   0.360  0.4751  0.0521  0.2381
  145MOL    C4134889   7.908   3.525   0.127  0.6235  0.1101  0.0335
  145MOL    C4234890   0.062   3.571   0.074  0.2329  0.9748  0.9301
  145MOL    O4334891   0.102   3.682   0.066 -0.2824  0.1437  0.5672
  145MOL    H4434892   7.804   3.475   0.323 -0.6267  1.1498 -1.1174
  145MOL    H4534893   7.918   3.715   0.320 -1.1623 -0.2746  1.0912
  145MOL    H4634894   0.087   3.620   0.349  0.3650 -1.0027 -0.8798
  145MOL    H4734895   7.932   3.630   0.465 -0.4425  2.1883 -0.1315
  145MOL    H4834896   7.830   3.596   0.099  0.0753 -2.2961 -5.0422
  145MOL    H4934897   7.869   3.433   0.083 -2.7514  1.1306  0.7320
  145MOL    O5034898   0.138   3.467   0.028 -0.6106 -0.4504 -0.4354
  145MOL    C5134899   0.265   3.482   7.938 -0.3879  0.0498  0.1023
  145MOL    C5234900   0.360   3.375   0.008  0.2485  0.2777 -0.4094
  145MOL    C5334901   0.231   3.453   7.782  0.4482 -0.5054  0.6825
  145MOL    C5434902   0.223   3.586   7.697  0.7236  0.1061  0.2126
  145MOL    O5534903   0.169   3.684   7.747  0.4078 -0.7658 -0.0688
  145MOL    H5634904   0.306   3.582   7.952  1.1181 -0.4878 -0.3158
  145MOL    H5734905   0.392   3.402   0.109  0.0092 -0.2112 -0.2023
  145MOL    H5834906   0.449   3.355   7.928  0.7158  0.3984  0.2270
  145MOL    H5934907   0.306   3.281   0.003 -1.8754  1.5521 -1.7076
  145MOL    H6034908   0.130   3.412   7.772  0.3185  0.7109 -4.1630
  145MOL    H6134909   0.298   3.376   7.743  1.5013  1.1770 -0.9257
  145MOL    O6234910   0.273   3.580   7.576  0.0166 -0.1001  0.1727
  145MOL    C6334911   0.298   3.697   7.506 -0.3786 -0.3567 -0.5467
  145MOL    C6434912   0.404   3.790   7.572 -0.0644  0.8290 -0.0862
  145MOL    C6534913   0.351   3.642   7.373  0.4855  0.2000  0.3808
  145MOL    C6634914   0.358   3.741   7.259  0.2445 -0.8371  0.2664
  145MOL    O6734915   0.462   3.804   7.236 -0.0007  0.0619  0.7011
  145MOL    H6834916   0.206   3.753   7.489  0.3086  0.6468 -0.9692
  145MOL    H6934917   0.352   3.828   7.660 -0.2296 -1.5561  0.8869
  145MOL    H7034918   0.437   3.876   7.514  1.2832 -0.5460 -1.4093
  145MOL    H7134919   0.492   3.735   7.606 -0.2060 -0.3174 -1.5573
  145MOL    H7234920   0.288   3.556   7.349  1.4575  0.4381 -3.4806
  145MOL    H7334921   0.450   3.597   7.383 -0.1998 -1.2618  0.7127
  145MOL    O7434922   0.241   3.745   7.193  0.0591 -0.0138  0.7582
  145MOL    C7534923   0.224   3.820   7.081 -0.3431 -0.1883  0.4279
  145MOL    C7634924   0.209   3.715   6.968 -0.1046  0.2076 -0.1345
  145MOL    C7734925   0.098   3.909   7.107 -0.6033 -0.4268  0.0242
  145MOL    C7834926   0.070   4.009   7.000 -0.3341  0.0123 -0.4767
  145MOL    O7934927   7.949   4.005   6.934  0.3084 -0.1714  0.0729
  145MOL    H8034928   0.313   3.880   7.059 -1.3459  1.0157 -0.3792
  145MOL    H8134929   0.113   3.667   6.958 -0.0630  0.3224 -1.0974
  145MOL    H8234930   0.276   3.629   6.964 -0.4516 -0.1017  0.5934
  145MOL    H8334931   0.221   3.749   6.865 -0.4677 -0.8574 -0.5313
  145MOL    H8434932   0.104   3.949   7.208  2.2117 -2.2379  0.6373
  145MOL    H8534933   0.015   3.840   7.121 -1.9414  0.9422 -1.1018
  145MOL    O8634934   0.160   4.100   6.991  0.7879  0.4025 -0.0097
  145MOL    C8734935   0.148   4.206   6.899  0.0660  0.1843 -0.0848
  145MOL    C8834936   0.179   4.334   6.982  0.1181  0.7417 -0.1209
  145MOL    C8934937   0.245   4.172   6.780 -0.0209  0.3637  0.6758
  145MOL    C9034938   0.391   4.201   6.796  0.1999 -0.2423  0.9573
  145MOL    O9134939   0.447   4.289   6.735 -0.3290  0.7457 -0.1527
  145MOL    H9234940   0.047   4.211   6.859  0.0365  0.8397  0.0765
  145MOL    H9334941   0.285   4.353   6.998  0.6027  0.1309 -2.3860
  145MOL    H9434942   0.128   4.332   7.078  0.7255  3.9212  0.3085
  145MOL    H9534943   0.136   4.420   6.931 -0.4377  1.2828  1.2461
  145MOL    H9634944   0.207   4.229   6.695 -2.0546 -0.2356  1.1601
  145MOL    H9734945   0.227   4.072   6.740  0.0588  1.4620 -2.1980
  145MOL    O9834946   0.447   4.108   6.877 -0.2716 -0.0895  0.3074
  145MOL    C9934947   0.586   4.094   6.883  0.2659  0.2178 -1.1497
  145MOL   C10034948   0.631   4.098   7.034 -0.1790  0.9356  1.1212
  145MOL   C10134949   0.618   3.962   6.807  0.2587  0.1308 -0.2295
  145MOL   C10234950   0.768   3.951   6.764  0.6945 -0.0707  0.1339
  145MOL   O10334951   0.832   3.866   6.818  0.3736  0.3547  0.1735
  145MOL   H10434952   0.636   4.181   6.840 -0.0995  1.8905  1.6789
  145MOL   H10534953   0.607   4.004   7.083  0.6563 -0.1546 -0.5002
  145MOL   H10634954   0.581   4.179   7.086 -1.0775  0.0779  1.6109
  145MOL   H10734955   0.738   4.116   7.039  0.1805 -1.1493  1.4117
  145MOL   H10834956   0.555   3.964   6.719  1.0140 -0.0979 -0.7823
  145MOL   H10934957   0.600   3.872   6.866  0.2582 -0.2875 -0.8696
  145MOL   O11034958   0.807   4.050   6.682  0.5769  0.2776 -0.7070
  145MOL   C11134959   0.945   4.052   6.647 -0.2247  0.3350  0.8831
  145MOL   C11234960   0.948   4.004   6.495 -0.1879  0.1255  0.3364
  145MOL   C11334961   1.006   4.193   6.682 -0.6228 -0.7126  0.6844
  145MOL   C11434962   0.986   4.249   6.823 -0.3309  0.3363  0.1019
  145MOL   O11534963   0.981   4.169   6.918 -0.8255 -0.8134  0.7321
  145MOL   H11634964   1.012   3.993   6.710  0.1715 -0.7690 -0.5518
  145MOL   H11734965   1.052   4.008   6.462  0.2026 -1.2013  1.3516
  145MOL   H11834966   0.897   4.074   6.430  1.0008  1.0193  0.3427
  145MOL   H11934967   0.901   3.909   6.473 -0.8843  0.3325  0.9085
  145MOL   H12034968   0.958   4.263   6.613 -1.7464 -2.4076 -0.2900
  145MOL   H12134969   1.113   4.189   6.661 -0.7151 -0.2282  0.1207
  145MOL   O12234970   0.955   4.376   6.818 -1.0218  0.3836  0.0985
  145MOL   C12334971   0.860   4.428   6.915  0.2868  0.1092  0.3742
  145MOL   C12434972   0.925   4.550   6.989 -0.4131  0.4361 -0.1402
  145MOL   C12534973   0.725   4.463   6.845 -0.3230 -0.1396  0.2529
  145MOL   C12634974   0.613   4.510   6.946 -0.0549 -0.2315 -0.2325
  145MOL   O12734975   0.596   4.463   7.060 -0.2084 -0.1083  0.1740
  145MOL   H12834976   0.837   4.350   6.988 -0.7743 -0.3101 -0.4098
  145MOL   H12934977   0.959   4.634   6.928  1.7693 -0.5163 -0.2705
  145MOL   H13034978   1.018   4.505   7.024 -1.7161 -2.1868  0.0952
  145MOL   H13134979   0.877   4.584   7.081 -2.8006 -0.4562 -1.0120
  145MOL   H13234980   0.682   4.388   6.779  1.7797  0.0781 -1.4182
  145MOL   H13334981   0.743   4.547   6.778 -0.7719 -0.2799 -0.0468
  145MOL   O13434982   0.552   4.614   6.901  0.5466 -0.3769  0.0247
  145MOL   C13534983   0.463   4.687   6.980 -0.6781  0.8067  0.2412
  145MOL   C13634984   0.335   4.610   7.007  0.7247  0.1127  0.4643
  145MOL   C13734985   0.529   4.745   7.108  0.3552  0.8689  0.3936
  145MOL   C13834986   0.630   4.863   7.093 -0.0295  0.5960  0.2621
  145MOL   O13934987   0.632   4.928   6.985  0.0759 -0.2800  0.0591
  145MOL   H14034988   0.446   4.775   6.918 -0.3832 -0.7071 -2.0149
  145MOL   H14134989   0.266   4.685   7.047  0.2683 -1.0543  1.8725
  145MOL   H14234990   0.355   4.540   7.088  0.8637  1.3669  1.5332
  145MOL   H14334991   0.299   4.555   6.920 -1.0439 -0.6626  1.6545
  145MOL   H14434992   0.562   4.668   7.178  0.9870 -1.0128 -1.9047
  145MOL   H14534993   0.458   4.799   7.171  1.0179 -1.2710  3.0560
  145MOL   O14634994   0.691   4.888   7.207 -0.5853 -0.3307  0.1186
  145MOL   C14734995   0.780   4.993   7.211  0.4963  0.1382 -0.1462
  145MOL   C14834996   0.713   5.129   7.232 -0.1482  1.3094 -0.3470
  145MOL   C14934997   0.875   4.963   7.329  0.6706  0.5994 -0.2556
  145MOL   C15034998   0.977   4.857   7.283  0.2671  0.0618  0.5196
  145MOL   O15134999   0.977   4.739   7.322  0.6805 -0.0772  0.4346
  145MOL   H15235000   0.826   4.996   7.112  0.4860  0.0952 -0.1522
  145MOL   H15335001   0.659   5.150   7.140 -0.5524  1.5550 -0.0559
  145MOL   H15435002   0.784   5.210   7.247  1.8138 -0.6438  1.3441
  145MOL   H15535003   0.659   5.134   7.327  0.8497  0.1435  0.2993
  145MOL   H15635004   0.824   4.936   7.421  0.8279 -0.2011 -0.3945
  145MOL   H15735005   0.938   5.045   7.365 -0.8763  1.7709 -0.1856
  145MOL   O15835006   1.065   4.920   7.193 -0.0533 -0.2355 -0.1545
  145MOL   C15935007   1.166   4.837   7.128  0.1410  0.2205 -0.2545
  145MOL   C16035008   1.145   4.844   6.978 -0.3329 -0.4874 -0.0605
  145MOL   C16135009   1.307   4.882   7.170  0.2626 -0.6438 -0.8741
  145MOL   C16235010   1.421   4.791   7.120  0.2442 -1.1275 -0.1363
  145MOL   O16335011   1.513   4.766   7.195  0.5884 -0.6248 -0.1632
  145MOL   H16435012   1.162   4.732   7.158 -1.3495  0.4436  0.4066
  145MOL   H16535013   1.186   4.930   6.925  0.9757 -0.3773  1.1036
  145MOL   H16635014   1.036   4.852   6.968 -0.5709 -1.7110  1.3898
  145MOL   H16735015   1.178   4.753   6.929  1.2145  0.8451 -1.5202
  145MOL   H16835016   1.314   4.888   7.279  1.1547 -0.3891 -0.9406
  145MOL   H16935017   1.342   4.977   7.130  1.4375 -0.3936  0.6777
  145MOL   O17035018   1.406   4.749   6.992  0.0928  0.4315  0.2219
  145MOL   C17135019   1.501   4.668   6.923 -0.4458 -0.3867 -0.4289
  145MOL   C17235020   1.480   4.522   6.963 -0.4584 -0.3674 -0.2409
  145MOL   C17335021   1.488   4.693   6.767  0.4185 -0.9725  0.1199
  145MOL   C17435022   1.373   4.628   6.691 -0.4043 -0.2683 -0.2696
  145MOL   O17535023   1.251   4.640   6.722  0.3479 -0.3420  0.2044
  145MOL   H17635024   1.606   4.687   6.948 -0.1002 -1.6723 -0.8458
  145MOL   H17735025   1.560   4.465   6.915 -1.0008  1.2096 -3.0617
  145MOL   H17835026   1.380   4.481   6.950  0.0565 -2.2443  1.2859
  145MOL   H17935027   1.493   4.503   7.070 -0.1981 -0.1555 -0.2350
  145MOL   H18035028   1.586   4.660   6.733  2.4194  2.1439  2.5447
  145MOL   H18135029   1.478   4.800   6.752  0.1882 -1.2025 -1.3466
  145MOL   O18235030   1.427   4.549   6.590  0.4507 -0.0083 -0.6668
  145MOL   C18335031   1.344   4.513   6.481  0.0757 -0.0452  0.2680
  145MOL   C18435032   1.430   4.505   6.357 -0.4477 -0.4260 -0.0457
  145MOL   C18535033   1.254   4.390   6.502 -0.1806 -0.4346 -0.0630
  145MOL   C18635034   1.138   4.387   6.403  0.1197  0.4239 -0.0096
  145MOL   O18735035   1.131   4.293   6.323  0.1967 -0.6459 -0.2280
  145MOL   H18835036   1.279   4.598   6.462 -0.0727  0.4700  2.8428
  145MOL   H18935037   1.375   4.458   6.276  0.7924  1.6167 -2.1336
  145MOL   H19035038   1.526   4.457   6.373  0.4952  1.9995  1.8349
  145MOL   H19135039   1.453   4.606   6.322  1.9007 -0.8785  0.1560
  145MOL   H19235040   1.207   4.383   6.600  0.7687 -1.7205  0.3110
  145MOL   H19335041   1.314   4.299   6.492 -1.9580 -1.5628 -0.7837
  145MOL   O19435042   1.042   4.479   6.435 -0.2434 -0.2254 -0.4759
  145MOL   C19535043   0.923   4.485   6.345 -0.3232 -0.3045  0.1813
  145MOL   C19635044   0.819   4.385   6.386 -0.0207  0.5221 -0.5771
  145MOL   C19735045   0.864   4.629   6.348  0.7362 -0.6085  0.3985
  145MOL   C19835046   0.781   4.664   6.228 -0.0656 -0.0031 -0.1667
  145MOL   O19935047   0.815   4.633   6.114  0.5564  0.4292 -1.0660
  145MOL   H20035048   0.958   4.451   6.248  1.0175  0.9447  0.2240
  145MOL   H20135049   0.860   4.286   6.370  0.6266  0.4818  1.2332
  145MOL   H20235050   0.729   4.388   6.323 -0.0163 -1.5023 -0.7136
  145MOL   H20335051   0.785   4.401   6.488 -0.9746  2.5606 -1.1838
  145MOL   H20435052   0.951   4.689   6.371  1.5984 -1.1541 -1.3806
  145MOL   H20535053   0.800   4.632   6.437 -0.3160  1.7053 -0.3977
  145MOL   O20635054   0.658   4.713   6.267 -0.2035 -0.4453  0.2293
  145MOL   C20735055   0.557   4.737   6.170  0.8842 -0.6733 -0.4566
  145MOL   C20835056   0.498   4.602   6.115 -0.1812  0.2844  0.5596
  145MOL   C20935057   0.448   4.835   6.233  0.4025 -0.4390 -0.0955
  145MOL   C21035058   0.344   4.893   6.133 -0.3756  0.0835  0.1718
  145MOL   O21135059   0.366   4.888   6.011 -0.4368  0.5334  0.0646
  145MOL   H21235060   0.611   4.785   6.089  1.0230 -0.8984 -0.4956
  145MOL   H21335061   0.411   4.632   6.057  0.5193  3.5854  1.0958
  145MOL   H21435062   0.471   4.540   6.200 -1.0825 -1.5326 -1.0230
  145MOL   H21535063   0.564   4.546   6.048 -0.1653  0.1701  0.6715
  145MOL   H21635064   0.487   4.924   6.283  0.3040  0.1481 -1.0524
  145MOL   H21735065   0.390   4.780   6.307 -0.6733 -1.3890 -1.6296
  145MOL   O21835066   0.240   4.945   6.197  0.0935  0.2630 -0.3342
  145MOL   C21935067   0.151   5.028   6.126 -0.2150  0.2227 -0.5780
  145MOL   C22035068   0.052   4.948   6.038 -0.3605 -0.6837 -0.1192
  145MOL   C22135069   0.074   5.118   6.223 -0.7434  0.2502  0.1622
  145MOL   C22235070   0.019   5.251   6.167 -0.0438 -0.2858 -0.6118
  145MOL   O22335071   7.878   5.274   6.158  0.3588  0.3800 -0.0024
  145MOL   H22435072   0.216   5.091   6.066  2.7504 -1.5107  0.7058
  145MOL   H22535073   0.100   4.870   5.979 -0.2605  0.5356 -1.6575
  145MOL   H22635074   0.002   5.011   5.964 -0.7548 -1.7952 -0.8113
  145MOL   H22735075   7.957   4.898   6.099 -0.0445  2.2502  2.8383
  145MOL   H22835076   0.148   5.140   6.300 -0.8253 -2.0874  0.9591
  145MOL   H22935077   7.971   5.071   6.277 -0.3245  0.1978  0.7609
  145MOL   O23035078   0.115   5.327   6.117 -0.0719  0.0745 -0.4142
  145MOL   C23135079   0.079   5.459   6.071  0.5085 -0.0700 -0.1219
  145MOL   C23235080   0.203   5.546   6.112 -0.4455  0.3601  0.1697
  145MOL   C23335081   0.046   5.457   5.927  0.0590 -0.8179 -0.5677
  145MOL   C23435082   0.042   5.585   5.842 -0.2311  0.2337 -0.6173
  145MOL   O23535083   7.944   5.674   5.872 -0.5211  0.0664  0.2199
  145MOL   H23635084   7.979   5.497   6.135  0.7013 -1.4082  0.9470
  145MOL   H23735085   0.189   5.644   6.065 -1.4336 -0.6958 -1.8292
  145MOL   H23835086   0.294   5.495   6.080  1.0459  3.3415 -0.5853
  145MOL   H23935087   0.212   5.566   6.218 -1.7789 -0.5061  0.4599
  145MOL   H24035088   7.931   5.403   5.929 -0.9550  0.8394 -2.3101
  145MOL   H24135089   0.109   5.384   5.877  0.0014 -1.3390  0.1107
  145MOL   H24235090   0.116   5.596   5.762  0.5344  1.1780  0.2127
  146MOL     O135091   6.295   1.286   5.162 -0.3117  0.1061  0.0401
  146MOL     C235092   6.229   1.324   5.278  0.1607  0.2321 -0.7521
  146MOL     C335093   6.146   1.459   5.245 -0.1850  0.7173  0.0266
  146MOL     C435094   6.136   1.207   5.326 -0.2555 -0.1931  0.1424
  146MOL     C535095   6.066   1.247   5.462 -0.0564 -0.0801  0.8163
  146MOL     O635096   5.950   1.207   5.490 -0.4455  0.1904  0.1831
  146MOL     H735097   6.305   1.329   5.355 -1.0654  4.4603  0.3339
  146MOL     H835098   6.100   1.487   5.340  2.5434  1.6957  1.1163
  146MOL     H935099   6.065   1.440   5.175 -0.7149  1.2217  0.4953
  146MOL    H1035100   6.208   1.539   5.205 -1.4599  1.0732 -1.3072
  146MOL    H1135101   6.191   1.113   5.327 -0.3735 -0.2888 -1.0493
  146MOL    H1235102   6.048   1.186   5.266 -3.3692  0.5788  4.2149
  146MOL    H1335103   6.346   1.363   5.139 -1.8645  1.5976  1.5038
  146MOL    O1435104   6.134   1.338   5.537 -0.0075  0.1088 -0.1817
  146MOL    C1535105   6.073   1.384   5.658 -0.1394  0.0823 -0.0547
  146MOL    C1635106   6.108   1.293   5.772 -0.1493  0.3668  0.2300
  146MOL    C1735107   6.134   1.530   5.685  0.1238 -0.5281  0.0421
  146MOL    C1835108   6.071   1.649   5.606 -0.0299  0.4115 -0.6159
  146MOL    O1935109   6.108   1.766   5.611  0.1386 -0.2951 -0.2140
  146MOL    H2035110   5.965   1.398   5.654 -0.2866 -0.9716  0.1109
  146MOL    H2135111   6.079   1.191   5.746  0.4611  0.2850 -0.1293
  146MOL    H2235112   6.067   1.322   5.869 -1.1054 -0.4112  0.0718
  146MOL    H2335113   6.216   1.283   5.772 -0.1614  0.2356  1.1185
  146MOL    H2435114   6.243   1.520   5.688 -0.0843 -2.7472  0.3728
  146MOL    H2535115   6.101   1.553   5.787 -1.2008 -0.7260 -0.3436
  146MOL    O2635116   5.958   1.612   5.539  0.7695 -0.1422  0.6057
  146MOL    C2735117   5.875   1.709   5.475  0.2316  0.8999 -0.6494
  146MOL    C2835118   5.791   1.638   5.369  0.3949 -0.1481 -0.6098
  146MOL    C2935119   5.792   1.781   5.581 -0.6950  0.2180 -0.1471
  146MOL    C3035120   5.710   1.900   5.532 -0.1020  0.4354 -0.3077
  146MOL    O3135121   5.737   1.953   5.424  0.0350 -0.5460 -0.0485
  146MOL    H3235122   5.935   1.784   5.423  0.1282 -0.2383 -2.4291
  146MOL    H3335123   5.855   1.601   5.289 -0.3143 -1.8017 -0.4228
  146MOL    H3435124   5.706   1.692   5.328 -0.7009 -0.1556  1.5724
  146MOL    H3535125   5.743   1.552   5.415  0.4980  1.6429  3.0552
  146MOL    H3635126   5.851   1.807   5.669 -0.1452 -0.2897 -0.3637
  146MOL    H3735127   5.739   1.704   5.637 -0.6290  0.1429 -0.1891
  146MOL    O3835128   5.606   1.934   5.618 -0.4383  0.1566  0.0414
  146MOL    C3935129   5.502   2.023   5.575 -0.9598 -0.1449  0.9962
  146MOL    C4035130   5.373   1.995   5.641  0.0517  0.5701 -1.3608
  146MOL    C4135131   5.559   2.160   5.594 -0.4265  0.1811  0.0819
  146MOL    C4235132   5.470   2.274   5.550  0.8218 -0.1727 -0.3389
  146MOL    O4335133   5.456   2.373   5.625  0.0917 -0.8567 -0.0635
  146MOL    H4435134   5.489   2.006   5.468 -0.3866  2.7435  0.4218
  146MOL    H4535135   5.295   2.069   5.618  0.8973  2.1601  0.7189
  146MOL    H4635136   5.387   1.975   5.747  0.7172  1.3879 -1.2824
  146MOL    H4735137   5.329   1.904   5.602  1.1704 -0.4450 -0.2693
  146MOL    H4835138   5.652   2.177   5.540 -0.2786  1.7320  0.8059
  146MOL    H4935139   5.558   2.156   5.703 -3.0063  0.1647  0.0832
  146MOL    O5035140   5.406   2.255   5.434 -0.4243  0.3252 -0.4103
  146MOL    C5135141   5.306   2.350   5.389  0.1798 -0.0863 -0.3534
  146MOL    C5235142   5.363   2.420   5.263  0.2431  0.1298  0.6683
  146MOL    C5335143   5.182   2.260   5.371  0.4609 -0.0758 -0.1553
  146MOL    C5435144   5.057   2.333   5.320  0.5956  0.2415  0.3436
  146MOL    O5535145   5.060   2.436   5.263  0.1350  0.0173  0.2074
  146MOL    H5635146   5.279   2.417   5.470  0.4100  0.3002 -0.5921
  146MOL    H5735147   5.388   2.343   5.191 -1.9191 -2.6158  2.7477
  146MOL    H5835148   5.460   2.454   5.299  0.9710 -1.5261  0.2803
  146MOL    H5935149   5.301   2.500   5.222  0.4001 -0.3811 -0.5854
  146MOL    H6035150   5.152   2.212   5.464  2.0664  0.2045  0.5285
  146MOL    H6135151   5.202   2.176   5.303 -0.1305  0.6556 -1.2469
  146MOL    O6235152   4.945   2.262   5.356  0.6158 -0.5340 -0.3533
  146MOL    C6335153   4.816   2.330   5.339  0.2602  0.3094  0.1272
  146MOL    C6435154   4.735   2.251   5.239 -0.1212  0.1007  0.1517
  146MOL    C6535155   4.739   2.325   5.470 -0.0771  0.4298 -0.2910
  146MOL    C6635156   4.785   2.430   5.568 -0.6857  0.3264  0.1585
  146MOL    O6735157   4.729   2.537   5.572 -0.1149  0.0629  0.8017
  146MOL    H6835158   4.830   2.435   5.316 -0.1773  0.3382 -0.0060
  146MOL    H6935159   4.734   2.145   5.264 -0.3722 -0.8253 -3.5411
  146MOL    H7035160   4.787   2.255   5.144 -0.4967 -0.0439 -0.0618
  146MOL    H7135161   4.639   2.299   5.222 -0.0823  0.5655  1.2347
  146MOL    H7235162   4.740   2.228   5.520 -0.6076  0.3787 -0.3779
  146MOL    H7335163   4.632   2.339   5.451 -0.7194 -0.1554  2.5610
  146MOL    O7435164   4.899   2.389   5.636  0.4561  0.2620 -0.1525
  146MOL    C7535165   4.961   2.474   5.739  0.2673 -0.8227 -0.0227
  146MOL    C7635166   4.921   2.409   5.872 -0.1733  0.5619  0.6122
  146MOL    C7735167   5.118   2.486   5.728 -0.5232 -0.6906  0.7304
  146MOL    C7835168   5.169   2.613   5.654  0.0709 -0.4028 -0.2553
  146MOL    O7935169   5.168   2.614   5.531 -0.7396 -0.1789  0.6589
  146MOL    H8035170   4.914   2.572   5.729 -0.6055 -1.4823 -2.9353
  146MOL    H8135171   4.935   2.480   5.953 -0.2636 -0.4697  1.5476
  146MOL    H8235172   4.966   2.311   5.886 -1.3584 -0.1972 -0.6596
  146MOL    H8335173   4.814   2.391   5.882 -0.3941  0.3557 -1.8431
  146MOL    H8435174   5.157   2.396   5.681  0.0182 -0.0157 -0.1248
  146MOL    H8535175   5.155   2.497   5.830  0.0831  0.2939  0.4166
  146MOL    O8635176   5.212   2.708   5.735 -0.1700  0.1289  0.8354
  146MOL    C8735177   5.256   2.833   5.671 -0.2006  0.8614  0.3708
  146MOL    C8835178   5.267   2.937   5.777 -0.0222 -0.2572 -0.1180
  146MOL    C8935179   5.394   2.827   5.596  0.4863  0.3290  0.1366
  146MOL    C9035180   5.402   2.940   5.489 -0.3964  0.8886 -0.5405
  146MOL    O9135181   5.306   2.968   5.417 -0.1473  0.2391 -0.0097
  146MOL    H9235182   5.186   2.869   5.595 -0.9977 -0.6309  0.3765
  146MOL    H9335183   5.170   2.954   5.823  0.2635 -2.3940  1.3822
  146MOL    H9435184   5.298   3.034   5.740  1.1326 -1.0695 -1.3281
  146MOL    H9535185   5.328   2.902   5.860  0.1981  0.6333  0.1007
  146MOL    H9635186   5.405   2.733   5.543  0.5827 -0.1100  0.9334
  146MOL    H9735187   5.476   2.840   5.666  2.2270 -0.7536 -1.6682
  146MOL    O9835188   5.521   2.999   5.499 -0.1168 -0.8209  0.3208
  146MOL    C9935189   5.560   3.098   5.396 -0.0403 -0.4504 -0.9679
  146MOL   C10035190   5.576   3.232   5.465 -0.8083  0.5642 -0.5759
  146MOL   C10135191   5.684   3.055   5.321  0.7538  0.7305 -0.0593
  146MOL   C10235192   5.671   2.917   5.255 -0.6129  0.0299 -0.4368
  146MOL   O10335193   5.758   2.838   5.243 -0.1227  0.1882  0.5628
  146MOL   H10435194   5.484   3.114   5.319 -1.1474  2.4645  0.6581
  146MOL   H10535195   5.648   3.229   5.547 -1.2161 -0.5945 -0.2466
  146MOL   H10635196   5.476   3.266   5.495 -0.2084  1.7342  0.1565
  146MOL   H10735197   5.624   3.299   5.393 -0.2876 -2.0917 -2.7766
  146MOL   H10835198   5.771   3.058   5.387 -0.4648  1.1959  1.5723
  146MOL   H10935199   5.712   3.136   5.253  1.2622  0.3771 -0.2703
  146MOL   O11035200   5.549   2.901   5.206 -0.3275  0.5152  0.1846
  146MOL   C11135201   5.504   2.780   5.147  0.1023  0.5064 -0.4451
  146MOL   C11235202   5.349   2.790   5.148  0.3848 -0.5708 -0.3174
  146MOL   C11335203   5.553   2.749   4.997 -0.1575  0.3362  0.0065
  146MOL   C11435204   5.699   2.703   4.987 -0.3945 -0.4130 -0.3193
  146MOL   O11535205   5.771   2.754   4.905 -0.4714  0.0894  0.1295
  146MOL   H11635206   5.537   2.691   5.200 -1.5989 -0.8861 -1.6733
  146MOL   H11735207   5.324   2.862   5.070  0.1175 -0.4280 -0.0972
  146MOL   H11835208   5.310   2.797   5.249 -0.1222  1.6630 -0.6523
  146MOL   H11935209   5.299   2.711   5.091 -1.0326  0.2375 -0.2216
  146MOL   H12035210   5.535   2.836   4.933 -0.3833  0.1910 -0.1285
  146MOL   H12135211   5.490   2.667   4.963  0.3494 -0.3265  0.6526
  146MOL   O12235212   5.723   2.594   5.054  0.5272  0.2123  0.2622
  146MOL   C12335213   5.849   2.529   5.035 -0.6906 -0.6998 -0.3303
  146MOL   C12435214   5.955   2.593   5.122  0.0252 -0.3554 -0.6347
  146MOL   C12535215   5.832   2.375   5.052  0.1057 -0.0027 -0.0902
  146MOL   C12635216   5.815   2.331   5.205  0.2003 -0.3950 -0.3286
  146MOL   O12735217   5.705   2.329   5.256 -0.5913 -0.1598 -0.0868
  146MOL   H12835218   5.881   2.548   4.932  0.5268 -4.1131 -0.6415
  146MOL   H12935219   6.049   2.546   5.093  1.2212  0.5369  1.6392
  146MOL   H13035220   5.924   2.580   5.226 -1.4520  0.3000 -0.9799
  146MOL   H13135221   5.957   2.700   5.105 -1.2162 -0.0115  1.2318
  146MOL   H13235222   5.926   2.337   5.014 -0.4446 -0.3917 -1.0805
  146MOL   H13335223   5.750   2.340   4.989  0.2151 -0.0529 -0.2031
  146MOL   O13435224   5.930   2.302   5.273 -0.4472  0.2326  0.5167
  146MOL   C13535225   5.933   2.248   5.404 -0.2279  0.2269  0.3805
  146MOL   C13635226   5.996   2.110   5.405 -0.0883  0.3801  0.4707
  146MOL   C13735227   6.009   2.367   5.476 -0.3456 -0.1853 -0.7086
  146MOL   C13835228   6.028   2.339   5.626 -0.5771  0.1002  0.0600
  146MOL   O13935229   5.939   2.334   5.708 -0.2304  0.6048  0.5436
  146MOL   H14035230   5.835   2.241   5.451  0.0856 -1.8204  0.8107
  146MOL   H14135231   6.104   2.115   5.393 -0.1187  2.3230  0.9414
  146MOL   H14235232   5.953   2.045   5.329  0.2312  0.9262 -0.1849
  146MOL   H14335233   5.982   2.064   5.503  2.7105 -2.8990 -0.5239
  146MOL   H14435234   5.948   2.457   5.486  0.8228  0.6141 -0.6418
  146MOL   H14535235   6.105   2.388   5.430 -0.7356  1.4630 -0.8091
  146MOL   O14635236   6.154   2.326   5.642  0.4565 -0.5377 -0.6746
  146MOL   C14735237   6.209   2.275   5.765 -0.1822  0.3150  0.0098
  146MOL   C14835238   6.283   2.144   5.741  0.1976 -0.3040 -0.7138
  146MOL   C14935239   6.306   2.391   5.809  0.2896  0.3819  0.6480
  146MOL   C15035240   6.403   2.359   5.919 -0.9887 -0.4774 -0.4605
  146MOL   O15135241   6.525   2.339   5.899  0.2173  0.0673  0.4246
  146MOL   H15235242   6.136   2.259   5.844 -0.4263 -0.9487 -0.4557
  146MOL   H15335243   6.199   2.075   5.725 -0.5674  0.5454 -0.4269
  146MOL   H15435244   6.342   2.106   5.824  1.9313 -1.9448 -2.6421
  146MOL   H15535245   6.339   2.145   5.648 -0.5376 -0.3404 -1.1584
  146MOL   H15635246   6.258   2.485   5.834 -1.3587 -0.6008  1.2841
  146MOL   H15735247   6.368   2.415   5.723  0.2733  0.0969  0.5556
  146MOL   O15835248   6.348   2.336   6.032  0.2705 -0.0979  0.5657
  146MOL   C15935249   6.418   2.326   6.155 -0.2301  0.3207  0.1097
  146MOL   C16035250   6.362   2.442   6.244  0.5338 -0.7713  0.2015
  146MOL   C16135251   6.414   2.194   6.223  0.1043  0.6111  0.3448
  146MOL   C16235252   6.514   2.165   6.338  0.3633  1.0490  0.0967
  146MOL   O16335253   6.615   2.093   6.330  0.4928 -0.1036  0.2993
  146MOL   H16435254   6.524   2.352   6.153  0.0662 -0.6261  2.0117
  146MOL   H16535255   6.411   2.439   6.341  0.1716  0.2409  0.4245
  146MOL   H16635256   6.259   2.418   6.272 -0.3385  1.2852 -1.0738
  146MOL   H16735257   6.381   2.543   6.207 -1.1065 -0.4317  0.2174
  146MOL   H16835258   6.436   2.119   6.147 -0.6893 -1.5493  2.1962
  146MOL   H16935259   6.309   2.182   6.249  0.1991 -2.0409 -0.2711
  146MOL   O17035260   6.480   2.229   6.448  0.2569  0.1482  0.2605
  146MOL   C17135261   6.566   2.237   6.565  0.2911 -0.2212 -0.4685
  146MOL   C17235262   6.617   2.385   6.585  0.6229  0.1552  0.4285
  146MOL   C17335263   6.522   2.171   6.690 -0.5366  0.2011  0.3808
  146MOL   C17435264   6.494   2.028   6.685  0.1200  0.0750 -0.4305
  146MOL   O17535265   6.582   1.943   6.715 -0.0592  0.2240 -0.3620
  146MOL   H17635266   6.650   2.171   6.544 -1.7653 -2.9148 -0.4228
  146MOL   H17735267   6.623   2.437   6.490  0.0714  0.8197  0.7585
  146MOL   H17835268   6.716   2.388   6.631  1.9210 -0.1569 -2.2386
  146MOL   H17935269   6.541   2.446   6.634 -0.2195  0.5369 -1.3163
  146MOL   H18035270   6.433   2.212   6.737 -0.2627  0.6399  0.5183
  146MOL   H18135271   6.606   2.173   6.760 -0.0641 -0.1797 -0.1751
  146MOL   O18235272   6.373   2.016   6.637  0.1214  0.1840  0.1803
  146MOL   C18335273   6.329   1.886   6.604  0.7900  0.1567  0.3828
  146MOL   C18435274   6.249   1.827   6.726 -0.2608  0.1851  0.2777
  146MOL   C18535275   6.251   1.884   6.470 -0.7834 -0.1801  0.0948
  146MOL   C18635276   6.122   1.969   6.495 -0.5288 -0.0808 -1.0145
  146MOL   O18735277   6.015   1.919   6.532  0.1837  0.1995 -0.3870
  146MOL   H18835278   6.411   1.815   6.591  0.8674  0.5512 -1.4372
  146MOL   H18935279   6.186   1.746   6.689 -0.8618  1.4480 -1.5599
  146MOL   H19035280   6.188   1.910   6.764 -0.2437  0.4252 -0.2180
  146MOL   H19135281   6.309   1.787   6.808  0.1042 -2.5651 -1.2663
  146MOL   H19235282   6.234   1.781   6.438 -0.8327 -0.2989  0.5037
  146MOL   H19335283   6.305   1.924   6.384  0.7100  1.2824  1.6622
  146MOL   O19435284   6.139   2.088   6.467  0.4997 -0.1767  0.4103
  146MOL   C19535285   6.029   2.180   6.484  0.2547 -0.3427  0.5772
  146MOL   C19635286   6.089   2.318   6.529  0.6936  0.0868 -0.0032
  146MOL   C19735287   5.939   2.177   6.360 -0.2637  0.0346  0.0334
  146MOL   C19835288   5.985   2.236   6.226 -0.5226  0.6830 -0.4516
  146MOL   O19935289   6.055   2.173   6.151 -0.0832  0.3804  0.0079
  146MOL   H20035290   5.966   2.153   6.569 -2.0786 -0.6939 -1.2119
  146MOL   H20135291   6.118   2.321   6.634  0.3892  0.9415  0.0544
  146MOL   H20235292   6.010   2.393   6.531 -0.4474 -1.0769 -0.5910
  146MOL   H20335293   6.173   2.349   6.466  0.1770 -0.1248 -0.8034
  146MOL   H20435294   5.846   2.225   6.392  0.4569  0.3906  1.6276
  146MOL   H20535295   5.902   2.076   6.339  0.1932 -0.2671  0.6738
  146MOL   O20635296   5.951   2.364   6.210 -0.2810 -0.0494  0.1280
  146MOL   C20735297   6.010   2.453   6.115 -0.3898 -0.0645  0.6004
  146MOL   C20835298   5.945   2.455   5.979 -0.0361  0.0938 -0.0432
  146MOL   C20935299   6.002   2.591   6.173 -0.1673  0.7881  0.4953
  146MOL   C21035300   6.099   2.700   6.115 -0.5449  0.5687 -0.3325
  146MOL   O21135301   6.200   2.670   6.050 -0.4379  0.0716 -0.0307
  146MOL   H21235302   6.113   2.421   6.097 -0.0001 -0.6601  3.5857
  146MOL   H21335303   5.841   2.487   5.979 -0.2785 -0.6705  0.3584
  146MOL   H21435304   5.954   2.353   5.941 -0.0963  0.0050  0.1817
  146MOL   H21535305   6.007   2.517   5.914  1.6077 -0.7121  0.7118
  146MOL   H21635306   6.003   2.588   6.282 -3.1824  3.5659  0.6838
  146MOL   H21735307   5.899   2.624   6.156 -0.7821 -0.8091  0.9686
  146MOL   O21835308   6.057   2.821   6.157 -0.2345  0.6352  0.0184
  146MOL   C21935309   6.134   2.936   6.103  0.2339  0.6803 -0.5296
  146MOL   C22035310   6.035   3.038   6.043  0.7107 -0.2951  0.3601
  146MOL   C22135311   6.226   2.996   6.218  0.4087  0.5746  0.3954
  146MOL   C22235312   6.342   3.081   6.166  0.4019  0.5713 -0.4904
  146MOL   O22335313   6.391   3.059   6.057  0.4219 -0.6423  0.0217
  146MOL   H22435314   6.194   2.904   6.018  0.0566 -1.5814  0.1390
  146MOL   H22535315   5.943   3.059   6.097  0.7997  1.7503 -0.2279
  146MOL   H22635316   6.011   3.005   5.942  0.3800 -0.9749  0.6609
  146MOL   H22735317   6.087   3.133   6.034  0.1001  0.2012  1.8771
  146MOL   H22835318   6.253   2.922   6.293  2.4123  1.1381  0.2472
  146MOL   H22935319   6.162   3.066   6.273 -1.0902 -1.3089  1.0936
  146MOL   O23035320   6.377   3.172   6.251  0.4540  0.2638  0.5060
  146MOL   C23135321   6.472   3.271   6.221  0.4919  0.5334  0.1548
  146MOL   C23235322   6.396   3.396   6.176  0.2161  0.1284  0.4361
  146MOL   C23335323   6.549   3.292   6.355  0.1609 -0.3681  0.3931
  146MOL   C23435324   6.671   3.376   6.329 -0.1627 -0.2778  0.7874
  146MOL   O23535325   6.679   3.486   6.378 -0.4245  0.3075 -0.2927
  146MOL   H23635326   6.530   3.251   6.132 -1.8684 -1.4459 -0.9834
  146MOL   H23735327   6.350   3.380   6.078  2.3453  1.5683 -0.8506
  146MOL   H23835328   6.465   3.478   6.157  3.3276 -2.1911  1.1994
  146MOL   H23935329   6.322   3.438   6.244 -1.1290 -0.8717 -0.3798
  146MOL   H24035330   6.578   3.192   6.389 -1.9726 -1.3600 -0.5953
  146MOL   H24135331   6.481   3.337   6.427  0.7850  0.1127  0.6842
  146MOL   H24235332   6.753   3.327   6.277 -3.3949 -1.2557 -3.6207
  147MOL     O135333   0.117   6.726   7.548 -0.2347 -0.4291 -0.2687
  147MOL     C235334   0.186   6.778   7.664  0.2503  0.5708 -0.3814
  147MOL     C335335   0.153   6.692   7.784  0.2559 -0.2523  0.3466
  147MOL     C435336   0.337   6.789   7.632  0.4749 -0.6689 -0.3008
  147MOL     C535337   0.407   6.860   7.751  0.1557 -1.0465  0.0965
  147MOL     O635338   0.445   6.798   7.846  0.2250  0.0546  1.2506
  147MOL     H735339   0.140   6.874   7.687 -0.2737  0.0266  0.9329
  147MOL     H835340   0.045   6.698   7.798  0.3621  0.9451  0.6828
  147MOL     H935341   0.194   6.734   7.876  1.2569  1.1753 -0.7297
  147MOL    H1035342   0.200   6.594   7.772  4.1208  1.7894 -2.0846
  147MOL    H1135343   0.350   6.859   7.549  1.0564 -1.6175 -1.0119
  147MOL    H1235344   0.369   6.691   7.598  0.4524 -1.0226  0.6812
  147MOL    H1335345   0.147   6.638   7.530 -0.6160 -0.4998 -0.5622
  147MOL    O1435346   0.420   6.984   7.747  0.2388 -0.1163  0.3162
  147MOL    C1535347   0.494   7.062   7.846  0.2414 -0.0871 -0.7214
  147MOL    C1635348   0.647   7.050   7.822 -0.2935  0.4003 -0.6792
  147MOL    C1735349   0.454   7.216   7.842  0.8158  0.3216  0.9496
  147MOL    C1835350   0.330   7.241   7.930  0.1052  0.8574 -0.6667
  147MOL    O1935351   0.346   7.256   0.070  0.2696  0.4832  0.0710
  147MOL    H2035352   0.472   7.022   7.944  1.5248  0.7324 -0.0867
  147MOL    H2135353   0.686   6.949   7.808 -0.3444  0.3095 -0.2030
  147MOL    H2235354   0.704   7.101   7.900 -2.9276  3.8592 -0.8687
  147MOL    H2335355   0.673   7.103   7.731  2.5219  1.5501  0.7526
  147MOL    H2435356   0.425   7.241   7.740 -1.0782 -2.5204  0.7401
  147MOL    H2535357   0.534   7.285   7.867  2.0707 -1.8446  3.1012
  147MOL    O2635358   0.218   7.226   7.864  0.1106 -0.2248 -0.3726
  147MOL    C2735359   0.096   7.242   7.933  0.6363 -0.0083  0.0196
  147MOL    C2835360   0.026   7.370   7.886  0.6397 -0.2623 -0.4745
  147MOL    C2935361   0.015   7.108   7.939  0.1960  0.0858 -0.3283
  147MOL    C3035362   7.857   7.128   0.031  0.6866 -0.3902  0.2505
  147MOL    O3135363   7.849   7.115   0.155  0.2199 -0.1894 -0.2600
  147MOL    H3235364   0.115   7.278   0.054  0.3665  0.9790 -0.2849
  147MOL    H3335365   7.945   7.401   7.971  2.3895  1.4041  0.1904
  147MOL    H3435366   7.947   7.381   7.795 -0.3041 -3.0987 -0.2594
  147MOL    H3535367   0.095   7.454   7.885  0.6560 -0.2652  0.0783
  147MOL    H3635368   0.065   7.020   7.979  1.1216  1.4696  1.6679
  147MOL    H3735369   7.966   7.083   7.837 -2.0828 -0.1777  0.3644
  147MOL    O3835370   7.746   7.154   7.923  0.1551 -0.5513 -0.0060
  147MOL    C3935371   7.624   7.193   0.008 -0.3440  0.3907 -0.7182
  147MOL    C4035372   7.554   7.282   7.884 -0.4098  0.2281 -0.2925
  147MOL    C4135373   7.556   7.067   0.049 -0.5407 -0.5472 -0.4238
  147MOL    C4235374   7.487   7.086   0.181 -0.3059  0.7734 -0.5110
  147MOL    O4335375   7.364   7.097   0.187 -0.0691  0.2788  0.7063
  147MOL    H4435376   7.641   7.253   0.098  2.4755  0.6296 -1.3669
  147MOL    H4535377   7.618   7.361   7.847  1.3596 -1.2215 -0.3961
  147MOL    H4635378   7.463   7.321   7.931 -0.8453 -0.7848 -0.2658
  147MOL    H4735379   7.528   7.230   7.792 -0.4513 -1.3516  0.5928
  147MOL    H4835380   7.636   6.994   0.062  1.5538  1.6308 -0.7017
  147MOL    H4935381   7.487   7.037   7.950 -2.7425  3.3191 -0.1187
  147MOL    O5035382   7.563   7.073   0.293  0.6481  0.4631 -0.6758
  147MOL    C5135383   7.514   7.088   0.427 -0.1958 -0.0115 -0.3808
  147MOL    C5235384   7.505   6.943   0.485 -0.0389 -0.1851  0.4688
  147MOL    C5335385   7.616   7.170   0.513  0.1619  0.5860  0.3866
  147MOL    C5435386   7.587   7.318   0.512 -0.2503  0.1491 -0.0065
  147MOL    O5535387   7.535   7.374   0.603 -0.0689  0.4140  0.1780
  147MOL    H5635388   7.411   7.124   0.427 -0.8882 -1.9081 -1.5885
  147MOL    H5735389   7.414   6.895   0.448  0.9752 -1.1835 -0.7613
  147MOL    H5835390   7.500   6.951   0.594 -1.2904  0.1159  0.3988
  147MOL    H5935391   7.588   6.875   0.465  0.0149 -0.1314  0.5134
  147MOL    H6035392   7.721   7.167   0.484  0.5907 -1.8468  2.0110
  147MOL    H6135393   7.608   7.144   0.619 -0.4779 -1.3642 -0.1387
  147MOL    O6235394   7.634   7.375   0.396 -0.2207 -0.6656 -0.1599
  147MOL    C6335395   7.634   7.510   0.378  0.1029 -0.0904  0.1302
  147MOL    C6435396   7.728   7.545   0.263 -0.6175  0.6441 -0.1818
  147MOL    C6535397   7.497   7.574   0.375  0.2503  0.1950 -0.0059
  147MOL    C6635398   7.415   7.557   0.252  0.0850  0.1868  1.2641
  147MOL    O6735399   7.458   7.598   0.141  0.2254 -0.0890  0.0121
  147MOL    H6835400   7.693   7.540   0.465  1.1346 -0.0345 -0.5712
  147MOL    H6935401   7.708   7.487   0.172 -1.5821  2.1903 -0.9830
  147MOL    H7035402   7.828   7.523   0.299 -0.0480  1.9388 -0.9404
  147MOL    H7135403   7.736   7.648   0.229  1.7536  0.0478 -1.4817
  147MOL    H7235404   7.518   7.680   0.382  2.5660 -0.2751  0.8422
  147MOL    H7335405   7.441   7.547   0.465  2.7829 -1.0243  1.2482
  147MOL    O7435406   7.302   7.491   0.273  0.1453 -0.5028  0.2508
  147MOL    C7535407   7.202   7.494   0.169 -0.1374  0.0559 -0.3939
  147MOL    C7635408   7.157   7.359   0.130 -0.5260 -0.5078  0.4051
  147MOL    C7735409   7.086   7.594   0.207 -0.1927 -0.3304  0.4906
  147MOL    C7835410   6.977   7.612   0.103 -0.5079 -0.8035 -0.5048
  147MOL    O7935411   6.864   7.571   0.132  0.2437 -0.1528 -0.1609
  147MOL    H8035412   7.247   7.543   0.083 -0.4032 -1.6120 -1.5051
  147MOL    H8135413   7.236   7.284   0.124 -0.5394 -0.3389 -2.6586
  147MOL    H8235414   7.096   7.358   0.040  2.6562  0.8821 -1.8478
  147MOL    H8335415   7.089   7.306   0.197 -1.1155  1.3121  1.2662
  147MOL    H8435416   7.125   7.695   0.224  2.0624 -0.7035 -2.0405
  147MOL    H8535417   7.041   7.555   0.298 -1.0292 -2.5898 -0.8447
  147MOL    O8635418   7.010   7.685   7.970  0.1608  0.6907  0.0370
  147MOL    C8735419   6.912   7.706   7.869  0.2257 -0.4769 -0.1748
  147MOL    C8835420   6.964   7.828   7.799  0.7562  0.4571 -0.3688
  147MOL    C8935421   6.889   7.567   7.794 -0.7140 -0.3052 -0.5224
  147MOL    C9035422   6.769   7.548   7.707  0.0616  1.0239  0.3519
  147MOL    O9135423   6.683   7.633   7.703  0.3978 -0.0452  0.8176
  147MOL    H9235424   6.820   7.731   7.922  1.1126  1.3317  0.5683
  147MOL    H9335425   6.904   7.832   7.708 -0.6938  0.7285  0.5722
  147MOL    H9435426   7.062   7.805   7.759  1.1906  0.4488  0.6794
  147MOL    H9535427   6.953   7.926   7.846 -0.0898 -0.7252  1.9771
  147MOL    H9635428   6.884   7.485   7.866  0.0142  1.6085  1.7682
  147MOL    H9735429   6.970   7.532   7.730 -0.6312  0.3833 -0.7983
  147MOL    O9835430   6.764   7.428   7.646 -0.1764 -0.1558 -0.0452
  147MOL    C9935431   6.669   7.400   7.544 -0.1611  0.4316 -1.1179
  147MOL   C10035432   6.754   7.408   7.415  0.3163  0.4386 -0.3213
  147MOL   C10135433   6.603   7.262   7.589 -0.2522 -0.4374  0.4367
  147MOL   C10235434   6.518   7.213   7.469 -0.6420  0.2702  0.3559
  147MOL   O10335435   6.401   7.249   7.445  0.2955  0.3814 -0.3466
  147MOL   H10435436   6.594   7.478   7.535 -0.8426 -0.0897 -0.0410
  147MOL   H10535437   6.705   7.369   7.325  0.3503 -0.2476 -0.0441
  147MOL   H10635438   6.833   7.335   7.430 -1.9833 -2.1535 -0.4134
  147MOL   H10735439   6.803   7.502   7.390  0.2526  0.7387  0.6781
  147MOL   H10835440   6.553   7.260   7.686  1.6471 -0.7881  1.4334
  147MOL   H10935441   6.683   7.188   7.587 -1.0808 -1.3168 -0.8210
  147MOL   O11035442   6.587   7.113   7.400 -0.5896 -0.1293  0.5479
  147MOL   C11135443   6.538   7.057   7.280  0.7630 -0.3241 -0.5724
  147MOL   C11235444   6.565   7.147   7.164  0.5949 -0.5705  0.2264
  147MOL   C11335445   6.606   6.918   7.278  0.0805  1.1417  0.9969
  147MOL   C11435446   6.523   6.813   7.343 -0.1846  0.5346 -0.4533
  147MOL   O11535447   6.537   6.788   7.462 -0.2347 -0.6177  0.2504
  147MOL   H11635448   6.430   7.050   7.285  0.5864  2.2896  0.5817
  147MOL   H11735449   6.667   7.130   7.129  0.2635  0.4282 -1.3050
  147MOL   H11835450   6.538   7.248   7.192 -0.5189 -1.3182  1.8907
  147MOL   H11935451   6.505   7.124   7.076  1.0148 -0.7479 -0.0171
  147MOL   H12035452   6.701   6.925   7.332  0.9446 -1.3330 -0.1313
  147MOL   H12135453   6.627   6.884   7.176 -1.6012 -0.9826  1.3338
  147MOL   O12235454   6.438   6.755   7.258  0.0301  0.0200  0.5164
  147MOL   C12335455   6.348   6.655   7.313  0.5907 -0.0195  0.2816
  147MOL   C12435456   6.209   6.712   7.289 -0.0139  0.1763 -0.0823
  147MOL   C12535457   6.363   6.515   7.242 -0.3602 -0.2220 -0.1099
  147MOL   C12635458   6.500   6.461   7.233  0.0739  0.7207  0.8475
  147MOL   O12735459   6.547   6.442   7.120 -0.5821 -0.0370 -0.2099
  147MOL   H12835460   6.360   6.649   7.422  1.2595 -0.0338  0.2124
  147MOL   H12935461   6.196   6.807   7.341 -1.2872 -1.4274  2.7080
  147MOL   H13035462   6.129   6.649   7.330  2.1606 -1.7615  1.2865
  147MOL   H13135463   6.189   6.724   7.183 -0.6902  2.1835  0.2463
  147MOL   H13235464   6.325   6.527   7.140 -2.9259  1.2222  0.9761
  147MOL   H13335465   6.294   6.448   7.292  1.7247 -0.5538  2.3741
  147MOL   O13435466   6.558   6.440   7.352 -0.0532 -0.0332 -0.1313
  147MOL   C13535467   6.697   6.409   7.357 -0.3008 -1.0921  0.9409
  147MOL   C13635468   6.782   6.539   7.385 -0.6084 -0.6902  0.1289
  147MOL   C13735469   6.734   6.284   7.438 -0.0483  0.6197 -0.1617
  147MOL   C13835470   6.693   6.283   7.584  0.2019 -0.3854  0.7417
  147MOL   O13935471   6.620   6.194   7.628  0.0037  0.0664 -0.0986
  147MOL   H14035472   6.734   6.387   7.257 -1.5807  1.6006 -0.1472
  147MOL   H14135473   6.752   6.623   7.322 -3.8769 -1.3972  0.6600
  147MOL   H14235474   6.886   6.512   7.367 -0.1509  2.2355 -1.9328
  147MOL   H14335475   6.776   6.569   7.489  0.1459 -3.4284  1.0101
  147MOL   H14435476   6.840   6.262   7.426 -0.1213  0.2771 -0.1857
  147MOL   H14535477   6.685   6.198   7.392  0.6010 -0.8479  1.8072
  147MOL   O14635478   6.740   6.390   7.655  0.4734  0.0076  0.1984
  147MOL   C14735479   6.750   6.383   7.792 -0.5792  0.6260 -0.0799
  147MOL   C14835480   6.885   6.316   7.820 -0.0761 -0.3648  0.0553
  147MOL   C14935481   6.732   6.515   7.850  0.2577 -0.6517  0.2681
  147MOL   C15035482   6.671   6.514   0.011 -0.1877  0.3057  0.4337
  147MOL   O15135483   6.651   6.412   0.070  0.0622 -0.4612 -0.1438
  147MOL   H15235484   6.671   6.322   7.834  0.2218 -2.2597 -2.5436
  147MOL   H15335485   6.909   6.304   7.926  1.2476  0.7039 -0.1061
  147MOL   H15435486   6.965   6.375   7.774  0.9939 -0.7925  1.3435
  147MOL   H15535487   6.886   6.215   7.778 -1.2486 -1.3424  2.3022
  147MOL   H15635488   6.654   6.574   7.801  1.1742  0.9809  0.7297
  147MOL   H15735489   6.822   6.576   7.844 -0.4336  0.3628 -0.0210
  147MOL   O15835490   6.626   6.633   0.054 -0.5868  0.0236  0.0452
  147MOL   C15935491   6.599   6.649   0.189  0.1921  0.2442  0.1967
  147MOL   C16035492   6.634   6.794   0.220  0.0740 -0.0315  0.2328
  147MOL   C16135493   6.462   6.607   0.236  0.6593 -0.5798  0.7727
  147MOL   C16235494   6.454   6.561   0.381  0.0397 -0.7704 -0.2655
  147MOL   O16335495   6.527   6.465   0.428 -0.0036 -0.1012  0.0603
  147MOL   H16435496   6.664   6.577   0.240 -0.7050 -1.0173 -0.4119
  147MOL   H16535497   6.640   6.813   0.327 -2.6437 -0.2841  0.4608
  147MOL   H16635498   6.567   6.865   0.170  0.1638 -1.0496 -1.3970
  147MOL   H16735499   6.738   6.810   0.191  0.2157 -0.7262  0.3624
  147MOL   H16835500   6.429   6.528   0.168  0.6287  0.8119 -0.8429
  147MOL   H16935501   6.405   6.696   0.213  0.8609 -0.8497 -0.8372
  147MOL   O17035502   6.354   6.618   0.442  0.0278  0.1710 -0.3437
  147MOL   C17135503   6.305   6.569   0.569 -0.1553  0.3764  0.2322
  147MOL   C17235504   6.241   6.693   0.637  0.5992  0.0981  0.0666
  147MOL   C17335505   6.194   6.471   0.532 -0.6389  0.6905  0.1029
  147MOL   C17435506   6.112   6.408   0.646  0.0352 -0.2778 -0.7263
  147MOL   O17535507   6.168   6.349   0.738  0.0752  0.1306  0.5461
  147MOL   H17635508   6.378   6.520   0.634  0.8638  0.1266 -1.0859
  147MOL   H17735509   6.212   6.662   0.737 -0.1998 -0.0536 -0.1992
  147MOL   H17835510   6.143   6.721   0.597  0.0339 -0.4801  1.0428
  147MOL   H17935511   6.304   6.781   0.643  0.6419  0.4021 -3.4434
  147MOL   H18035512   6.247   6.391   0.480 -1.1696  1.2087 -1.2697
  147MOL   H18135513   6.119   6.519   0.469 -1.9598  0.0961  1.2014
  147MOL   O18235514   5.984   6.428   0.632 -0.0753 -0.0731  0.2620
  147MOL   C18335515   5.892   6.395   0.734  0.0860 -0.8038  0.5621
  147MOL   C18435516   5.858   6.518   0.812 -0.5998  0.6582 -0.6074
  147MOL   C18535517   5.766   6.329   0.666  0.3975 -0.3991  0.5583
  147MOL   C18635518   5.795   6.178   0.644  0.3843 -0.4220 -0.4066
  147MOL   O18735519   5.781   6.129   0.536  0.2025 -0.2157 -0.0140
  147MOL   H18835520   5.940   6.325   0.802  0.8801 -1.5141 -0.7222
  147MOL   H18935521   5.940   6.564   0.867 -0.9367 -0.4775  0.8903
  147MOL   H19035522   5.782   6.487   0.884  1.4377  0.3278  1.4513
  147MOL   H19135523   5.815   6.595   0.748  0.9686  0.7363 -1.5984
  147MOL   H19235524   5.735   6.386   0.579 -1.6916  0.7597  2.0193
  147MOL   H19335525   5.681   6.345   0.732 -2.4540 -2.8657 -2.3654
  147MOL   O19435526   5.834   6.118   0.758 -0.6628 -0.1436  0.8026
  147MOL   C19535527   5.862   5.982   0.754 -0.0797  0.7801  0.1673
  147MOL   C19635528   5.999   5.970   0.823  0.7364  0.2194  0.2975
  147MOL   C19735529   5.743   5.886   0.800  0.0465 -0.0974  0.0734
  147MOL   C19835530   5.622   5.879   0.702  0.5165  0.9636 -0.1646
  147MOL   O19935531   5.597   5.779   0.636 -0.5514 -0.1737  0.0530
  147MOL   H20035532   5.889   5.962   0.650  0.2841  1.9363  0.0219
  147MOL   H20135533   6.058   5.892   0.774  0.3150 -0.2741  0.5607
  147MOL   H20235534   5.983   5.938   0.926  2.2934 -1.6776 -0.0147
  147MOL   H20335535   6.048   6.067   0.820 -1.6371  1.4396  0.2183
  147MOL   H20435536   5.692   5.910   0.894 -0.5658  2.5836 -0.9148
  147MOL   H20535537   5.791   5.790   0.818 -2.1225 -1.0822  0.8444
  147MOL   O20635538   5.543   5.984   0.716  0.2488  0.6954  0.4792
  147MOL   C20735539   5.418   5.984   0.650  0.3327 -0.4318 -0.5337
  147MOL   C20835540   5.330   6.058   0.747 -0.2147  0.1027 -0.5537
  147MOL   C20935541   5.425   6.059   0.508  0.5566  0.4626  0.1703
  147MOL   C21035542   5.318   6.014   0.406  0.2134 -0.5603 -0.1196
  147MOL   O21135543   5.223   6.092   0.375 -0.4349 -0.0069 -0.2983
  147MOL   H21235544   5.371   5.888   0.629  0.0748 -0.1529 -1.2770
  147MOL   H21335545   5.228   6.071   0.710 -0.3506  1.9075  0.4032
  147MOL   H21435546   5.355   6.163   0.755 -1.1914  0.4250 -1.5210
  147MOL   H21535547   5.316   6.009   0.843 -1.1969 -0.8650 -1.1812
  147MOL   H21635548   5.520   6.030   0.464 -0.7310  0.1537 -2.5309
  147MOL   H21735549   5.433   6.167   0.515  1.5882  0.4187 -0.3219
  147MOL   O21835550   5.348   5.901   0.345  0.0088  0.0719 -0.0587
  147MOL   C21935551   5.258   5.848   0.247 -0.6318  0.5671 -0.1028
  147MOL   C22035552   5.309   5.871   0.105  0.4117  0.0894  0.3008
  147MOL   C22135553   5.239   5.696   0.290 -0.1470  0.2249  0.3725
  147MOL   C22235554   5.145   5.608   0.208 -0.0328 -0.8324 -0.5725
  147MOL   O22335555   5.033   5.577   0.248 -0.1877  0.2411 -0.4657
  147MOL   H22435556   5.160   5.894   0.262 -1.3075 -0.8096 -0.1536
  147MOL   H22535557   5.281   5.975   0.088  2.1940  0.4258 -0.7735
  147MOL   H22635558   5.256   5.803   0.037  0.8987  0.5858 -0.5941
  147MOL   H22735559   5.417   5.860   0.096  0.4517  0.2199  0.6399
  147MOL   H22835560   5.213   5.700   0.396 -1.6948  2.4859 -0.0706
  147MOL   H22935561   5.335   5.644   0.281  0.2071  0.5412  2.1239
  147MOL   O23035562   5.208   5.560   0.093 -0.0085  0.0605 -0.1466
  147MOL   C23135563   5.132   5.480   0.005 -0.3563 -0.1410 -0.3396
  147MOL   C23235564   5.096   5.563   7.863 -0.6966 -0.0471 -0.0120
  147MOL   C23335565   5.200   5.352   7.940  0.0989  0.3084  0.6913
  147MOL   C23435566   5.238   5.259   0.075 -0.2949 -0.3817  0.4157
  147MOL   O23535567   5.213   5.281   0.195 -0.2844 -0.0512 -0.5429
  147MOL   H23635568   5.043   5.441   0.056 -0.0047  0.0343  0.4178
  147MOL   H23735569   5.188   5.615   7.835  0.5248 -1.0125  2.1069
  147MOL   H23835570   5.027   5.640   7.898 -0.5348 -0.5777  1.5241
  147MOL   H23935571   5.060   5.517   7.771 -0.5554  0.0761 -0.1305
  147MOL   H24035572   5.284   5.375   7.875  0.4830 -1.5706  0.4817
  147MOL   H24135573   5.127   5.294   7.882  1.1623  0.8191 -1.1602
  147MOL   H24235574   5.296   5.169   0.052  0.6694 -0.3983  2.6959
  148MOL     O135575   7.962   5.870   3.440 -0.3689  0.0368 -0.8801
  148MOL     C235576   7.906   5.985   3.386  0.1012 -0.6598  0.0514
  148MOL     C335577   0.040   6.079   3.354  0.2503  0.8107  0.8824
  148MOL     C435578   7.807   5.959   3.275 -0.3314 -0.3032  0.2983
  148MOL     C535579   7.693   6.056   3.257 -0.1688 -0.4991  0.0764
  148MOL     O635580   7.600   6.071   3.337 -0.5300 -0.0164 -0.3977
  148MOL     H735581   7.852   6.030   3.470 -0.2411 -1.9672  0.5537
  148MOL     H835582   0.110   6.015   3.299 -1.0755 -0.7965  1.0175
  148MOL     H935583   0.084   6.109   3.449  0.3965 -0.7096  1.3056
  148MOL    H1035584   0.005   6.169   3.305  1.5163  1.6551  1.4910
  148MOL    H1135585   7.749   5.876   3.315  0.6868 -0.2782  1.8824
  148MOL    H1235586   7.858   5.934   3.182 -0.1858  0.0761  0.2770
  148MOL    H1335587   7.904   5.796   3.430 -1.4639  0.7162  0.2675
  148MOL    O1435588   7.707   6.120   3.143  0.4658  0.1865  0.0251
  148MOL    C1535589   7.612   6.218   3.095 -0.4708 -0.2674 -1.0838
  148MOL    C1635590   7.700   6.348   3.060 -0.3253  0.2112  0.3899
  148MOL    C1735591   7.542   6.159   2.968  0.2277 -0.1929  0.1075
  148MOL    C1835592   7.443   6.249   2.897 -0.5636 -0.6270 -0.0372
  148MOL    O1935593   7.420   6.232   2.773 -0.4258 -0.0785 -0.4903
  148MOL    H2035594   7.537   6.230   3.173  0.3481 -0.2170 -0.2925
  148MOL    H2135595   7.787   6.317   3.000  0.3083  0.6187  1.0895
  148MOL    H2235596   7.723   6.397   3.154 -0.9231 -0.1571  0.7292
  148MOL    H2335597   7.638   6.415   3.001  0.5883 -0.0836 -0.9499
  148MOL    H2435598   7.505   6.057   2.978 -1.2552  0.5867  3.0759
  148MOL    H2535599   7.630   6.147   2.906  0.4308  1.1047  0.1177
  148MOL    O2635600   7.379   6.328   2.985  0.0728 -0.6583 -0.1600
  148MOL    C2735601   7.278   6.415   2.946  0.4104  1.0488  0.0609
  148MOL    C2835602   7.146   6.366   2.993  0.0008 -0.0640  1.0672
  148MOL    C2935603   7.310   6.560   3.005  0.3831  0.2947  0.1373
  148MOL    C3035604   7.389   6.655   2.916  0.2080 -0.3274 -0.0960
  148MOL    O3135605   7.407   6.770   2.948 -0.1906 -0.4866 -0.2417
  148MOL    H3235606   7.273   6.426   2.838  2.8999 -0.5946 -0.2581
  148MOL    H3335607   7.079   6.451   2.981  1.3731  0.6095 -2.5689
  148MOL    H3435608   7.149   6.347   3.100  0.7446  1.0754  1.2634
  148MOL    H3535609   7.089   6.291   2.939 -0.9329  2.6117 -1.7971
  148MOL    H3635610   7.364   6.550   3.099  0.6172 -0.9068 -0.1263
  148MOL    H3735611   7.216   6.615   3.005 -1.0584 -2.0840 -1.6926
  148MOL    O3835612   7.430   6.603   2.796  0.0436 -0.7581  0.3771
  148MOL    C3935613   7.519   6.674   2.725 -0.7900  0.3997  0.9339
  148MOL    C4035614   7.645   6.590   2.717  0.3353 -0.2488 -0.2088
  148MOL    C4135615   7.478   6.706   2.583  1.0869 -0.0894 -0.5566
  148MOL    C4235616   7.371   6.818   2.564 -1.0162  0.3131 -0.6338
  148MOL    O4335617   7.306   6.822   2.464 -0.1384 -0.0260  0.1254
  148MOL    H4435618   7.551   6.768   2.771 -0.2588  0.7351 -0.0896
  148MOL    H4535619   7.634   6.489   2.676 -0.1161 -0.1102 -0.4162
  148MOL    H4635620   7.706   6.584   2.808  0.1745 -1.5741 -0.1657
  148MOL    H4735621   7.719   6.634   2.650  1.2643  0.5156  1.2822
  148MOL    H4835622   7.427   6.618   2.544  4.2153 -1.0299 -2.6909
  148MOL    H4935623   7.562   6.730   2.518  0.1902  0.0397 -1.6634
  148MOL    O5035624   7.392   6.917   2.661  0.4482  0.3486 -0.2268
  148MOL    C5135625   7.309   7.037   2.664 -0.3942  0.0235  0.5394
  148MOL    C5235626   7.314   7.100   2.804  0.2936 -0.3123 -0.1544
  148MOL    C5335627   7.350   7.135   2.546 -0.1203 -0.0377  0.4892
  148MOL    C5435628   7.496   7.186   2.526 -0.0744  0.1724  0.5911
  148MOL    O5535629   7.551   7.180   2.416  0.0420  0.2858  0.2838
  148MOL    H5635630   7.206   7.001   2.656 -0.2367 -0.1227 -1.0258
  148MOL    H5735631   7.239   7.051   2.865 -1.0111  0.0773 -1.3952
  148MOL    H5835632   7.286   7.206   2.808  1.5826  0.1548 -2.3953
  148MOL    H5935633   7.416   7.080   2.836  0.6104  0.7229 -0.4899
  148MOL    H6035634   7.285   7.221   2.563 -2.4896 -1.8654  0.9679
  148MOL    H6135635   7.326   7.091   2.449 -0.7976  1.8823 -0.2516
  148MOL    O6235636   7.554   7.228   2.641 -0.2463  0.1515  0.1417
  148MOL    C6335637   7.695   7.235   2.650  0.4411 -0.1994 -0.7582
  148MOL    C6435638   7.723   7.387   2.621  0.2431  0.4961 -0.6871
  148MOL    C6535639   7.745   7.172   2.783  0.1873 -0.0164 -0.2057
  148MOL    C6635640   7.703   7.261   2.903 -0.8055 -0.4909 -0.1885
  148MOL    O6735641   7.590   7.250   2.946  0.5271  0.1904 -0.6588
  148MOL    H6835642   7.752   7.191   2.568 -0.3324  0.3434 -1.6072
  148MOL    H6935643   7.832   7.387   2.623  0.2541 -0.8500 -0.0644
  148MOL    H7035644   7.700   7.456   2.703  0.2119  0.3138 -0.5414
  148MOL    H7135645   7.695   7.427   2.524  2.1994 -0.2946 -1.5907
  148MOL    H7235646   7.853   7.162   2.781  0.2475  0.6077 -0.0467
  148MOL    H7335647   7.708   7.070   2.795  1.1248 -0.4712 -1.0350
  148MOL    O7435648   7.805   7.326   2.954 -0.5183 -0.3838  0.2319
  148MOL    C7535649   7.801   7.358   3.090 -0.1186 -0.6421  0.2830
  148MOL    C7635650   7.831   7.239   3.183  0.1703 -0.3099 -0.5309
  148MOL    C7735651   7.905   7.476   3.106  0.0637  0.6313  0.1228
  148MOL    C7835652   7.850   7.610   3.072  0.7456 -0.4390  0.7138
  148MOL    O7935653   7.792   7.677   3.157  0.0110 -0.2684 -0.1420
  148MOL    H8035654   7.702   7.403   3.104  0.1978 -1.1061  4.7408
  148MOL    H8135655   7.928   7.196   3.158  0.7764 -0.0465  1.3393
  148MOL    H8235656   7.755   7.164   3.164 -0.4957  0.1792  0.2204
  148MOL    H8335657   7.823   7.263   3.289  1.0531  0.3006 -0.5930
  148MOL    H8435658   0.023   7.447   3.067  1.3763  3.2331  1.3146
  148MOL    H8535659   7.926   7.485   3.212 -0.2721 -0.3285  0.2718
  148MOL    O8635660   7.889   7.650   2.946 -0.9492 -0.5383  0.0401
  148MOL    C8735661   7.852   7.776   2.902 -0.2493  0.0393 -0.7156
  148MOL    C8835662   0.002   7.861   2.908 -0.1732 -0.0975 -0.3997
  148MOL    C8935663   7.799   7.762   2.757 -0.2098 -0.9488  0.2204
  148MOL    C9035664   7.733   7.891   2.698  0.2733  0.0843  0.2440
  148MOL    O9135665   7.620   7.931   2.730  0.4457 -0.0984  0.3248
  148MOL    H9235666   7.780   7.819   2.973 -0.5209 -2.1122  0.3541
  148MOL    H9335667   0.054   7.848   3.003  0.4022 -0.4419 -0.7597
  148MOL    H9435668   7.964   7.967   2.893 -2.9523 -0.7476 -2.1565
  148MOL    H9535669   0.072   7.826   2.832 -1.6349 -0.4647 -1.5949
  148MOL    H9635670   7.721   7.687   2.746  0.0934 -1.5678  2.1699
  148MOL    H9735671   7.866   7.739   2.674 -1.5378 -0.9853 -0.8790
  148MOL    O9835672   7.826   7.946   2.620 -0.1599  0.1681 -0.0196
  148MOL    C9935673   7.812   0.104   2.574 -0.2021  0.0908  0.6046
  148MOL   C10035674   7.889   0.191   2.677  0.8961 -0.0715  0.6478
  148MOL   C10135675   7.866   0.104   2.434 -0.1140  0.1012  0.8411
  148MOL   C10235676   0.039   0.090   2.414  0.0595 -0.5491  0.5055
  148MOL   O10335677   0.098   7.962   2.414 -0.1322 -0.4528 -0.0664
  148MOL   H10435678   7.707   0.132   2.568 -0.5964 -1.6584 -1.3060
  148MOL   H10535679   7.886   0.297   2.652 -3.7468  0.8975  4.5400
  148MOL   H10635680   0.012   0.162   2.702  1.4694  0.6817 -0.7670
  148MOL   H10735681   7.829   0.176   2.766  1.1360 -1.6047  0.5659
  148MOL   H10835682   7.837   0.197   2.387  1.3118  0.5128  0.7503
  148MOL   H10935683   7.818   0.030   2.369  1.1842 -0.8712  0.9643
  148MOL   O11035684   0.092   0.201   2.389  0.9282  0.5050 -0.0306
  148MOL   C11135685   0.228   0.212   2.365  0.0035 -0.5340 -0.4503
  148MOL   C11235686   0.254   0.243   2.209  0.0932  0.4106  1.0856
  148MOL   C11335687   0.290   0.316   2.458 -0.6545 -0.2092 -0.0661
  148MOL   C11435688   0.446   0.304   2.454 -1.4026 -0.3801  0.2717
  148MOL   O11535689   0.514   0.295   2.349  0.1126  0.4039  0.3627
  148MOL   H11635690   0.280   0.120   2.390 -0.3048 -0.2668  1.1936
  148MOL   H11735691   0.192   0.180   2.145 -1.6635  0.1686  2.9555
  148MOL   H11835692   0.354   0.211   2.180  0.7960  2.1829  1.5140
  148MOL   H11935693   0.236   0.344   2.173  2.4283  0.9024  1.2239
  148MOL   H12035694   0.253   0.309   2.560 -0.5984 -2.3339 -0.1613
  148MOL   H12135695   0.245   0.406   2.418 -0.9702 -1.2771 -2.1738
  148MOL   O12235696   0.500   0.331   2.572  0.0434  0.3609  0.2568
  148MOL   C12335697   0.643   0.318   2.584  0.4558  0.3410 -0.0151
  148MOL   C12435698   0.688   0.426   2.685  0.0624 -0.2389 -0.0353
  148MOL   C12535699   0.674   0.174   2.643 -0.4561  0.4472 -0.9931
  148MOL   C12635700   0.822   0.134   2.625  0.3763  0.6311  0.1551
  148MOL   O12735701   0.896   0.108   2.718 -0.0598  0.2917  0.3503
  148MOL   H12835702   0.697   0.334   2.490  1.3852  1.8419  0.7462
  148MOL   H12935703   0.620   0.443   2.768 -0.9132  0.8873 -1.0300
  148MOL   H13035704   0.729   0.514   2.635 -1.7214  0.1401 -0.9006
  148MOL   H13135705   0.781   0.403   2.735  0.4226  0.7840 -0.2189
  148MOL   H13235706   0.610   0.096   2.602  0.3754 -0.7106 -0.1228
  148MOL   H13335707   0.659   0.155   2.749  0.4636 -0.0378 -0.9426
  148MOL   O13435708   0.862   0.139   2.494  0.7813 -0.1290  0.1485
  148MOL   C13535709   0.998   0.120   2.454 -0.9578 -1.1766 -0.0758
  148MOL   C13635710   1.010   0.025   2.336  0.0484 -0.6619  0.2548
  148MOL   C13735711   1.048   0.254   2.404 -0.5335 -0.1845 -0.1284
  148MOL   C13835712   1.051   0.351   2.525 -0.6732 -0.8037  0.6996
  148MOL   O13935713   0.984   0.458   2.517 -0.5382  0.5867 -0.9045
  148MOL   H14035714   1.061   0.083   2.535  1.5463  2.2062 -0.3592
  148MOL   H14135715   0.932   0.054   2.266  0.9786 -0.2468 -0.6166
  148MOL   H14235716   0.998   7.901   2.368 -1.7018 -1.0408 -1.5779
  148MOL   H14335717   1.106   0.032   2.284 -1.3147 -2.6919 -2.6336
  148MOL   H14435718   0.976   0.295   2.333 -1.9995 -1.4601  0.6001
  148MOL   H14535719   1.141   0.240   2.349 -0.0002 -0.6765  0.8931
  148MOL   O14635720   1.133   0.316   2.616 -0.5246 -0.7281 -0.3407
  148MOL   C14735721   1.177   0.418   2.707 -0.0626 -0.5584 -0.4363
  148MOL   C14835722   1.081   0.417   2.830  0.5679 -0.6128  0.2890
  148MOL   C14935723   1.329   0.390   2.739 -0.2276  0.7671 -0.3255
  148MOL   C15035724   1.380   0.502   2.827  0.2601  0.0369 -0.1635
  148MOL   O15135725   1.410   0.607   2.783 -0.3092  0.1256 -0.1734
  148MOL   H15235726   1.186   0.514   2.656  0.2224 -1.3528 -1.9093
  148MOL   H15335727   0.976   0.435   2.807  0.6910  1.4921  1.2153
  148MOL   H15435728   1.116   0.491   2.902 -0.6868  2.0469 -1.7347
  148MOL   H15535729   1.107   0.321   2.873  1.0257 -1.9331 -2.8347
  148MOL   H15635730   1.380   0.390   2.643  0.6087 -0.8768  0.0977
  148MOL   H15735731   1.348   0.301   2.798 -0.7895  1.9902  1.7623
  148MOL   O15835732   1.400   0.461   2.956  0.1895  0.4100 -0.1147
  148MOL   C15935733   1.492   0.521   3.046 -0.4507  0.1852 -0.1098
  148MOL   C16035734   1.416   0.636   3.116 -0.6119 -0.2253  0.0888
  148MOL   C16135735   1.540   0.420   3.158  0.1303 -0.0847  1.0301
  148MOL   C16235736   1.664   0.477   3.243 -0.1916  0.1191  0.9176
  148MOL   O16335737   1.675   0.444   3.363  0.3689 -0.1385  0.1822
  148MOL   H16435738   1.571   0.571   2.991 -1.1987  1.5402  0.0362
  148MOL   H16535739   1.374   0.704   3.041  1.3162 -0.3093 -1.1139
  148MOL   H16635740   1.488   0.686   3.180  0.2956  0.8438 -1.7146
  148MOL   H16735741   1.333   0.602   3.178 -0.5588  2.0099  1.4335
  148MOL   H16835742   1.562   0.324   3.112 -1.1249  1.4959 -3.1043
  148MOL   H16935743   1.457   0.391   3.222 -2.5289  0.6053 -1.9631
  148MOL   O17035744   1.753   0.562   3.180  0.2571 -0.4853 -0.1568
  148MOL   C17135745   1.862   0.621   3.252  0.0319  0.4538 -0.3655
  148MOL   C17235746   1.975   0.627   3.155 -1.2276 -0.1478  0.7336
  148MOL   C17335747   1.830   0.751   3.313 -0.8286  0.3725  0.2447
  148MOL   C17435748   1.830   0.874   3.220 -0.1417  0.1988 -0.1515
  148MOL   O17535749   1.926   0.942   3.214 -0.6670 -0.0284  0.5205
  148MOL   H17635750   1.902   0.546   3.321 -0.0632  2.0660  1.5060
  148MOL   H17735751   2.060   0.674   3.204 -2.2343  0.5452  1.8550
  148MOL   H17835752   1.950   0.679   3.062 -3.9212 -2.1712  0.2554
  148MOL   H17935753   2.019   0.529   3.135 -4.4074 -1.3649 -0.7392
  148MOL   H18035754   1.894   0.774   3.398  0.8854 -1.2466 -0.5621
  148MOL   H18135755   1.728   0.759   3.351 -1.2097  0.2947 -0.7481
  148MOL   O18235756   1.723   0.876   3.138  0.4402 -0.1483  0.5323
  148MOL   C18335757   1.707   0.977   3.041 -0.2114 -0.8543 -0.5468
  148MOL   C18435758   1.591   0.930   2.949  0.4256 -0.0339  0.2152
  148MOL   C18535759   1.694   1.119   3.097 -0.1857 -0.9459  0.1249
  148MOL   C18635760   1.744   1.223   2.993  0.1203  0.5642  0.6339
  148MOL   O18735761   1.853   1.212   2.937 -0.8721 -0.0054 -0.6765
  148MOL   H18835762   1.792   0.984   2.973  0.9978 -1.2502  0.8959
  148MOL   H18935763   1.598   0.965   2.846  1.2704  1.6495  0.8431
  148MOL   H19035764   1.495   0.965   2.988  0.5404  3.2817 -2.2395
  148MOL   H19135765   1.586   0.821   2.947  1.5813 -0.1502  2.6987
  148MOL   H19235766   1.746   1.142   3.190 -1.5239 -2.0441  1.1670
  148MOL   H19335767   1.590   1.144   3.118 -0.7391 -0.8425 -2.5917
  148MOL   O19435768   1.653   1.321   2.965 -0.2115 -0.0069  0.3669
  148MOL   C19535769   1.682   1.433   2.883 -0.2045  0.3297  0.6130
  148MOL   C19635770   1.688   1.395   2.732  0.2377 -0.2896 -0.8533
  148MOL   C19735771   1.582   1.541   2.916  0.4017 -0.2959  0.1402
  148MOL   C19835772   1.446   1.515   2.858  0.2350 -0.2809 -0.2132
  148MOL   O19935773   1.397   1.599   2.785 -0.0346  0.7507 -0.1031
  148MOL   H20035774   1.777   1.471   2.920 -0.2848  1.4028 -0.2473
  148MOL   H20135775   1.603   1.333   2.703 -0.2747  0.8597 -1.8703
  148MOL   H20235776   1.782   1.346   2.708  0.2678 -0.1987 -0.9188
  148MOL   H20335777   1.672   1.484   2.671 -0.9881  0.4246  0.4797
  148MOL   H20435778   1.619   1.635   2.874 -0.5657  1.1901  2.5249
  148MOL   H20535779   1.576   1.558   3.023 -0.9695 -0.0491  0.0368
  148MOL   O20635780   1.384   1.405   2.911  0.3134 -0.2448 -0.0698
  148MOL   C20735781   1.237   1.404   2.908 -0.4014  0.2714 -0.1917
  148MOL   C20835782   1.166   1.266   2.893  0.0305 -0.3414  0.8484
  148MOL   C20935783   1.176   1.474   3.029  0.1343 -0.6410 -0.3343
  148MOL   C21035784   1.178   1.633   3.029  0.0224  0.3437 -0.0511
  148MOL   O21135785   1.268   1.695   3.084 -0.0328  0.3130  0.7952
  148MOL   H21235786   1.203   1.461   2.822 -0.7098 -0.1651 -0.3585
  148MOL   H21335787   1.072   1.268   2.837  0.6644  0.5935 -0.2066
  148MOL   H21435788   1.141   1.215   2.986 -3.3959  1.7207  1.1491
  148MOL   H21535789   1.227   1.194   2.839 -1.8734 -0.8668 -0.6492
  148MOL   H21635790   1.219   1.432   3.120 -0.8117  0.9937  0.9006
  148MOL   H21735791   1.071   1.445   3.028 -0.5472  1.6278  1.4502
  148MOL   O21835792   1.084   1.684   2.948 -0.1483 -0.6559 -0.5985
  148MOL   C21935793   1.082   1.821   2.901 -0.1353  0.6447  0.3035
  148MOL   C22035794   1.134   1.808   2.756 -0.2997 -0.3372 -0.4522
  148MOL   C22135795   0.947   1.889   2.913 -0.0842  0.2099 -0.2662
  148MOL   C22235796   0.901   1.934   3.047  0.2327  0.4855  0.1743
  148MOL   O22335797   0.957   1.903   3.154 -1.0041  0.2195  0.4395
  148MOL   H22435798   1.152   1.874   2.966  0.9262 -0.5372  0.1360
  148MOL   H22535799   1.089   1.724   2.705 -0.5642  0.4017 -1.4470
  148MOL   H22635800   1.240   1.782   2.747 -0.5398 -1.3820 -0.2655
  148MOL   H22735801   1.123   1.890   2.685 -0.2761  0.5943  0.6020
  148MOL   H22835802   0.868   1.817   2.895  0.1680 -0.3657  0.9233
  148MOL   H22935803   0.937   1.972   2.842 -0.5790  1.1821  0.9140
  148MOL   O23035804   0.796   2.010   3.036  0.4769  0.7808  0.0639
  148MOL   C23135805   0.740   2.088   3.139 -0.5653  0.4508 -0.0391
  148MOL   C23235806   0.715   2.224   3.075 -0.6197  0.2377 -0.5682
  148MOL   C23335807   0.607   2.031   3.193 -0.0698 -0.1336  0.4006
  148MOL   C23435808   0.608   1.907   3.278 -0.4162  0.2038  0.3024
  148MOL   O23535809   0.600   1.796   3.228 -0.0293  0.3326 -0.7450
  148MOL   H23635810   0.811   2.105   3.220  0.0907 -1.0473 -0.2733
  148MOL   H23735811   0.635   2.218   3.001 -0.4598  0.4614 -0.7597
  148MOL   H23835812   0.799   2.265   3.019  0.9019 -2.8185 -0.5840
  148MOL   H23935813   0.673   2.294   3.148  1.3984  0.5084  0.3691
  148MOL   H24035814   0.529   2.023   3.116  0.9526  2.4227 -0.9298
  148MOL   H24135815   0.568   2.109   3.258 -0.0779 -1.6253  2.2241
  148MOL   H24235816   0.618   1.935   3.383 -1.4154  3.4986 -0.4170
  149MOL     O135817   6.712   2.318   1.520 -0.1510 -0.3968 -0.0054
  149MOL     C235818   6.631   2.203   1.502  0.3922 -0.1379  0.0947
  149MOL     C335819   6.640   2.155   1.357  0.0385 -0.3464 -0.2649
  149MOL     C435820   6.678   2.107   1.611  0.4425 -0.2600 -0.5523
  149MOL     C535821   6.594   1.979   1.636  0.6178 -0.3290  0.1998
  149MOL     O635822   6.636   1.866   1.597 -0.0406  0.6185 -0.5127
  149MOL     H735823   6.526   2.233   1.511  0.1333 -0.3213 -2.0318
  149MOL     H835824   6.589   2.225   1.291 -1.3193  0.9833  2.1638
  149MOL     H935825   6.599   2.056   1.338 -0.2858 -0.1715 -0.4699
  149MOL    H1035826   6.743   2.152   1.319 -0.4002  1.1984 -1.6326
  149MOL    H1135827   6.689   2.166   1.702 -1.6939  0.0082 -0.4507
  149MOL    H1235828   6.776   2.068   1.583 -0.0714 -0.2915 -2.3471
  149MOL    H1335829   6.662   2.388   1.560  0.5105 -0.6908  1.3881
  149MOL    O1435830   6.471   1.998   1.706  0.2227 -0.3010  0.7811
  149MOL    C1535831   6.389   1.888   1.731 -0.2997 -0.2128 -0.5228
  149MOL    C1635832   6.417   1.853   1.878  0.2362  0.2866  0.4236
  149MOL    C1735833   6.239   1.918   1.711  0.2192  0.3386  0.0534
  149MOL    C1835834   6.200   1.950   1.566  0.1925  0.5884 -0.2573
  149MOL    O1935835   6.275   1.907   1.476 -0.0338 -0.2856  0.2718
  149MOL    H2035836   6.416   1.805   1.666 -0.6543  0.7160 -1.8785
  149MOL    H2135837   6.524   1.858   1.897  0.1729  0.7028  0.6687
  149MOL    H2235838   6.376   1.755   1.903 -1.1403  0.8562  0.4179
  149MOL    H2335839   6.381   1.922   1.954 -1.5041 -0.9275  0.7127
  149MOL    H2435840   6.223   2.013   1.763 -0.7525  1.7769 -2.8175
  149MOL    H2535841   6.170   1.843   1.749  1.2478  1.2137  3.8777
  149MOL    O2635842   6.080   2.018   1.549  0.7020  0.4131  0.2343
  149MOL    C2735843   6.031   2.042   1.417 -0.8036  0.3631 -0.0198
  149MOL    C2835844   5.884   1.997   1.409 -0.1054 -0.0488 -0.3114
  149MOL    C2935845   6.032   2.195   1.392 -0.4680  0.3960 -0.5078
  149MOL    C3035846   6.146   2.248   1.306 -0.1914  0.2043  0.5012
  149MOL    O3135847   6.212   2.340   1.344 -0.1831 -0.1258  0.0334
  149MOL    H3235848   6.093   1.997   1.340  0.0939  1.1857  0.2115
  149MOL    H3335849   5.814   2.050   1.473  0.7363 -2.6636  2.9205
  149MOL    H3435850   5.883   1.889   1.424 -0.8723  0.0217  0.1756
  149MOL    H3535851   5.855   1.995   1.304 -1.2600  0.1080 -0.0049
  149MOL    H3635852   6.033   2.242   1.490 -1.5699 -0.5343 -0.0440
  149MOL    H3735853   5.946   2.234   1.337 -1.2231 -0.2076  0.2391
  149MOL    O3835854   6.149   2.190   1.183  0.4409 -0.4685  0.0960
  149MOL    C3935855   6.257   2.205   1.093 -0.5752  0.3675 -0.1790
  149MOL    C4035856   6.296   2.065   1.044 -0.3186  0.5822  0.0845
  149MOL    C4135857   6.208   2.298   0.983  0.4148 -0.2394  0.0464
  149MOL    C4235858   6.329   2.364   0.914  0.4021  0.0515  0.1621
  149MOL    O4335859   6.437   2.308   0.896 -0.3471 -0.5368 -0.2453
  149MOL    H4435860   6.349   2.235   1.145 -0.3178  0.5616 -0.7480
  149MOL    H4535861   6.367   2.063   0.961 -2.2435  1.8752 -1.6243
  149MOL    H4635862   6.212   2.008   1.007  0.0814 -0.9419  1.4757
  149MOL    H4735863   6.340   2.005   1.124 -1.0449 -1.1702 -0.8063
  149MOL    H4835864   6.151   2.384   1.018  1.4734  0.4878  0.0220
  149MOL    H4935865   6.155   2.246   0.903  1.9698  0.8691 -1.7553
  149MOL    O5035866   6.300   2.489   0.857 -0.0352  0.4030  0.2373
  149MOL    C5135867   6.402   2.570   0.795  0.3894 -0.2939 -0.0852
  149MOL    C5235868   6.377   2.575   0.642 -0.1566  0.3187  1.0632
  149MOL    C5335869   6.398   2.714   0.859  0.9137  0.0663  0.1685
  149MOL    C5435870   6.451   2.716   1.007 -0.3373 -0.0491  0.0232
  149MOL    O5535871   6.408   2.802   1.085  0.5029 -0.4348  0.2938
  149MOL    H5635872   6.501   2.526   0.799  0.6013  0.1673 -0.2460
  149MOL    H5735873   6.383   2.474   0.602 -0.6266  1.1715 -1.2168
  149MOL    H5835874   6.448   2.626   0.576  1.9032 -1.4820  1.8280
  149MOL    H5935875   6.276   2.611   0.622 -0.3519 -0.0827  1.3148
  149MOL    H6035876   6.298   2.752   0.836  1.6736  1.0870 -1.5257
  149MOL    H6135877   6.474   2.765   0.800  0.2251  0.5507 -0.3038
  149MOL    O6235878   6.531   2.614   1.041  0.3205 -0.2974 -0.5680
  149MOL    C6335879   6.586   2.589   1.177  0.4003 -0.0431 -0.6072
  149MOL    C6435880   6.478   2.565   1.288  0.5289 -0.3384 -0.8754
  149MOL    C6535881   6.663   2.463   1.149  0.3235 -0.4228  0.3381
  149MOL    C6635882   6.792   2.487   1.069 -1.1489  0.0604 -0.0452
  149MOL    O6735883   6.825   2.421   0.974  0.7292 -0.1426 -0.6731
  149MOL    H6835884   6.655   2.668   1.208 -0.9693 -0.1745  3.0301
  149MOL    H6935885   6.430   2.657   1.324 -1.7924 -1.6818 -0.4626
  149MOL    H7035886   6.529   2.507   1.366 -0.5998 -2.3752 -1.6299
  149MOL    H7135887   6.395   2.504   1.253  0.0480  0.5026 -1.2208
  149MOL    H7235888   6.592   2.396   1.101 -1.4962  1.7324 -0.0655
  149MOL    H7335889   6.687   2.405   1.238  0.5765 -0.2922  0.3565
  149MOL    O7435890   6.869   2.584   1.130  0.0139 -0.0807  0.6364
  149MOL    C7535891   6.998   2.625   1.077  0.5427 -0.1163 -0.7696
  149MOL    C7635892   7.035   2.759   1.142  0.1948  0.5680 -0.0618
  149MOL    C7735893   7.098   2.512   1.106 -0.5438  0.0165  0.4791
  149MOL    C7835894   7.246   2.538   1.085 -0.2499  0.3034 -0.1612
  149MOL    O7935895   7.284   2.618   0.994 -0.1303 -0.2584 -0.5902
  149MOL    H8035896   6.995   2.640   0.969  0.5114  1.4433 -0.5551
  149MOL    H8135897   7.034   2.772   1.250  2.5405  0.8867 -0.0434
  149MOL    H8235898   6.969   2.834   1.099 -1.7611 -0.6879  0.6974
  149MOL    H8335899   7.138   2.788   1.122  0.9574 -0.7213  1.8973
  149MOL    H8435900   7.081   2.415   1.058 -0.3937  0.8415 -1.2657
  149MOL    H8535901   7.087   2.482   1.211  1.3035  1.7786  1.1981
  149MOL    O8635902   7.330   2.486   1.171  0.1172 -0.3284 -0.9890
  149MOL    C8735903   7.461   2.520   1.165 -0.2287  0.1238 -0.2870
  149MOL    C8835904   7.501   2.654   1.241  0.0497  0.0206 -0.5356
  149MOL    C8935905   7.550   2.393   1.210 -0.8437  0.1355 -0.1332
  149MOL    C9035906   7.521   2.344   1.354  0.4970 -0.4994  0.2058
  149MOL    O9135907   7.466   2.236   1.365  0.2527  0.9328  0.3004
  149MOL    H9235908   7.482   2.528   1.059 -0.4930 -2.6967 -0.5980
  149MOL    H9335909   7.600   2.694   1.219 -0.3644  1.9263  1.0131
  149MOL    H9435910   7.478   2.659   1.347  0.5347  0.4464 -0.4473
  149MOL    H9535911   7.441   2.738   1.207  3.1107  2.9161  0.8957
  149MOL    H9635912   7.658   2.409   1.214 -0.3184 -2.9640 -0.8820
  149MOL    H9735913   7.520   2.308   1.150 -1.1726 -0.2044  0.5153
  149MOL    O9835914   7.556   2.427   1.451 -0.5479  0.7580 -0.5669
  149MOL    C9935915   7.514   2.401   1.583 -0.1879 -0.1001  0.5577
  149MOL   C10035916   7.611   2.303   1.649 -0.8010  0.2738  0.3941
  149MOL   C10135917   7.491   2.549   1.638 -0.0388  0.3475  0.5478
  149MOL   C10235918   7.410   2.555   1.770  0.2464  0.6540 -0.7580
  149MOL   O10335919   7.328   2.643   1.788  0.3719 -0.7993 -0.2850
  149MOL   H10435920   7.418   2.350   1.596  0.1746 -0.9603 -0.1181
  149MOL   H10535921   7.585   2.300   1.754 -2.5851  1.0867  0.0080
  149MOL   H10635922   7.715   2.328   1.626 -0.7793 -0.7433 -0.6816
  149MOL   H10735923   7.605   2.204   1.604 -2.1436  0.4534  0.1406
  149MOL   H10835924   7.444   2.612   1.563 -0.8208  0.9662  1.5414
  149MOL   H10935925   7.592   2.586   1.656  0.2278 -0.1190  0.0115
  149MOL   O11035926   7.434   2.454   1.859  0.0793 -0.5051 -0.0293
  149MOL   C11135927   7.368   2.449   1.984 -0.1057  0.0924 -0.4695
  149MOL   C11235928   7.274   2.328   1.996  0.1251  0.2868 -0.1083
  149MOL   C11335929   7.490   2.444   2.085  0.0568  0.3710 -0.5392
  149MOL   C11435930   7.570   2.315   2.081  0.7843 -0.0740  0.1061
  149MOL   O11535931   7.665   2.297   2.008  1.1197  0.1420 -0.0187
  149MOL   H11635932   7.307   2.535   2.009 -0.5211 -0.1334 -0.6995
  149MOL   H11735933   7.328   2.236   1.974  1.6698  0.3392  3.1761
  149MOL   H11835934   7.182   2.340   1.939 -0.6666  2.5088  1.5984
  149MOL   H11935935   7.247   2.322   2.101 -0.5831  2.7155 -0.1302
  149MOL   H12035936   7.461   2.459   2.189  0.3724  0.0414 -0.4018
  149MOL   H12135937   7.559   2.520   2.047  0.1288  0.7342  0.3064
  149MOL   O12235938   7.522   2.218   2.168  0.3169  0.2326 -0.2512
  149MOL   C12335939   7.567   2.088   2.153  0.2331 -0.1786 -0.0707
  149MOL   C12435940   7.669   2.055   2.272  0.1319 -0.1513  0.6504
  149MOL   C12535941   7.451   1.986   2.118  0.1496  0.3502 -0.2427
  149MOL   C12635942   7.348   1.963   2.222 -0.1439 -0.4057 -0.2799
  149MOL   O12735943   7.334   1.853   2.285 -0.4832  0.2994  0.4219
  149MOL   H12835944   7.625   2.067   2.063  0.5498 -0.8921  0.3000
  149MOL   H12935945   7.745   2.133   2.266 -1.2553  1.1799  0.3717
  149MOL   H13035946   7.712   1.958   2.246 -2.1676 -0.9146 -0.4233
  149MOL   H13135947   7.626   2.051   2.371  0.7678  0.2183  0.9482
  149MOL   H13235948   7.496   1.889   2.101 -1.4438 -0.3902 -0.2696
  149MOL   H13335949   7.409   1.995   2.018  0.3764 -0.9240 -0.4501
  149MOL   O13435950   7.281   2.076   2.240 -0.0926 -0.0593 -0.0417
  149MOL   C13535951   7.160   2.076   2.315 -0.4323  0.0706  0.0722
  149MOL   C13635952   7.185   2.193   2.413 -0.4892  0.5602  0.0244
  149MOL   C13735953   7.036   2.097   2.228  0.0359 -0.3821 -0.4495
  149MOL   C13835954   6.998   1.984   2.135  0.2240  0.0662 -0.2109
  149MOL   O13935955   6.924   1.890   2.176  0.5138 -0.5700  0.0043
  149MOL   H14035956   7.155   1.982   2.368  0.4472 -0.3589 -0.5918
  149MOL   H14135957   7.291   2.199   2.439  0.2188 -0.6541 -2.3887
  149MOL   H14235958   7.123   2.162   2.497 -1.9185 -0.1494 -1.2594
  149MOL   H14335959   7.177   2.290   2.364  0.1229  0.5916 -0.0151
  149MOL   H14435960   7.037   2.193   2.176 -2.9688 -0.4481 -0.7062
  149MOL   H14535961   6.952   2.124   2.293  1.7177 -1.0251  2.0673
  149MOL   O14635962   7.039   1.996   2.007  0.1088 -0.3568  0.0309
  149MOL   C14735963   7.031   1.882   1.919  0.5379 -0.2219  0.7335
  149MOL   C14835964   6.902   1.908   1.835  0.3066  0.2257  0.6872
  149MOL   C14935965   7.161   1.859   1.831  0.5883 -0.3083  0.3300
  149MOL   C15035966   7.202   1.985   1.760 -0.2854 -0.3043 -0.0833
  149MOL   O15135967   7.299   2.048   1.795  0.4092 -0.4025  0.3627
  149MOL   H15235968   7.015   1.789   1.974  2.2330  0.2120  2.0209
  149MOL   H15335969   6.892   1.839   1.751 -0.4671  1.7583 -0.5080
  149MOL   H15435970   6.896   2.010   1.797 -0.1643 -0.0029  0.1338
  149MOL   H15535971   6.819   1.879   1.900  0.6487  0.6822  1.3303
  149MOL   H15635972   7.143   1.778   1.761  1.4025  0.4699 -0.8046
  149MOL   H15735973   7.239   1.829   1.900  0.8371  0.7047  0.5005
  149MOL   O15835974   7.136   2.000   1.642  0.0823  0.3592  0.3539
  149MOL   C15935975   7.167   2.101   1.549  0.0886  0.1462 -0.5260
  149MOL   C16035976   7.154   2.036   1.418 -0.9647  0.0466 -0.5847
  149MOL   C16135977   7.061   2.209   1.577 -0.1890  0.6419 -0.2267
  149MOL   C16235978   7.091   2.347   1.522  1.1856 -0.7050  0.5099
  149MOL   O16335979   7.161   2.361   1.422  0.0969 -0.0021  0.0692
  149MOL   H16435980   7.271   2.131   1.559  0.3804 -1.1817  0.5255
  149MOL   H16535981   7.051   2.001   1.412 -1.4726  2.0011 -4.1603
  149MOL   H16635982   7.227   1.955   1.415  0.9585  1.7369 -0.3116
  149MOL   H16735983   7.177   2.114   1.346 -1.1505  2.1659  1.5853
  149MOL   H16835984   7.044   2.216   1.685 -2.3455 -1.9219 -0.3387
  149MOL   H16935985   6.961   2.179   1.544 -1.1604  0.3146  2.8536
  149MOL   O17035986   7.020   2.439   1.591 -0.1233 -0.7908 -0.0061
  149MOL   C17135987   7.006   2.573   1.553  0.1514  0.0249 -0.0719
  149MOL   C17235988   6.886   2.595   1.450 -0.0569  0.4769 -0.4043
  149MOL   C17335989   6.983   2.659   1.676 -0.0330  0.0647 -0.4108
  149MOL   C17435990   6.868   2.624   1.773 -0.3005 -0.3835  0.4242
  149MOL   O17535991   6.760   2.674   1.770 -0.3128 -0.0640  0.0068
  149MOL   H17635992   7.098   2.597   1.501  0.7962  0.5312  1.2748
  149MOL   H17735993   6.883   2.692   1.402 -0.2680  0.9026  0.4644
  149MOL   H17835994   6.793   2.597   1.507 -0.4916  0.4144 -1.1015
  149MOL   H17935995   6.878   2.516   1.375 -0.6498 -1.5351  1.7220
  149MOL   H18035996   6.962   2.760   1.639  1.1027  0.2896 -0.4568
  149MOL   H18135997   7.073   2.661   1.738 -1.8811 -2.2267  2.4656
  149MOL   O18235998   6.905   2.527   1.865  0.7399 -0.2296  0.1139
  149MOL   C18335999   6.808   2.481   1.962 -0.3672  0.3166  0.0301
  149MOL   C18436000   6.830   2.328   1.971  0.7299  0.8709  0.0336
  149MOL   C18536001   6.818   2.528   2.104  0.3295  0.2606  0.3161
  149MOL   C18636002   6.761   2.668   2.126 -0.6433 -0.4144  0.7855
  149MOL   O18736003   6.839   2.760   2.159 -0.1766  0.2969  0.2203
  149MOL   H18836004   6.708   2.498   1.922 -0.5733  1.3789  0.9866
  149MOL   H18936005   6.936   2.304   1.957  0.1854 -0.2280 -2.4440
  149MOL   H19036006   6.782   2.286   1.883 -0.9760  2.5660  0.1150
  149MOL   H19136007   6.792   2.281   2.062  0.9215 -0.9739 -0.8177
  149MOL   H19236008   6.923   2.527   2.132  0.7086  0.5102 -1.0521
  149MOL   H19336009   6.761   2.465   2.173  3.8175 -0.8171  2.3394
  149MOL   O19436010   6.628   2.679   2.102 -0.4233  0.4617 -0.3477
  149MOL   C19536011   6.571   2.809   2.111  1.3782 -0.7763 -0.4350
  149MOL   C19636012   6.567   2.880   1.974  0.5190 -0.2990  0.1559
  149MOL   C19736013   6.421   2.768   2.162 -0.5458  0.5838 -0.1349
  149MOL   C19836014   6.348   2.875   2.245  0.0870  0.3997 -0.6985
  149MOL   O19936015   6.254   2.854   2.328  0.0386  0.1149  0.0899
  149MOL   H20036016   6.622   2.869   2.187  1.3350 -1.5708  0.2264
  149MOL   H20136017   6.557   2.817   1.886 -0.1878 -1.8480  1.3367
  149MOL   H20236018   6.661   2.933   1.957  0.2247 -0.8083 -3.4361
  149MOL   H20336019   6.486   2.952   1.986 -0.4273 -1.3172 -0.0985
  149MOL   H20436020   6.436   2.702   2.248  2.5003  1.5323  0.1294
  149MOL   H20536021   6.358   2.711   2.095  0.4239 -1.1191  0.3654
  149MOL   O20636022   6.384   2.997   2.211  0.4054  0.0747  0.3070
  149MOL   C20736023   6.333   3.109   2.279  0.0999 -0.1539 -0.3912
  149MOL   C20836024   6.410   3.130   2.418  0.1877  0.1401 -0.3722
  149MOL   C20936025   6.358   3.235   2.190  0.2946  0.6728  0.0654
  149MOL   C21036026   6.268   3.354   2.217 -0.5719 -0.1207  0.4549
  149MOL   O21136027   6.302   3.432   2.306 -0.2038 -0.0503 -0.2768
  149MOL   H21236028   6.228   3.086   2.297  0.0139  2.4111  2.6741
  149MOL   H21336029   6.391   3.046   2.485  2.3136 -0.7390 -0.8489
  149MOL   H21436030   6.379   3.217   2.476  2.0986 -0.9960  2.4619
  149MOL   H21536031   6.518   3.129   2.404  0.1599  0.8579 -0.6793
  149MOL   H21636032   6.334   3.202   2.089  0.2005 -0.2382  0.3799
  149MOL   H21736033   6.464   3.259   2.193 -0.0912  2.4177  0.2954
  149MOL   O21836034   6.141   3.353   2.167 -0.1260  0.4762  0.5455
  149MOL   C21936035   6.060   3.473   2.150  0.3036 -0.1006 -0.2354
  149MOL   C22036036   6.083   3.522   2.011  0.0515 -0.1795 -0.2109
  149MOL   C22136037   5.913   3.451   2.196 -0.2087 -0.6473  0.7755
  149MOL   C22236038   5.829   3.361   2.103  0.1006 -0.1700  0.8040
  149MOL   O22336039   5.878   3.289   2.017 -0.2942 -0.1672  0.3216
  149MOL   H22436040   6.109   3.550   2.210 -0.8848  1.6329 -1.4431
  149MOL   H22536041   6.187   3.555   2.013 -0.0237  0.0692 -0.3240
  149MOL   H22636042   6.026   3.613   1.995 -0.3413 -0.3497  0.1822
  149MOL   H22736043   6.063   3.449   1.933 -1.1507  0.4645 -0.5200
  149MOL   H22836044   5.874   3.552   2.210 -1.9545 -0.8684 -2.0043
  149MOL   H22936045   5.912   3.412   2.297 -2.1114 -1.0149  0.6221
  149MOL   O23036046   5.693   3.373   2.138  0.3171  0.3235  0.0392
  149MOL   C23136047   5.591   3.333   2.047 -0.1415  0.3485  0.5997
  149MOL   C23236048   5.519   3.206   2.109 -0.4582  0.1521 -0.4134
  149MOL   C23336049   5.490   3.454   2.040  0.0278 -0.5116  0.3450
  149MOL   C23436050   5.352   3.439   1.978 -0.7085  0.1123 -0.0103
  149MOL   O23536051   5.254   3.419   2.056 -0.1826 -0.2497  0.4549
  149MOL   H23636052   5.620   3.305   1.946 -0.7581 -0.6515  0.6978
  149MOL   H23736053   5.430   3.178   2.052  0.1763 -1.5476 -0.6011
  149MOL   H23836054   5.492   3.224   2.213  0.0199  2.1164 -0.6094
  149MOL   H23936055   5.577   3.114   2.110 -0.9657 -0.1907  2.8449
  149MOL   H24036056   5.556   3.532   2.002  1.0348 -0.2919  2.4811
  149MOL   H24136057   5.480   3.478   2.146 -2.0215 -0.6597  0.1974
  149MOL   H24236058   5.340   3.453   1.870  3.0787 -1.1746 -0.7039
  150MOL     O136059   1.641   5.021   7.947  0.0422 -0.5331 -0.6904
  150MOL     C236060   1.660   5.158   7.929  0.0867 -0.1012  0.3904
  150MOL     C336061   1.596   5.227   0.070  0.0373 -0.0102  0.3477
  150MOL     C436062   1.812   5.187   7.912 -0.0645 -1.1156 -0.2454
  150MOL     C536063   1.871   5.324   7.902  0.4336  0.2597 -0.5156
  150MOL     O636064   1.814   5.428   7.913 -0.0914 -0.4699 -0.3901
  150MOL     H736065   1.601   5.191   7.843  1.0785  1.6157  0.3443
  150MOL     H836066   1.647   5.204   0.164 -0.2628  0.7411  0.6950
  150MOL     H936067   1.490   5.202   0.078  0.4955 -1.3787  2.9845
  150MOL    H1036068   1.593   5.334   0.050  2.4605  0.3291  1.5585
  150MOL    H1136069   1.847   5.138   7.821  2.3669 -0.4545  0.3059
  150MOL    H1236070   1.867   5.144   0.016  1.4223 -0.0688 -0.6763
  150MOL    H1336071   1.599   4.981   7.872 -0.9930 -0.7083 -0.0222
  150MOL    O1436072   2.001   5.303   7.891 -0.1868  0.2624  0.1099
  150MOL    C1536073   2.092   5.412   7.887  0.2228 -0.9382  0.3794
  150MOL    C1636074   2.119   5.449   0.058  0.4543 -0.2263  0.2070
  150MOL    C1736075   2.200   5.368   7.791 -0.4192 -0.5657 -1.0072
  150MOL    C1836076   2.299   5.475   7.756 -0.0242  0.5012 -0.0089
  150MOL    O1936077   2.281   5.535   7.654  0.1005 -0.2122  0.3796
  150MOL    H2036078   2.038   5.498   7.845  1.6889  0.7278  1.8369
  150MOL    H2136079   2.208   5.505   0.084 -0.1584  0.2258  1.3652
  150MOL    H2236080   2.142   5.354   0.104  0.3881 -0.8215 -0.9639
  150MOL    H2336081   2.034   5.492   0.112 -0.0146  0.5132 -1.0770
  150MOL    H2436082   2.156   5.341   7.695 -0.4890 -2.3978 -0.4769
  150MOL    H2536083   2.249   5.277   7.824  0.7052 -1.2471 -4.2736
  150MOL    O2636084   2.397   5.489   7.849 -0.1789 -0.3159  0.2252
  150MOL    C2736085   2.510   5.583   7.835 -0.0791  0.0273 -0.3363
  150MOL    C2836086   2.516   5.671   7.960 -0.5554  0.2680 -0.4297
  150MOL    C2936087   2.645   5.508   7.811 -0.0734 -0.0988  0.0397
  150MOL    C3036088   2.651   5.463   7.668  0.2363 -0.7450 -0.1765
  150MOL    O3136089   2.561   5.402   7.607  0.4124 -0.4173  0.2652
  150MOL    H3236090   2.491   5.636   7.742  0.5552 -0.7268 -0.8978
  150MOL    H3336091   2.423   5.724   0.001  1.5189  4.4167 -1.1157
  150MOL    H3436092   2.586   5.754   7.946 -1.3186  1.2753  1.5531
  150MOL    H3536093   2.552   5.614   0.066 -1.0517 -0.6668 -0.8397
  150MOL    H3636094   2.652   5.428   7.884  2.3259  0.7231  0.7395
  150MOL    H3736095   2.727   5.572   7.842 -1.1713  1.2398  0.2245
  150MOL    O3836096   2.772   5.478   7.611 -0.4440 -0.7800  0.7046
  150MOL    C3936097   2.793   5.443   7.476 -0.3102 -0.5974  0.6052
  150MOL    C4036098   2.800   5.578   7.395 -0.1412  0.2765  0.2200
  150MOL    C4136099   2.923   5.356   7.479 -0.2520 -0.5904 -0.4705
  150MOL    C4236100   2.902   5.220   7.550  0.1192  0.1460  0.6996
  150MOL    O4336101   2.791   5.172   7.573  0.0642  0.1710 -0.3047
  150MOL    H4436102   2.715   5.384   7.429 -1.3178  2.7743 -2.0832
  150MOL    H4536103   2.701   5.620   7.412  0.0192  1.8102 -2.2843
  150MOL    H4636104   2.833   5.564   7.292 -3.3501 -3.4428 -0.3984
  150MOL    H4736105   2.856   5.662   7.438  0.2792 -1.5635  3.4193
  150MOL    H4836106   3.001   5.406   7.536 -0.2851  2.3591 -2.9121
  150MOL    H4936107   2.947   5.333   7.375 -0.9166 -1.2051 -0.4946
  150MOL    O5036108   3.018   5.156   7.577 -0.3467 -0.4217 -0.0637
  150MOL    C5136109   3.027   5.030   7.630 -0.0937 -0.6921 -0.6319
  150MOL    C5236110   3.099   4.934   7.535 -0.7490  0.2037 -0.7309
  150MOL    C5336111   3.090   5.041   7.771 -0.3619 -0.1908  0.0712
  150MOL    C5436112   2.997   5.103   7.880  0.2681  0.0648  0.1655
  150MOL    O5536113   2.877   5.089   7.882  0.3406 -0.1538 -0.2927
  150MOL    H5636114   2.931   4.980   7.640 -0.3817 -0.1999 -0.9016
  150MOL    H5736115   3.103   4.832   7.574  0.7412  0.1987 -0.8508
  150MOL    H5836116   3.193   4.974   7.499 -1.4792  1.0881 -1.6528
  150MOL    H5936117   3.046   4.931   7.440 -1.4627 -1.3334 -0.3012
  150MOL    H6036118   3.185   5.093   7.777 -0.4759  0.0298 -0.0312
  150MOL    H6136119   3.114   4.943   7.811  1.8005 -0.2089 -1.2245
  150MOL    O6236120   3.059   5.174   7.976  0.0959 -0.1070  0.2140
  150MOL    C6336121   2.987   5.213   0.114  0.4954 -1.3271  0.8829
  150MOL    C6436122   3.085   5.218   0.232 -0.3393  0.8214 -0.4212
  150MOL    C6536123   2.926   5.358   0.089  0.3625 -0.7415  0.1208
  150MOL    C6636124   2.848   5.405   0.210  0.3674 -0.7100  0.4078
  150MOL    O6736125   2.877   5.512   0.260  0.4327  0.7060  0.0130
  150MOL    H6836126   2.904   5.146   0.136  0.8368 -0.9887  3.3687
  150MOL    H6936127   3.138   5.123   0.239 -1.7743  0.1664  2.4788
  150MOL    H7036128   3.042   5.254   0.326 -1.2019  1.7819 -1.1664
  150MOL    H7136129   3.158   5.297   0.214  1.0387  0.2509  2.3586
  150MOL    H7236130   2.850   5.353   0.011 -0.4262 -0.9774  0.8987
  150MOL    H7336131   3.002   5.432   0.064  1.6020 -2.2154 -0.6090
  150MOL    O7436132   2.739   5.322   0.245 -0.3318 -0.0318  0.3813
  150MOL    C7536133   2.660   5.344   0.364  0.4568  0.4209 -0.2290
  150MOL    C7636134   2.512   5.309   0.342  0.3675 -1.1537  0.1693
  150MOL    C7736135   2.715   5.252   0.477 -0.3825 -0.0229 -0.2720
  150MOL    C7836136   2.688   5.285   0.621  0.5755 -0.5232  0.4949
  150MOL    O7936137   2.623   5.213   0.698  0.4223  0.2283 -0.3086
  150MOL    H8036138   2.667   5.448   0.397 -2.2628  0.3291  0.7741
  150MOL    H8136139   2.491   5.206   0.313 -0.8289 -0.8613 -0.0267
  150MOL    H8236140   2.473   5.357   0.252  1.0771 -1.6303 -0.3957
  150MOL    H8336141   2.452   5.334   0.430  0.0877 -0.7994 -0.1208
  150MOL    H8436142   2.823   5.259   0.474 -0.0847 -3.1771  1.3411
  150MOL    H8536143   2.688   5.147   0.463 -1.9944  0.3690 -0.2951
  150MOL    O8636144   2.742   5.405   0.657 -0.3652  0.2051  0.0041
  150MOL    C8736145   2.702   5.469   0.782 -0.6660 -0.7586 -0.0600
  150MOL    C8836146   2.829   5.540   0.848 -0.8537  0.4163 -0.1236
  150MOL    C8936147   2.580   5.567   0.775 -0.9498 -0.2458  0.3470
  150MOL    C9036148   2.529   5.630   0.905 -0.5567  0.0086 -0.3153
  150MOL    O9136149   2.477   5.568   0.996  0.2290  0.1214  0.2945
  150MOL    H9236150   2.692   5.392   0.859  1.3255 -0.6824  0.3205
  150MOL    H9336151   2.805   5.573   0.949  0.8414  0.1818  0.3775
  150MOL    H9436152   2.845   5.630   0.788  0.2781 -1.3286 -2.5460
  150MOL    H9536153   2.914   5.472   0.859 -0.8018  0.1443 -1.9996
  150MOL    H9636154   2.498   5.502   0.744  0.3685 -0.9655 -1.7131
  150MOL    H9736155   2.595   5.639   0.695  0.4175 -0.2024  0.6343
  150MOL    O9836156   2.532   5.768   0.907 -0.4425  0.5433  0.2784
  150MOL    C9936157   2.456   5.843   0.998 -0.9025  0.1976 -0.2619
  150MOL   C10036158   2.529   5.858   1.134  0.6763 -0.0300  0.0142
  150MOL   C10136159   2.445   5.983   0.936  0.0354 -0.1216  0.4028
  150MOL   C10236160   2.327   6.068   0.981  0.9232 -0.0131  0.8744
  150MOL   O10336161   2.267   6.044   1.085  0.1320  0.2070  0.5867
  150MOL   H10436162   2.356   5.801   1.001 -1.7780  2.3609  2.9613
  150MOL   H10536163   2.534   5.765   1.192  0.2982 -0.1313 -0.1144
  150MOL   H10636164   2.501   5.933   1.208  3.0476 -0.1389  1.0828
  150MOL   H10736165   2.634   5.882   1.120  0.6547  0.0109 -0.0740
  150MOL   H10836166   2.449   5.967   0.828 -1.6703  1.0571  0.1378
  150MOL   H10936167   2.533   6.044   0.957  1.1778 -0.3891 -3.2868
  150MOL   O11036168   2.286   6.151   0.881  0.3413 -0.2580  0.3556
  150MOL   C11136169   2.163   6.224   0.885 -0.0744  0.8758  0.8178
  150MOL   C11236170   2.173   6.367   0.834 -0.3610 -0.2577  0.2859
  150MOL   C11336171   2.058   6.153   0.799  0.0732 -0.8925 -0.6602
  150MOL   C11436172   2.088   6.140   0.648 -0.0824  0.0732  0.2188
  150MOL   O11536173   2.137   6.038   0.604 -0.3655  0.1069  0.1318
  150MOL   H11636174   2.122   6.234   0.985 -2.7764  0.7494 -0.2476
  150MOL   H11736175   2.212   6.368   0.732 -1.8632 -1.0143 -0.3108
  150MOL   H11836176   2.231   6.427   0.904  1.6628 -1.5393 -0.2554
  150MOL   H11936177   2.071   6.403   0.847  0.1409  1.2960 -0.0022
  150MOL   H12036178   1.963   6.203   0.817  1.0767  0.6178  0.6221
  150MOL   H12136179   2.054   6.050   0.837 -0.3215 -1.0614 -1.1613
  150MOL   O12236180   2.040   6.251   0.574  0.0254 -0.7535  0.0760
  150MOL   C12336181   2.057   6.258   0.433 -0.9098 -0.4602  0.0294
  150MOL   C12436182   1.943   6.335   0.365  0.6827  0.9635  0.1977
  150MOL   C12536183   2.197   6.326   0.400  0.5189 -0.1994  0.0094
  150MOL   C12636184   2.200   6.481   0.422 -0.2079  0.6059  0.2678
  150MOL   O12736185   2.256   6.525   0.519 -0.3227  0.1842  0.5393
  150MOL   H12836186   2.062   6.161   0.385  0.8094  0.5710 -1.9449
  150MOL   H12936187   1.961   6.363   0.261 -1.7964  1.8929 -0.0311
  150MOL   H13036188   1.916   6.425   0.421 -0.5662  0.0916  1.0374
  150MOL   H13136189   1.855   6.271   0.377  0.0921  1.8026  0.3839
  150MOL   H13236190   2.211   6.308   0.294 -1.0224  0.9524 -0.4036
  150MOL   H13336191   2.282   6.289   0.458 -0.0675 -0.9337  0.4087
  150MOL   O13436192   2.145   6.544   0.325 -0.3056 -0.4510  0.1201
  150MOL   C13536193   2.141   6.685   0.318  0.0405 -0.7269  0.5353
  150MOL   C13636194   2.239   6.719   0.208 -0.0208  0.2027 -0.3717
  150MOL   C13736195   1.997   6.733   0.293  0.3395  0.1762  1.2951
  150MOL   C13836196   1.926   6.751   0.423 -0.1964  0.0233  0.4607
  150MOL   O13936197   1.811   6.702   0.433 -0.1120 -0.3250  0.3537
  150MOL   H14036198   2.188   6.727   0.407  0.7890 -3.0119  1.2444
  150MOL   H14136199   2.248   6.826   0.188 -0.2353  0.1843 -0.5696
  150MOL   H14236200   2.214   6.667   0.115  1.7515  1.4262 -1.5676
  150MOL   H14336201   2.341   6.700   0.241 -0.7058 -0.8979  1.1347
  150MOL   H14436202   1.951   6.657   0.230 -0.3149  0.1849  1.7515
  150MOL   H14536203   1.992   6.827   0.238 -0.3668 -0.7737 -0.3102
  150MOL   O14636204   1.991   6.829   0.507  0.0067 -0.1075  0.2205
  150MOL   C14736205   1.951   6.836   0.644 -0.8345  0.2807 -0.5914
  150MOL   C14836206   2.045   6.733   0.711 -0.6075 -0.5723  0.1809
  150MOL   C14936207   1.982   6.974   0.710 -0.2192 -0.2301  0.2438
  150MOL   C15036208   1.913   7.095   0.642 -0.3548 -0.2568  0.0552
  150MOL   O15136209   1.855   7.083   0.535 -0.4545  0.9977  0.3398
  150MOL   H15236210   1.847   6.807   0.659 -1.0054  1.4594  0.6160
  150MOL   H15336211   2.038   6.626   0.692  1.3273 -0.5470 -0.9031
  150MOL   H15436212   2.017   6.735   0.816  1.1506 -2.7830  0.7335
  150MOL   H15536213   2.149   6.762   0.693 -1.0318  2.0709  1.7019
  150MOL   H15636214   2.086   7.006   0.704  0.2884 -1.7813  0.4679
  150MOL   H15736215   1.950   6.978   0.814  3.1964  0.6539  1.3286
  150MOL   O15836216   1.914   7.212   0.717 -0.2262 -0.3011  0.6099
  150MOL   C15936217   1.885   7.327   0.659  0.0092 -0.4356 -0.1688
  150MOL   C16036218   1.740   7.365   0.706  0.0166 -0.4205  0.3342
  150MOL   C16136219   1.987   7.434   0.698  0.0396  0.3055 -0.0522
  150MOL   C16236220   2.132   7.425   0.644 -0.4365  0.5744 -0.0848
  150MOL   O16336221   2.165   7.378   0.534  0.1099  0.6146 -0.2001
  150MOL   H16436222   1.882   7.323   0.550  1.3828  0.4395 -0.2510
  150MOL   H16536223   1.721   7.353   0.813 -0.6612 -1.4509  0.1028
  150MOL   H16636224   1.660   7.325   0.643  0.2359  1.3357 -1.0739
  150MOL   H16736225   1.721   7.471   0.694 -0.3658 -0.5029  0.2024
  150MOL   H16836226   1.998   7.448   0.806 -0.6336 -0.9174  0.1899
  150MOL   H16936227   1.943   7.528   0.664 -0.8054 -0.2696 -0.5842
  150MOL   O17036228   2.222   7.480   0.729 -0.1691 -0.1096  0.2221
  150MOL   C17136229   2.359   7.449   0.733  0.6373 -0.2399  0.0912
  150MOL   C17236230   2.419   7.565   0.654  0.0158 -0.1910  0.0177
  150MOL   C17336231   2.396   7.457   0.880  0.4927  0.5385 -0.6689
  150MOL   C17436232   2.358   7.332   0.959  0.0227 -0.2960 -0.5247
  150MOL   O17536233   2.246   7.282   0.951 -0.0342  0.1638 -0.3855
  150MOL   H17636234   2.389   7.359   0.679  0.2189 -1.3917  1.7449
  150MOL   H17736235   2.528   7.555   0.644 -0.1200 -2.3206  0.3778
  150MOL   H17836236   2.411   7.664   0.698  0.8944 -0.1726  0.1501
  150MOL   H17936237   2.378   7.572   0.554  2.3691  1.0734 -0.9030
  150MOL   H18036238   2.342   7.534   0.935  1.7843  1.3415 -0.4898
  150MOL   H18136239   2.504   7.474   0.882  0.3216  1.7025 -0.5966
  150MOL   O18236240   2.460   7.280   1.024 -0.0189  0.0554  0.2171
  150MOL   C18336241   2.445   7.163   1.096 -0.9333 -0.4918  0.3863
  150MOL   C18436242   2.581   7.092   1.095 -0.3144  0.0338  0.4418
  150MOL   C18536243   2.382   7.194   1.232 -0.1056 -0.1548  0.0766
  150MOL   C18636244   2.456   7.288   1.333 -0.1507  0.3647  0.4276
  150MOL   O18736245   2.427   7.408   1.333  0.2010  0.6656  0.0269
  150MOL   H18836246   2.372   7.099   1.047 -3.1345  1.5465  0.9183
  150MOL   H18936247   2.602   7.084   0.988  0.3394 -1.5723  0.6773
  150MOL   H19036248   2.578   6.991   1.137  1.7306 -0.5831 -0.7796
  150MOL   H19136249   2.662   7.146   1.144  2.2119 -2.9186 -0.2960
  150MOL   H19236250   2.360   7.100   1.283  1.1636 -0.7914 -0.5197
  150MOL   H19336251   2.279   7.229   1.227 -0.1407 -0.4508 -1.7143
  150MOL   O19436252   2.552   7.217   1.407 -0.6360  0.3674 -0.1336
  150MOL   C19536253   2.637   7.279   1.508  0.1975  0.3516  0.2866
  150MOL   C19636254   2.584   7.237   1.650 -1.0287  0.2454 -0.6188
  150MOL   C19736255   2.784   7.239   1.485  0.1422 -0.2823  0.4881
  150MOL   C19836256   2.851   7.295   1.358 -0.1797  0.0972 -0.3130
  150MOL   O19936257   2.796   7.350   1.266  0.6817  0.3283  0.1938
  150MOL   H20036258   2.634   7.388   1.503  0.6734  0.3229 -0.6955
  150MOL   H20136259   2.660   7.264   1.723  0.6844  1.1986 -2.6985
  150MOL   H20236260   2.576   7.129   1.652 -0.5622  0.2309  1.3579
  150MOL   H20336261   2.484   7.279   1.665 -0.1901  1.5782  1.5756
  150MOL   H20436262   2.787   7.132   1.469 -0.0744 -0.1452 -0.4732
  150MOL   H20536263   2.837   7.264   1.578 -1.6885  0.2531  1.4207
  150MOL   O20636264   2.976   7.279   1.375  0.1162  0.0287 -0.6842
  150MOL   C20736265   3.062   7.304   1.267  0.4903  0.0372  0.5289
  150MOL   C20836266   3.180   7.385   1.308 -0.2355 -0.2188 -0.2558
  150MOL   C20936267   3.109   7.176   1.201 -0.6672 -0.3044 -0.1468
  150MOL   C21036268   3.014   7.101   1.109  0.2722  0.0733 -0.1296
  150MOL   O21136269   2.928   7.163   1.040 -0.4181 -0.2562 -0.4591
  150MOL   H21236270   3.010   7.351   1.184  2.0514 -0.5344 -0.7941
  150MOL   H21336271   3.213   7.324   1.392 -0.0421  0.0254 -0.1541
  150MOL   H21436272   3.152   7.487   1.332  0.8613 -0.6936  3.3213
  150MOL   H21536273   3.263   7.385   1.237  0.7197  0.0597  0.8582
  150MOL   H21636274   3.160   7.112   1.272 -0.0007  0.1025 -0.2529
  150MOL   H21736275   3.193   7.201   1.136 -0.0108  0.2263  0.9017
  150MOL   O21836276   3.041   6.969   1.105  0.1098 -0.1595 -0.2625
  150MOL   C21936277   2.959   6.879   1.028  0.0937  0.0757  0.3018
  150MOL   C22036278   3.014   6.875   0.887 -0.3736  0.3489 -0.0153
  150MOL   C22136279   2.969   6.751   1.117  0.8000  0.0294  0.2316
  150MOL   C22236280   2.854   6.651   1.096 -0.5865  0.3159 -0.1859
  150MOL   O22336281   2.735   6.690   1.099 -0.2106 -1.0902  0.1219
  150MOL   H22436282   2.858   6.918   1.021 -0.7715 -2.0732  0.2342
  150MOL   H22536283   3.107   6.818   0.894 -0.6471 -0.1702 -0.6123
  150MOL   H22636284   3.034   6.966   0.831 -2.3427  0.4447 -0.5969
  150MOL   H22736285   2.945   6.812   0.831 -0.4927  0.0370  0.4785
  150MOL   H22836286   2.938   6.790   1.214  1.1301  0.5894  0.1137
  150MOL   H22936287   3.072   6.717   1.129  1.8379  2.9490 -0.0366
  150MOL   O23036288   2.904   6.528   1.086  0.1182  0.2296 -0.3990
  150MOL   C23136289   2.817   6.418   1.065 -0.1707  0.8042  0.2916
  150MOL   C23236290   2.866   6.316   0.965  0.4405  0.2767  0.0236
  150MOL   C23336291   2.779   6.342   1.196  0.6350 -0.1735 -0.4062
  150MOL   C23436292   2.639   6.273   1.176 -0.0222 -0.0024  0.1828
  150MOL   O23536293   2.612   6.151   1.182  0.5738 -0.4430  0.9072
  150MOL   H23636294   2.724   6.457   1.022 -1.6602  0.0911  2.7989
  150MOL   H23736295   2.956   6.264   1.000 -0.7768 -1.4929  0.6189
  150MOL   H23836296   2.902   6.362   0.873  2.7138  2.4410  1.9510
  150MOL   H23936297   2.792   6.239   0.942  0.5854  0.5738 -1.5218
  150MOL   H24036298   2.775   6.417   1.275  0.6957  0.0411 -0.6055
  150MOL   H24136299   2.847   6.259   1.217 -0.1938 -0.6805  0.3214
  150MOL   H24236300   2.560   6.348   1.186  0.1549  0.2374 -0.1943
  151MOL     O136301   7.231   0.900   1.816  0.0083  0.1351 -0.1951
  151MOL     C236302   7.105   0.830   1.791 -0.3144 -0.5450 -0.0935
  151MOL     C336303   7.138   0.783   1.652  0.4838  0.3165  0.3863
  151MOL     C436304   7.092   0.712   1.890  0.3190  0.3749  0.3352
  151MOL     C536305   6.995   0.599   1.856 -0.7141 -0.4036  0.6126
  151MOL     O636306   7.010   0.486   1.901  0.5701  0.6818  0.5693
  151MOL     H736307   7.021   0.898   1.802 -0.4147 -0.7131  0.1550
  151MOL     H836308   7.077   0.702   1.611 -0.8322  0.6633  1.5928
  151MOL     H936309   7.229   0.724   1.660  0.6304  0.4154 -0.4973
  151MOL    H1036310   7.144   0.860   1.575  1.3769 -1.1218 -0.9898
  151MOL    H1136311   7.066   0.759   1.985 -0.0096 -0.3069  0.5880
  151MOL    H1236312   7.193   0.673   1.899  0.6314  1.5048  1.8807
  151MOL    H1336313   7.247   0.948   1.736 -0.0746 -0.7949 -0.7872
  151MOL    O1436314   6.892   0.638   1.784  0.7837 -0.3852  0.3285
  151MOL    C1536315   6.773   0.558   1.772 -0.6064  0.8173 -0.5852
  151MOL    C1636316   6.658   0.633   1.841 -0.0703  0.4151  0.6363
  151MOL    C1736317   6.746   0.522   1.619 -0.1870  0.1796 -0.6750
  151MOL    C1836318   6.712   0.641   1.529  1.1864  0.3276  0.0492
  151MOL    O1936319   6.593   0.675   1.511 -1.0082  0.5268  0.1148
  151MOL    H2036320   6.782   0.458   1.815 -2.0766  1.9629  2.5036
  151MOL    H2136321   6.560   0.618   1.796 -0.5766  2.2819  1.0777
  151MOL    H2236322   6.691   0.737   1.837  1.3651 -0.0944 -3.6287
  151MOL    H2336323   6.668   0.607   1.946 -1.4663 -1.2940  0.3696
  151MOL    H2436324   6.656   0.461   1.620 -0.4783  0.5940 -1.1196
  151MOL    H2536325   6.827   0.459   1.582  0.2930 -0.7374  1.8665
  151MOL    O2636326   6.817   0.691   1.469 -0.5767 -0.3440  0.1926
  151MOL    C2736327   6.798   0.818   1.400 -0.0244  0.4725  0.0318
  151MOL    C2836328   6.896   0.922   1.452 -0.1102  0.3802  0.0648
  151MOL    C2936329   6.821   0.805   1.240  0.0514  0.4863  0.1726
  151MOL    C3036330   6.699   0.748   1.171 -0.4983 -0.2692  0.3689
  151MOL    O3136331   6.632   0.824   1.092  0.3182  0.2817  0.0701
  151MOL    H3236332   6.695   0.846   1.417 -1.2026 -2.5878 -1.7014
  151MOL    H3336333   6.993   0.904   1.406  0.4125 -1.1484  1.7396
  151MOL    H3436334   6.915   0.930   1.559 -1.9660 -0.2248  0.4551
  151MOL    H3536335   6.873   1.020   1.409 -0.1436 -0.4708 -1.9037
  151MOL    H3636336   6.912   0.752   1.210 -0.6902 -0.1681 -0.9572
  151MOL    H3736337   6.825   0.904   1.195 -0.3242  0.3081 -0.2502
  151MOL    O3836338   6.676   0.622   1.207 -0.0782 -1.0578 -0.0738
  151MOL    C3936339   6.563   0.556   1.155  0.6536 -0.5957 -0.1323
  151MOL    C4036340   6.612   0.436   1.082 -0.0957 -0.0955 -0.0947
  151MOL    C4136341   6.470   0.524   1.265 -1.0254 -0.5081  0.2115
  151MOL    C4236342   6.332   0.487   1.201  0.3386  0.1055 -0.1141
  151MOL    O4336343   6.276   0.376   1.230 -0.2157  0.0061  0.3805
  151MOL    H4436344   6.513   0.627   1.089  0.9683 -1.1132 -0.9422
  151MOL    H4536345   6.681   0.461   1.002  1.2888 -2.0168  0.4875
  151MOL    H4636346   6.533   0.390   1.023  1.6676  2.6427 -4.8662
  151MOL    H4736347   6.667   0.371   1.150  1.0695  0.2279 -0.7226
  151MOL    H4836348   6.459   0.612   1.327  0.0692 -0.9274  1.0082
  151MOL    H4936349   6.497   0.436   1.324 -3.6992 -0.2915  1.8545
  151MOL    O5036350   6.291   0.581   1.119  0.3505 -0.2521 -0.1390
  151MOL    C5136351   6.160   0.565   1.059 -0.2004  0.1194 -0.1000
  151MOL    C5236352   6.068   0.680   1.110 -0.9419 -0.8815  0.3825
  151MOL    C5336353   6.170   0.569   0.905  0.5529  0.7292 -0.1905
  151MOL    C5436354   6.039   0.543   0.829  0.6728 -0.1554  0.9342
  151MOL    O5536355   5.947   0.472   0.874  1.0535 -0.1624  0.6136
  151MOL    H5636356   6.118   0.468   1.085 -3.0905  1.1859 -0.5975
  151MOL    H5736357   5.961   0.667   1.090 -0.8753 -0.7706 -0.0549
  151MOL    H5836358   6.109   0.775   1.076 -2.2562 -0.4887 -0.1375
  151MOL    H5936359   6.078   0.684   1.218  1.2925  0.3206  0.1637
  151MOL    H6036360   6.238   0.490   0.873  0.7248  0.9317 -0.3300
  151MOL    H6136361   6.222   0.662   0.881  1.1105  0.4251 -0.1622
  151MOL    O6236362   6.050   0.589   0.700 -0.0382 -0.6640  0.4977
  151MOL    C6336363   5.956   0.549   0.611 -0.4542  0.0469 -0.5515
  151MOL    C6436364   5.819   0.616   0.643  0.8562  0.6886  0.1564
  151MOL    C6536365   6.000   0.585   0.470 -0.3845  0.4171 -0.8061
  151MOL    C6636366   6.090   0.493   0.393 -0.0919 -0.7513 -0.4022
  151MOL    O6736367   6.141   0.394   0.439  0.3120 -0.0418  0.4361
  151MOL    H6836368   5.946   0.441   0.623  1.7394 -0.3023 -1.4677
  151MOL    H6936369   5.816   0.721   0.611  1.1717 -0.0588 -2.4667
  151MOL    H7036370   5.796   0.623   0.749  1.8776  2.3687  0.3009
  151MOL    H7136371   5.737   0.565   0.591 -0.9158  1.8286  1.7648
  151MOL    H7236372   6.026   0.689   0.455  2.3957  0.3859  3.0329
  151MOL    H7336373   5.907   0.567   0.416 -0.1124  2.1242 -1.8593
  151MOL    O7436374   6.127   0.547   0.276 -0.6213  0.2137  0.1700
  151MOL    C7536375   6.211   0.476   0.190 -0.2011 -0.8616 -0.1298
  151MOL    C7636376   6.130   0.351   0.129  0.4617  0.6379  0.0807
  151MOL    C7736377   6.245   0.578   0.080  0.0646  0.1965  0.0831
  151MOL    C7836378   6.368   0.539   7.974  0.3077 -0.3448 -0.1792
  151MOL    O7936379   6.479   0.598   0.008 -0.6313 -0.1414  0.5063
  151MOL    H8036380   6.301   0.438   0.240 -0.2247  0.5413  1.0125
  151MOL    H8136381   6.054   0.387   0.059  0.8814 -0.5890 -1.0342
  151MOL    H8236382   6.076   0.296   0.206 -0.6393  1.6208  0.0415
  151MOL    H8336383   6.199   0.294   0.068  0.5639  1.3236 -0.4560
  151MOL    H8436384   6.253   0.683   0.107  1.1409  0.4607 -1.2317
  151MOL    H8536385   6.164   0.593   0.009 -1.3196  1.6625  1.9162
  151MOL    O8636386   6.344   0.435   7.893  0.1761 -0.0960  0.6460
  151MOL    C8736387   6.444   0.384   7.801  0.0338 -0.5447 -0.4440
  151MOL    C8836388   6.471   0.238   7.850  0.4669 -0.7512  0.2850
  151MOL    C8936389   6.384   0.383   7.661  0.3610  0.1379  0.1705
  151MOL    C9036390   6.475   0.333   7.542 -0.7733  0.3610  0.2867
  151MOL    O9136391   6.546   0.415   7.481 -0.0572 -0.1832  0.0967
  151MOL    H9236392   6.538   0.439   7.806 -0.0694 -0.4676  0.7131
  151MOL    H9336393   6.474   0.227   7.959  0.5829 -2.5187  0.1289
  151MOL    H9436394   6.576   0.226   7.824  0.7030  3.2106 -0.8306
  151MOL    H9536395   6.416   0.158   7.800  1.5881 -1.4561  0.1493
  151MOL    H9636396   6.353   0.483   7.632 -3.9896 -0.8280  1.1085
  151MOL    H9736397   6.297   0.317   7.655  1.1046 -0.6846 -2.6372
  151MOL    O9836398   6.477   0.202   7.521  0.2315  0.0560 -0.1966
  151MOL    C9936399   6.567   0.146   7.421  0.1844  0.2243  0.6963
  151MOL   C10036400   6.684   0.072   7.491 -0.1307  0.3936 -0.0130
  151MOL   C10136401   6.487   0.052   7.329  0.0974 -0.2456 -0.2065
  151MOL   C10236402   6.570   0.008   7.209  0.3599 -0.5718  0.4715
  151MOL   O10336403   6.551   0.061   7.098 -0.1031 -0.3740  0.4861
  151MOL   H10436404   6.623   0.213   7.355  0.0628  0.5137  0.8907
  151MOL   H10536405   6.715   0.124   7.582 -0.7399 -0.1566  0.5104
  151MOL   H10636406   6.763   0.067   7.417  0.7989 -1.1360  1.0488
  151MOL   H10736407   6.668   7.950   7.526  1.4031 -0.6169 -2.1991
  151MOL   H10836408   6.390   0.096   7.304  1.2884  2.7756  0.3332
  151MOL   H10936409   6.459   7.940   7.381 -1.3984  1.0320  1.3122
  151MOL   O11036410   6.655   7.883   7.234 -0.0487  0.0895 -0.0148
  151MOL   C11136411   6.715   7.822   7.122 -0.0908  0.6000 -0.3956
  151MOL   C11236412   6.838   7.755   7.167 -0.1519 -0.2957  0.0794
  151MOL   C11336413   6.621   7.726   7.050  0.2990  0.6980 -0.6633
  151MOL   C11436414   6.566   7.619   7.147 -0.1655  0.2368  0.2740
  151MOL   O11536415   6.606   7.502   7.143 -0.4709 -0.1451  0.5899
  151MOL   H11636416   6.754   7.901   7.056  0.5679  1.2343  0.7304
  151MOL   H11736417   6.888   7.727   7.074 -1.2155 -0.1144 -0.5581
  151MOL   H11836418   6.821   7.666   7.227  0.1859  0.0639  0.7119
  151MOL   H11936419   6.894   7.833   7.218 -1.7425  2.4385 -2.2540
  151MOL   H12036420   6.679   7.688   6.966  0.0547 -1.3095  0.0546
  151MOL   H12136421   6.535   7.775   7.007 -1.5994 -1.4347  0.5946
  151MOL   O12236422   6.464   7.663   7.226  0.7943 -0.9293  0.6859
  151MOL   C12336423   6.401   7.574   7.327  0.0843 -0.1928  0.9187
  151MOL   C12436424   6.389   7.660   7.451  0.1836  0.0437  0.0453
  151MOL   C12536425   6.263   7.526   7.279  0.4866  0.3735 -0.3153
  151MOL   C12636426   6.150   7.637   7.274 -0.2778  0.3332 -0.5702
  151MOL   O12736427   6.064   7.642   7.357  0.3992  0.1209 -0.9807
  151MOL   H12836428   6.470   7.491   7.344 -1.1804 -0.9464  2.4991
  151MOL   H12936429   6.325   7.746   7.428  1.3595  0.5550 -1.3694
  151MOL   H13036430   6.486   7.698   7.481 -0.3116  0.7565  0.7696
  151MOL   H13136431   6.360   7.599   7.536 -0.0861  1.2137  0.8122
  151MOL   H13236432   6.237   7.458   7.359  0.9025 -0.7969 -1.1586
  151MOL   H13336433   6.277   7.482   7.180  2.3240  0.8730 -0.3047
  151MOL   O13436434   6.156   7.715   7.168 -0.3875  0.2665  0.5349
  151MOL   C13536435   6.074   7.835   7.160  0.3547 -0.4222 -1.2811
  151MOL   C13636436   6.153   7.947   7.098  0.5306  1.3536 -0.8593
  151MOL   C13736437   5.955   7.812   7.073 -0.5289  0.1467  0.5410
  151MOL   C13836438   5.840   7.759   7.148 -0.1831 -0.2650  0.0932
  151MOL   O13936439   5.841   7.650   7.199 -0.2155 -0.5912  0.4307
  151MOL   H14036440   6.040   7.878   7.254  2.6728  0.5885 -0.8848
  151MOL   H14136441   6.233   7.970   7.169  0.3412  0.8350 -0.4726
  151MOL   H14236442   6.091   0.055   7.079 -0.3878  1.0878  0.8557
  151MOL   H14336443   6.195   7.920   7.001 -0.4105  1.5280 -1.3267
  151MOL   H14436444   5.975   7.738   6.995 -1.5915  0.8018 -0.3618
  151MOL   H14536445   5.923   7.910   7.039 -1.7893 -0.6535 -0.6583
  151MOL   O14636446   5.741   7.848   7.154 -0.1052 -0.5693 -0.0341
  151MOL   C14736447   5.618   7.815   7.227 -0.3889  0.4734 -0.3784
  151MOL   C14836448   5.600   7.915   7.335 -0.3148  0.1955 -0.0384
  151MOL   C14936449   5.510   7.830   7.117 -0.6933  0.3507  0.2526
  151MOL   C15036450   5.406   7.719   7.110 -1.0973  0.7856  0.1360
  151MOL   O15136451   5.374   7.665   7.001 -0.6704 -0.0545 -0.3515
  151MOL   H15236452   5.624   7.712   7.261  1.1895 -0.4198 -3.2142
  151MOL   H15336453   5.515   7.887   7.397 -0.6380  2.4851  0.5972
  151MOL   H15436454   5.585   0.036   7.296  2.2869  1.2997  1.6245
  151MOL   H15536455   5.684   7.924   7.404 -1.1681 -2.1434  1.3518
  151MOL   H15636456   5.559   7.833   7.020 -0.9596 -2.1776  0.0053
  151MOL   H15736457   5.466   7.928   7.135 -1.1348 -0.1036  1.7110
  151MOL   O15836458   5.344   7.696   7.225 -0.7164  0.3811  0.3432
  151MOL   C15936459   5.235   7.603   7.231 -0.3420 -0.3032  0.3501
  151MOL   C16036460   5.201   7.578   7.374 -0.4185 -0.0591 -0.5897
  151MOL   C16136461   5.103   7.661   7.168 -0.3441 -0.1532 -0.0587
  151MOL   C16236462   5.001   7.553   7.123 -0.0774  0.0902 -0.0611
  151MOL   O16336463   5.024   7.485   7.025 -0.1672  0.3360 -0.2779
  151MOL   H16436464   5.252   7.515   7.168  2.4038 -1.4814  2.6404
  151MOL   H16536465   5.159   7.665   7.425  2.0726  0.6210  0.3703
  151MOL   H16636466   5.286   7.536   7.428  0.0528 -0.3787 -1.5648
  151MOL   H16736467   5.123   7.503   7.378 -0.2221 -0.1914  1.1609
  151MOL   H16836468   5.128   7.717   7.078  1.6720 -0.1631  0.4709
  151MOL   H16936469   5.063   7.730   7.243  2.0400 -0.9126  1.9873
  151MOL   O17036470   4.886   7.551   7.195  0.0302 -0.3131 -0.1247
  151MOL   C17136471   4.790   7.444   7.181  0.3470 -0.6324 -0.4169
  151MOL   C17236472   4.831   7.334   7.268  0.1653 -0.1623  0.1330
  151MOL   C17336473   4.654   7.515   7.209 -0.4645  0.3847  0.0348
  151MOL   C17436474   4.607   7.617   7.107 -0.4349  0.7896  0.4556
  151MOL   O17536475   4.515   7.590   7.033 -0.0332  0.0721  0.7934
  151MOL   H17636476   4.786   7.417   7.075 -3.3198  0.7381 -0.7126
  151MOL   H17736477   4.815   7.350   7.374  1.4380  0.5396  0.2286
  151MOL   H17836478   4.939   7.317   7.263  0.4250  1.4108 -0.1748
  151MOL   H17936479   4.783   7.241   7.240 -0.8751  0.2918  0.4065
  151MOL   H18036480   4.664   7.577   7.298  0.2696 -0.5204  0.5945
  151MOL   H18136481   4.571   7.448   7.230 -0.2584 -0.0683 -0.5795
  151MOL   O18236482   4.668   7.737   7.116 -0.2246  0.8076 -0.5972
  151MOL   C18336483   4.633   7.857   7.051 -0.1367  0.3841  0.0447
  151MOL   C18436484   4.488   7.898   7.096  0.1599 -0.4827 -0.1825
  151MOL   C18536485   4.749   7.949   7.057  0.4551  0.3411  0.0559
  151MOL   C18636486   4.747   0.085   6.962  0.1832 -0.6442 -0.3121
  151MOL   O18736487   4.782   0.076   6.843 -0.1988  0.1650 -0.3901
  151MOL   H18836488   4.642   7.842   6.943  1.1512 -1.2385  0.3568
  151MOL   H18936489   4.412   7.841   7.042  0.3140 -0.0927 -0.8102
  151MOL   H19036490   4.458   0.021   7.079  0.6815 -0.1174  1.1177
  151MOL   H19136491   4.463   7.883   7.201  2.5715  0.8647  0.6215
  151MOL   H19236492   4.835   7.893   7.021 -0.3216  1.1152 -3.2393
  151MOL   H19336493   4.768   7.970   7.162  0.3005  0.0739  0.1368
  151MOL   O19436494   4.704   0.203   7.020  0.5591  0.1309  0.4939
  151MOL   C19536495   4.692   0.311   6.933  0.8135 -0.1848 -0.2359
  151MOL   C19636496   4.571   0.391   6.986  1.1258  0.0055 -0.4182
  151MOL   C19736497   4.821   0.398   6.926 -0.6708  0.0735  0.2528
  151MOL   C19836498   4.862   0.448   6.780  0.2981  0.1274  0.0533
  151MOL   O19936499   4.844   0.378   6.676 -0.4460  0.3047 -0.6471
  151MOL   H20036500   4.663   0.273   6.835 -1.9441  0.5530  0.2299
  151MOL   H20136501   4.566   0.495   6.953  3.0424  0.6633  1.2693
  151MOL   H20236502   4.575   0.389   7.095  1.7300  0.0009 -0.4375
  151MOL   H20336503   4.483   0.340   6.946  1.3031  0.7934 -1.8515
  151MOL   H20436504   4.905   0.351   6.977 -0.2034 -0.2989 -0.8398
  151MOL   H20536505   4.795   0.493   6.971 -2.3206  0.4706 -1.4666
  151MOL   O20636506   4.916   0.570   6.785  0.2238  0.3033 -0.4786
  151MOL   C20736507   4.969   0.631   6.674 -0.0568  0.6629  0.9006
  151MOL   C20836508   4.969   0.779   6.716 -1.1676 -0.3085  0.2026
  151MOL   C20936509   5.111   0.567   6.638  0.6107 -1.0224  0.1630
  151MOL   C21036510   5.225   0.590   6.734  0.0953  0.4806 -0.0827
  151MOL   O21136511   5.302   0.683   6.721 -0.0404  0.0738 -0.1550
  151MOL   H21236512   4.907   0.611   6.586 -2.0552  2.3265  1.9027
  151MOL   H21336513   4.874   0.820   6.751 -0.8012 -0.7747  1.7744
  151MOL   H21436514   4.995   0.842   6.631 -0.1426 -0.4671  0.3878
  151MOL   H21536515   5.042   0.796   6.795 -1.7729 -0.2240  0.7443
  151MOL   H21636516   5.140   0.607   6.541 -2.3405  0.9379  0.0214
  151MOL   H21736517   5.106   0.460   6.617  2.3977 -1.1446  0.2860
  151MOL   O21836518   5.239   0.497   6.826 -0.1840 -0.6883  0.2070
  151MOL   C21936519   5.345   0.507   6.919  0.3771 -0.1059  0.1488
  151MOL   C22036520   5.296   0.443   7.057 -0.3334  0.4916 -0.5602
  151MOL   C22136521   5.456   0.427   6.859 -0.1688 -0.0928  0.0907
  151MOL   C22236522   5.588   0.435   6.941  0.6143  0.2012  0.3807
  151MOL   O22336523   5.611   0.507   7.039  0.1867  0.1410 -0.2581
  151MOL   H22436524   5.383   0.608   6.937  0.7022 -0.3993  1.1220
  151MOL   H22536525   5.264   0.339   7.055  0.4121  0.1868  1.9797
  151MOL   H22636526   5.219   0.504   7.104  0.9438  0.4116  1.7162
  151MOL   H22736527   5.387   0.443   7.117 -1.5526 -0.4597  1.3127
  151MOL   H22836528   5.481   0.467   6.760 -2.7614  0.7118 -0.2831
  151MOL   H22936529   5.425   0.325   6.836 -0.4032 -0.6953  2.9588
  151MOL   O23036530   5.674   0.347   6.892  0.6873  0.2607 -0.4237
  151MOL   C23136531   5.788   0.304   6.969  0.6364 -0.3210  0.5447
  151MOL   C23236532   5.771   0.174   7.051  0.2842 -0.2020 -0.1746
  151MOL   C23336533   5.914   0.309   6.882 -0.5571  0.0848  0.5537
  151MOL   C23436534   5.921   0.199   6.774  0.0850  0.1244 -0.3496
  151MOL   O23536535   6.011   0.183   6.695 -1.1184  0.5343  0.4524
  151MOL   H23636536   5.810   0.381   7.043 -0.2797 -0.0317  0.5300
  151MOL   H23736537   5.732   0.094   6.988 -2.3989  0.8195  0.0911
  151MOL   H23836538   5.700   0.196   7.131 -0.1673  0.7991 -0.8289
  151MOL   H23936539   5.865   0.147   7.098 -0.0880 -0.9335  0.1501
  151MOL   H24036540   6.000   0.294   6.948 -0.3866  0.6630  0.4684
  151MOL   H24136541   5.915   0.409   6.839  0.1236 -0.9631 -1.9038
  151MOL   H24236542   5.838   0.128   6.777  1.8900 -2.0140  0.2043
  152MOL     O136543   6.069   5.574   4.146 -0.7643 -0.4142  0.2264
  152MOL     C236544   6.168   5.469   4.151  0.0931  0.4343 -0.5487
  152MOL     C336545   6.131   5.388   4.274  1.0301 -0.1345 -0.6579
  152MOL     C436546   6.158   5.375   4.026 -0.3527  0.0975 -0.0530
  152MOL     C536547   6.252   5.261   4.030 -0.0557 -0.3275 -0.5285
  152MOL     O636548   6.223   5.147   3.989 -0.8955  0.0456 -0.0549
  152MOL     H736549   6.268   5.507   4.168  1.2150 -2.1075 -1.2887
  152MOL     H836550   6.029   5.352   4.257  1.4813 -1.8796  0.1477
  152MOL     H936551   6.127   5.453   4.361  1.8897  1.9843 -2.1876
  152MOL    H1036552   6.188   5.299   4.300  0.1255 -0.1473  1.4719
  152MOL    H1136553   6.163   5.428   3.931 -0.9483  0.1422 -0.0598
  152MOL    H1236554   6.055   5.340   4.026 -0.6995  0.9891  2.9121
  152MOL    H1336555   6.118   5.640   4.099  0.2443 -0.7679  0.7456
  152MOL    O1436556   6.365   5.286   4.094  0.1532  0.4453 -0.7169
  152MOL    C1536557   6.465   5.179   4.105  0.1022  0.3649 -0.1757
  152MOL    C1636558   6.604   5.246   4.102  0.4398 -1.0011 -0.8221
  152MOL    C1736559   6.436   5.077   4.222 -0.6893 -0.1315 -0.8076
  152MOL    C1836560   6.550   4.980   4.250  0.4207 -0.5135 -0.3062
  152MOL    O1936561   6.578   4.955   4.366 -0.1439  0.4379 -0.0435
  152MOL    H2036562   6.456   5.138   4.004 -2.0113 -0.5716  0.3586
  152MOL    H2136563   6.682   5.177   4.068 -1.5306 -2.9568 -1.4701
  152MOL    H2236564   6.628   5.283   4.202  1.0979 -0.9889 -0.9783
  152MOL    H2336565   6.588   5.326   4.030 -0.7405 -0.3015  0.1977
  152MOL    H2436566   6.347   5.017   4.208 -1.0019 -0.2220  1.3793
  152MOL    H2536567   6.423   5.139   4.311 -0.8073 -0.2499 -0.7445
  152MOL    O2636568   6.588   4.918   4.143  0.2877 -0.0518  0.1743
  152MOL    C2736569   6.711   4.843   4.141  0.1812  0.3811 -0.0546
  152MOL    C2836570   6.676   4.693   4.166 -0.1802 -0.7764 -0.1642
  152MOL    C2936571   6.766   4.864   3.994  0.4969 -0.0006 -0.1039
  152MOL    C3036572   6.912   4.840   3.976  0.0287  0.1821 -0.4340
  152MOL    O3136573   6.956   4.734   3.945 -0.0312 -0.0777 -0.4810
  152MOL    H3236574   6.782   4.881   4.215  1.1113 -1.3171 -0.0628
  152MOL    H3336575   6.696   4.629   4.081  0.0628 -0.1477 -0.5876
  152MOL    H3436576   6.572   4.687   4.197 -0.3470  1.2345 -0.2189
  152MOL    H3536577   6.746   4.659   4.243 -0.4876 -0.4696  0.2556
  152MOL    H3636578   6.748   4.968   3.965  1.8073  0.2807  0.0467
  152MOL    H3736579   6.700   4.804   3.931 -2.0159 -0.7306  3.1122
  152MOL    O3836580   6.987   4.954   3.998 -0.2062  0.0237 -0.3681
  152MOL    C3936581   7.126   4.950   3.986 -0.0733  0.3771  0.3525
  152MOL    C4036582   7.138   4.983   3.832  0.2052  0.0405  0.3421
  152MOL    C4136583   7.183   5.046   4.080  0.1846 -0.1069  0.2402
  152MOL    C4236584   7.334   5.058   4.077 -0.6351  0.7448  1.0715
  152MOL    O4336585   7.400   4.956   4.047  0.0968  0.1036 -0.0481
  152MOL    H4436586   7.155   4.847   4.008  2.7697  1.1692  0.4909
  152MOL    H4536587   7.238   4.994   3.790  0.0690  0.8626  0.2403
  152MOL    H4636588   7.088   5.077   3.809  2.6163  1.0083 -1.1573
  152MOL    H4736589   7.086   4.908   3.772 -1.6691  0.7308  1.0855
  152MOL    H4836590   7.163   5.018   4.184 -0.5031 -1.2070 -0.1837
  152MOL    H4936591   7.136   5.144   4.075  1.0539  0.3962  1.7262
  152MOL    O5036592   7.375   5.185   4.104 -0.2613  0.7725  0.4983
  152MOL    C5136593   7.513   5.202   4.094 -0.5654  0.1537 -0.7495
  152MOL    C5236594   7.520   5.340   4.032 -0.7181 -0.3568  1.1223
  152MOL    C5336595   7.581   5.205   4.237  0.2899  0.2910 -0.1357
  152MOL    C5436596   7.617   5.075   4.309  0.6770 -0.2294 -0.1292
  152MOL    O5536597   7.732   5.037   4.313  0.8245  0.0662  0.2911
  152MOL    H5636598   7.560   5.123   4.035 -1.1644  0.3589 -1.5233
  152MOL    H5736599   7.462   5.354   3.941  1.8810 -1.2745 -0.7524
  152MOL    H5836600   7.612   5.364   3.979 -2.3231 -2.2056 -2.7041
  152MOL    H5936601   7.486   5.419   4.098  1.2709  0.8889  0.7112
  152MOL    H6036602   7.521   5.263   4.307 -0.8264 -0.5301 -0.3946
  152MOL    H6136603   7.677   5.255   4.225  0.6695 -0.3852  0.0132
  152MOL    O6236604   7.500   5.016   4.354 -0.0664  0.1471 -0.6072
  152MOL    C6336605   7.510   4.910   4.453  0.0685 -0.4690 -0.6098
  152MOL    C6436606   7.396   4.940   4.555 -0.3527  0.2119  0.1413
  152MOL    C6536607   7.500   4.765   4.381 -0.2320 -0.4004  0.0724
  152MOL    C6636608   7.509   4.648   4.478  0.0691  0.5026  0.2124
  152MOL    O6736609   7.408   4.577   4.506 -0.1501  0.0981 -0.6227
  152MOL    H6836610   7.608   4.909   4.500 -0.7607 -3.0552  1.1716
  152MOL    H6936611   7.392   5.046   4.578  0.3561  0.4632 -0.8923
  152MOL    H7036612   7.404   4.877   4.644 -3.3309 -1.3153 -0.6201
  152MOL    H7136613   7.300   4.921   4.507 -0.4343  0.1735  0.3145
  152MOL    H7236614   7.576   4.750   4.304  0.5221 -0.0630  0.7360
  152MOL    H7336615   7.409   4.750   4.323  0.1387 -1.3097 -0.2875
  152MOL    O7436616   7.633   4.624   4.531 -0.1161 -0.0025 -0.4490
  152MOL    C7536617   7.664   4.504   4.596 -0.2270  0.0747  0.1369
  152MOL    C7636618   7.713   4.402   4.488 -0.6022  0.1710 -0.5435
  152MOL    C7736619   7.759   4.535   4.712  0.2089  0.4260 -0.1477
  152MOL    C7836620   7.779   4.416   4.807  0.3527 -0.1668  0.2337
  152MOL    O7936621   7.891   4.363   4.827 -0.4573  0.1995 -0.3197
  152MOL    H8036622   7.573   4.463   4.638 -0.3186  0.8966  0.7644
  152MOL    H8136623   7.793   4.446   4.428  0.0527 -0.2113  0.0569
  152MOL    H8236624   7.640   4.386   4.408 -0.0421 -0.6445 -0.9008
  152MOL    H8336625   7.737   4.303   4.527 -2.2878  0.6729  1.8435
  152MOL    H8436626   7.723   4.621   4.769 -0.5392  0.3131 -0.4472
  152MOL    H8536627   7.853   4.554   4.661  1.3942 -1.5526  1.2305
  152MOL    O8636628   7.662   4.383   4.869 -0.0088  0.3171  0.0289
  152MOL    C8736629   7.645   4.255   4.928  0.1437  0.1089 -0.5885
  152MOL    C8836630   7.550   4.265   5.042 -0.8908 -0.2722  0.5909
  152MOL    C8936631   7.585   4.167   4.819  0.1843 -0.4285  0.9206
  152MOL    C9036632   7.658   4.037   4.804  0.0721 -0.0276  0.2814
  152MOL    O9136633   7.725   4.013   4.703 -0.3595  0.2589  0.2333
  152MOL    H9236634   7.732   4.209   4.976 -1.1683 -0.8341  0.9112
  152MOL    H9336635   7.527   4.167   5.083  3.0998 -1.9314 -0.9171
  152MOL    H9436636   7.462   4.317   5.003  0.1772  2.2169  1.3672
  152MOL    H9536637   7.585   4.337   5.116  0.7117 -0.7309  0.3021
  152MOL    H9636638   7.589   4.208   4.718  1.8431 -1.4336  0.5620
  152MOL    H9736639   7.479   4.160   4.840 -0.6723 -1.1348 -3.1923
  152MOL    O9836640   7.646   3.951   4.911 -0.3958  0.3397 -0.1269
  152MOL    C9936641   7.697   3.816   4.905 -0.3489  0.3515 -0.9755
  152MOL   C10036642   7.855   3.815   4.930  0.2451 -0.6088 -0.5228
  152MOL   C10136643   7.623   3.723   5.001  0.5039  0.7507 -0.0788
  152MOL   C10236644   7.615   3.580   4.949 -1.0602  0.5593  0.7405
  152MOL   O10336645   7.646   3.549   4.834  0.7802  0.1801 -0.2029
  152MOL   H10436646   7.682   3.778   4.804  0.6346  0.9498 -1.3503
  152MOL   H10536647   7.896   3.714   4.924  0.5621 -0.6710  2.2987
  152MOL   H10636648   7.886   3.852   5.027  2.6544 -0.9895 -1.1176
  152MOL   H10736649   7.909   3.859   4.846  1.2758 -3.0055 -1.1641
  152MOL   H10836650   7.516   3.745   4.998  0.5241  0.7078 -2.1623
  152MOL   H10936651   7.649   3.720   5.106 -1.5472  2.0190  0.4943
  152MOL   O11036652   7.565   3.497   5.038 -0.5632 -0.5803 -0.0081
  152MOL   C11136653   7.575   3.351   5.027 -0.2779 -0.8140 -0.4546
  152MOL   C11236654   7.659   3.307   5.149 -0.4477 -0.5212  0.2330
  152MOL   C11336655   7.446   3.275   4.999 -0.6333  0.8745 -0.3910
  152MOL   C11436656   7.351   3.258   5.114  0.0402  0.0615  0.6572
  152MOL   O11536657   7.246   3.318   5.126 -0.0313 -0.1560 -0.1192
  152MOL   H11636658   7.633   3.334   4.936 -1.8689 -2.3267 -1.2097
  152MOL   H11736659   7.756   3.355   5.146 -0.4012 -0.6789 -0.8102
  152MOL   H11836660   7.677   3.200   5.134 -1.1557 -0.4427 -1.2576
  152MOL   H11936661   7.600   3.314   5.241 -0.5606  2.0127 -0.0062
  152MOL   H12036662   7.465   3.181   4.948 -2.1937 -0.4054  1.3453
  152MOL   H12136663   7.391   3.324   4.918 -0.0430  1.3919 -0.4822
  152MOL   O12236664   7.388   3.161   5.193 -0.0381 -0.0661 -0.7296
  152MOL   C12336665   7.305   3.129   5.307 -0.3372 -0.5509 -0.2061
  152MOL   C12436666   7.244   2.986   5.307  0.2027  0.4427  0.0680
  152MOL   C12536667   7.379   3.169   5.434 -0.0551 -0.2934  0.3350
  152MOL   C12636668   7.358   3.309   5.479  0.3966  0.1307  0.9755
  152MOL   O12736669   7.286   3.335   5.581 -0.3003  0.0124  0.1688
  152MOL   H12836670   7.215   3.190   5.305  2.0553  3.1967  1.3678
  152MOL   H12936671   7.173   2.992   5.225  0.3877  2.6307  0.0306
  152MOL   H13036672   7.191   2.969   5.401 -1.6686  0.3466 -0.9930
  152MOL   H13136673   7.311   2.904   5.284  1.2475  0.9340  1.2934
  152MOL   H13236674   7.484   3.141   5.426  0.0332  0.0361  0.3281
  152MOL   H13336675   7.336   3.108   5.513 -0.5703 -1.3575 -0.7552
  152MOL   O13436676   7.416   3.404   5.393  0.2962  0.4469  0.2596
  152MOL   C13536677   7.398   3.541   5.399  0.1234 -0.7672  0.3498
  152MOL   C13636678   7.534   3.611   5.382  0.2155  0.4501 -0.2826
  152MOL   C13736679   7.308   3.594   5.288  0.4325  0.0717 -0.2080
  152MOL   C13836680   7.286   3.743   5.291  0.1308 -0.2015  0.0430
  152MOL   O13936681   7.287   3.808   5.187 -0.6676 -0.4355 -0.2850
  152MOL   H14036682   7.360   3.576   5.495  2.4408  1.1282  0.6207
  152MOL   H14136683   7.588   3.587   5.474  1.2860  1.2326 -0.7084
  152MOL   H14236684   7.544   3.719   5.369  1.8878  0.3968  0.3823
  152MOL   H14336685   7.596   3.567   5.305 -1.0732 -1.1852 -0.4191
  152MOL   H14436686   7.210   3.547   5.287  0.2167  0.4876  0.9468
  152MOL   H14536687   7.344   3.559   5.191 -0.9429  1.1211 -1.1152
  152MOL   O14636688   7.248   3.780   5.412  0.2334 -0.0116 -0.1669
  152MOL   C14736689   7.202   3.913   5.440  0.3347  0.5756 -0.0856
  152MOL   C14836690   7.126   3.897   5.577 -0.2205  0.3238  0.4125
  152MOL   C14936691   7.315   4.010   5.461 -0.0361  1.4068  0.4530
  152MOL   C15036692   7.267   4.152   5.476  0.0447  0.5105 -0.0961
  152MOL   O15136693   7.149   4.191   5.493  0.2285 -0.6828 -0.1339
  152MOL   H15236694   7.138   3.936   5.355 -0.5516 -1.1391  0.0791
  152MOL   H15336695   7.198   3.882   5.657  1.5063  0.3917 -1.1229
  152MOL   H15436696   7.044   3.826   5.573 -1.3333  1.6322 -0.6730
  152MOL   H15536697   7.087   3.996   5.603 -0.5123  0.8247 -1.8651
  152MOL   H15636698   7.388   4.024   5.381 -0.1444 -0.8103 -0.0670
  152MOL   H15736699   7.373   3.985   5.550  0.3661  3.4115  0.7718
  152MOL   O15836700   7.376   4.240   5.477  0.1338 -0.0644  0.1575
  152MOL   C15936701   7.355   4.374   5.470  0.0248 -0.2644 -0.0002
  152MOL   C16036702   7.471   4.439   5.541  0.2844  0.3642  0.4881
  152MOL   C16136703   7.350   4.425   5.327  0.1690 -0.5960 -0.2255
  152MOL   C16236704   7.299   4.572   5.327  0.6538  0.2983 -0.1679
  152MOL   O16336705   7.362   4.658   5.257 -0.4871  0.6512  0.2689
  152MOL   H16436706   7.261   4.393   5.523 -1.6441 -0.7748 -2.7008
  152MOL   H16536707   7.553   4.469   5.475 -1.1255 -0.3866 -1.6752
  152MOL   H16636708   7.518   4.377   5.617 -1.1792 -1.4218 -0.0334
  152MOL   H16736709   7.443   4.533   5.588  1.6154  1.0659 -0.0785
  152MOL   H16836710   7.266   4.385   5.271  1.0417 -0.5472 -1.6032
  152MOL   H16936711   7.444   4.401   5.277  0.1856 -1.0018 -0.0044
  152MOL   O17036712   7.191   4.592   5.400  0.4969 -1.0613 -0.4152
  152MOL   C17136713   7.158   4.729   5.428 -0.4172 -0.1084 -0.2718
  152MOL   C17236714   7.064   4.786   5.320 -0.0259  0.7078 -0.5659
  152MOL   C17336715   7.092   4.735   5.565 -0.7043 -0.6087  0.5479
  152MOL   C17436716   7.173   4.709   5.685 -1.2023  0.6211  0.5066
  152MOL   O17536717   7.298   4.724   5.684 -0.1194 -0.3561  0.1135
  152MOL   H17636718   7.252   4.783   5.429 -1.1632  1.2696 -1.7747
  152MOL   H17736719   6.961   4.750   5.318 -0.1394  1.0543 -0.9614
  152MOL   H17836720   7.102   4.777   5.218 -0.4940 -0.8852 -0.6213
  152MOL   H17936721   7.068   4.894   5.336 -0.6925  0.7453 -0.6234
  152MOL   H18036722   6.998   4.679   5.563 -0.8912 -0.2906 -1.8009
  152MOL   H18136723   7.053   4.835   5.584 -0.3404  0.3101 -3.1452
  152MOL   O18236724   7.100   4.668   5.784 -0.2657 -0.0061  0.4284
  152MOL   C18336725   7.147   4.668   5.920 -0.1522 -0.2571 -0.2561
  152MOL   C18436726   7.017   4.665   6.000  0.8659 -0.7201 -0.0979
  152MOL   C18536727   7.246   4.554   5.946 -0.2359  0.5596 -0.8536
  152MOL   C18636728   7.200   4.419   5.996  0.2252 -1.1377 -0.1632
  152MOL   O18736729   7.181   4.400   6.121  0.0175  0.3810 -0.4411
  152MOL   H18836730   7.199   4.761   5.941 -1.1083  0.5473 -1.3975
  152MOL   H18936731   7.042   4.687   6.104 -0.2506 -0.3565  0.0934
  152MOL   H19036732   6.965   4.570   5.991 -1.5431  0.4267  1.2975
  152MOL   H19136733   6.953   4.739   5.954  0.0399 -1.0947  0.4398
  152MOL   H19236734   7.316   4.579   6.026 -1.8137 -0.9457  1.0598
  152MOL   H19336735   7.307   4.543   5.856 -0.0548  3.7573 -1.1702
  152MOL   O19436736   7.201   4.325   5.898  0.2312  0.0019  0.5721
  152MOL   C19536737   7.208   4.186   5.931  0.7951 -0.2123 -0.2848
  152MOL   C19636738   7.067   4.133   5.926 -0.3919 -0.6537 -0.5412
  152MOL   C19736739   7.304   4.111   5.833  0.1992 -0.0479 -0.4761
  152MOL   C19836740   7.450   4.142   5.851 -0.0790  0.1532 -0.6907
  152MOL   O19936741   7.529   4.156   5.761 -0.5502 -0.4023  0.2636
  152MOL   H20036742   7.255   4.181   6.029  3.4743 -2.7758 -1.6128
  152MOL   H20136743   7.035   4.158   5.825 -0.1687  2.3396  0.0930
  152MOL   H20236744   7.013   4.199   5.994  1.8685  0.3387  0.3022
  152MOL   H20336745   7.073   4.026   5.948  1.8151 -0.5451 -0.6050
  152MOL   H20436746   7.285   4.115   5.726  1.4220  0.9912 -0.6656
  152MOL   H20536747   7.293   4.003   5.848 -1.0206 -0.2772 -2.7923
  152MOL   O20636748   7.483   4.157   5.977 -0.3922  0.3065 -0.9401
  152MOL   C20736749   7.613   4.177   6.017 -0.2233 -0.0142  1.0493
  152MOL   C20836750   7.600   4.286   6.126 -0.3398 -0.1499 -0.1165
  152MOL   C20936751   7.675   4.047   6.061 -0.0051  0.1457  0.8485
  152MOL   C21036752   7.826   4.048   6.036  0.7704  0.1074 -0.2714
  152MOL   O21136753   7.887   4.135   5.969 -0.2986 -0.5622 -1.2163
  152MOL   H21236754   7.667   4.213   5.930  0.8879  2.3950  2.6845
  152MOL   H21336755   7.532   4.270   6.209 -1.4097  2.3137 -0.4523
  152MOL   H21436756   7.559   4.379   6.086 -4.0713 -1.1301  1.2056
  152MOL   H21536757   7.694   4.316   6.173 -0.4957  0.1990 -0.0213
  152MOL   H21636758   7.634   3.962   6.007  0.2051 -0.5338  1.7517
  152MOL   H21736759   7.652   4.017   6.163 -1.6411  1.3194  0.8601
  152MOL   O21836760   7.890   3.940   6.090 -0.4096 -0.3693 -0.2201
  152MOL   C21936761   0.049   3.942   6.085 -0.1062  0.7538 -0.1770
  152MOL   C22036762   0.096   3.844   6.192 -0.2298 -0.0398  0.3643
  152MOL   C22136763   0.112   3.912   5.941  0.7446  0.6338 -0.7413
  152MOL   C22236764   0.259   3.939   5.910  0.0751  0.3699 -0.5746
  152MOL   O22336765   0.342   3.948   5.999 -0.3500  0.0560 -0.5011
  152MOL   H22436766   0.089   4.040   6.111  1.5938 -0.1820  0.8221
  152MOL   H22536767   0.065   3.743   6.166 -0.9488 -0.4257  2.6285
  152MOL   H22636768   0.043   3.861   6.286  0.9476 -0.5122  1.1205
  152MOL   H22736769   0.201   3.861   6.216 -0.5226  0.8378  1.0540
  152MOL   H22836770   0.054   3.965   5.866  0.0533  1.9713  0.6897
  152MOL   H22936771   0.098   3.805   5.935 -0.2216  0.5571  1.8525
  152MOL   O23036772   0.284   3.936   5.786  0.0353  0.1753  0.2215
  152MOL   C23136773   0.417   3.943   5.739 -0.1012  0.2498 -0.6322
  152MOL   C23236774   0.471   3.799   5.733 -0.0050  0.2806 -0.1937
  152MOL   C23336775   0.413   4.014   5.606  0.0384  0.7081 -0.3692
  152MOL   C23436776   0.546   4.033   5.534 -0.5476 -0.2530 -0.3429
  152MOL   O23536777   0.653   4.040   5.597  0.4665 -0.2013 -0.3237
  152MOL   H23636778   0.483   4.013   5.790 -0.9951  0.2362  0.5576
  152MOL   H23736779   0.574   3.784   5.700  0.9717  0.3414  2.6183
  152MOL   H23836780   0.414   3.744   5.659  1.0105 -0.6914 -0.2646
  152MOL   H23936781   0.476   3.751   5.831 -0.8493 -2.4042 -1.4252
  152MOL   H24036782   0.371   4.114   5.608 -2.1265 -0.1913  0.7556
  152MOL   H24136783   0.350   3.950   5.544 -2.5902  0.3549  2.5429
  152MOL   H24236784   0.547   4.035   5.425 -0.8474 -0.2471 -0.3450
  153MOL     O136785   6.138   4.600   7.192  0.4633  0.3812 -0.0754
  153MOL     C236786   6.271   4.585   7.162 -0.2839  0.5498 -0.0723
  153MOL     C336787   6.327   4.723   7.169  0.2479 -0.2653  0.3728
  153MOL     C436788   6.324   4.471   7.256 -0.4575 -0.6676 -0.0841
  153MOL     C536789   6.473   4.446   7.255 -0.3008  0.4608  1.0447
  153MOL     O636790   6.551   4.481   7.342  0.1368 -0.0535 -0.0488
  153MOL     H736791   6.283   4.551   7.059 -1.6758 -2.1423  0.6028
  153MOL     H836792   6.306   4.764   7.267  1.9282 -0.9733  1.0352
  153MOL     H936793   6.272   4.793   7.106 -0.4112  0.0576  1.2960
  153MOL    H1036794   6.434   4.735   7.154  0.5524 -0.7138  2.0808
  153MOL    H1136795   6.271   4.381   7.227  1.1521 -1.5954 -0.1770
  153MOL    H1236796   6.302   4.492   7.361  0.6532 -1.5410  0.3282
  153MOL    H1336797   6.113   4.691   7.204 -2.7600 -0.1206 -2.3367
  153MOL    O1436798   6.507   4.374   7.143 -0.0293 -0.3887  0.2465
  153MOL    C1536799   6.637   4.357   7.102  0.5814 -0.0239  0.6176
  153MOL    C1636800   6.681   4.214   7.090  0.3812 -0.3870 -0.7682
  153MOL    C1736801   6.662   4.443   6.977 -0.8463 -1.0686 -0.2518
  153MOL    C1836802   6.588   4.398   6.852 -0.5313 -0.8511 -0.4133
  153MOL    O1936803   6.480   4.440   6.820 -0.1519 -0.2967  0.0717
  153MOL    H2036804   6.699   4.390   7.185 -0.2558 -0.6861  1.5161
  153MOL    H2136805   6.785   4.209   7.059  0.1101  2.0570 -2.2600
  153MOL    H2236806   6.631   4.148   7.020  0.6728 -0.7097 -0.6740
  153MOL    H2336807   6.672   4.175   7.191  0.4521 -1.5025 -1.1939
  153MOL    H2436808   6.769   4.440   6.955 -0.7450  0.1383  0.0414
  153MOL    H2536809   6.644   4.549   6.994 -1.4637 -0.9608 -1.5384
  153MOL    O2636810   6.656   4.291   6.793 -0.0343 -0.6157  0.4432
  153MOL    C2736811   6.600   4.233   6.670  0.7098 -0.4575  0.2487
  153MOL    C2836812   6.702   4.252   6.552  0.7088  0.0302  0.2580
  153MOL    C2936813   6.592   4.081   6.691  0.1673 -0.0607 -0.1083
  153MOL    C3036814   6.454   4.040   6.740  0.5046 -0.3107  0.1047
  153MOL    O3136815   6.395   3.956   6.678  0.0484 -0.1057 -0.4991
  153MOL    H3236816   6.514   4.290   6.635  0.1479 -2.0433 -1.0098
  153MOL    H3336817   6.789   4.190   6.573 -0.4582 -1.2967  1.2720
  153MOL    H3436818   6.722   4.359   6.542 -2.1215  0.4334 -1.5004
  153MOL    H3536819   6.663   4.212   6.459 -1.4037  1.5657  0.4465
  153MOL    H3636820   6.671   4.058   6.762  1.0234 -0.8083 -1.2776
  153MOL    H3736821   6.621   4.032   6.598 -0.9688 -1.1280  0.0882
  153MOL    O3836822   6.421   4.102   6.854 -0.2095  0.3823  0.0186
  153MOL    C3936823   6.291   4.080   6.907 -0.0986  0.3523  0.4606
  153MOL    C4036824   6.311   4.031   7.054  0.4911  0.2621 -0.0604
  153MOL    C4136825   6.205   4.204   6.889 -0.1016 -0.0544  0.8816
  153MOL    C4236826   6.066   4.168   6.837  0.1932  0.2674 -0.2253
  153MOL    O4336827   5.971   4.155   6.915 -0.0716 -0.5222 -0.3415
  153MOL    H4436828   6.247   3.999   6.850 -0.7816 -0.1655  1.7030
  153MOL    H4536829   6.364   4.104   7.115  0.3592 -0.5439  1.0292
  153MOL    H4636830   6.380   3.947   7.047 -0.0718 -0.1383 -0.9802
  153MOL    H4736831   6.223   3.992   7.105 -0.0739  0.2253 -1.0530
  153MOL    H4836832   6.261   4.265   6.818  0.2929 -1.2406  0.1701
  153MOL    H4936833   6.191   4.271   6.974  1.0498  0.0490  0.9969
  153MOL    O5036834   6.070   4.143   6.698  0.0018  0.0660 -0.3521
  153MOL    C5136835   5.965   4.071   6.638 -0.1646 -0.7720  0.3006
  153MOL    C5236836   5.937   4.144   6.506  0.3285 -0.0234 -1.1802
  153MOL    C5336837   6.024   3.929   6.638  0.1381 -0.2902 -0.2519
  153MOL    C5436838   5.933   3.815   6.608  0.2259  0.0404  0.1523
  153MOL    O5536839   5.964   3.729   6.528  0.3437 -0.0698 -0.6261
  153MOL    H5636840   5.871   4.067   6.694 -1.2422  2.0600 -1.1995
  153MOL    H5736841   5.879   4.084   6.436 -2.8883 -2.8071  3.5588
  153MOL    H5836842   6.027   4.188   6.464  0.4912  1.6198  0.8010
  153MOL    H5936843   5.873   4.230   6.523  0.2855 -0.1653 -0.6083
  153MOL    H6036844   6.067   3.914   6.737  2.0874  0.8913 -0.8938
  153MOL    H6136845   6.116   3.932   6.579  1.6743  2.0142  2.1728
  153MOL    O6236846   5.818   3.821   6.686  0.3759  0.0799 -0.3268
  153MOL    C6336847   5.715   3.726   6.675 -0.5983 -0.2685  0.0990
  153MOL    C6436848   5.676   3.650   6.806 -0.9449 -0.2213 -0.9494
  153MOL    C6536849   5.596   3.821   6.643 -0.1814 -0.4255 -0.0447
  153MOL    C6636850   5.622   3.900   6.512  0.3492 -0.0128 -0.0282
  153MOL    O6736851   5.662   4.017   6.516 -0.1379  0.4906 -0.3701
  153MOL    H6836852   5.734   3.654   6.595  1.4950 -0.4641  0.7209
  153MOL    H6936853   5.751   3.573   6.823 -0.3422  0.1682 -1.7643
  153MOL    H7036854   5.580   3.604   6.784 -1.2865 -0.7773  1.5479
  153MOL    H7136855   5.677   3.717   6.892  0.0895 -0.8359 -0.4671
  153MOL    H7236856   5.590   3.896   6.721  3.9357  0.8265 -0.7938
  153MOL    H7336857   5.502   3.766   6.636 -1.5167  1.7356  0.4428
  153MOL    O7436858   5.597   3.827   6.403 -0.0084  0.1759 -0.2193
  153MOL    C7536859   5.606   3.884   6.273  0.4000  0.1585  0.2602
  153MOL    C7636860   5.613   3.753   6.183 -0.0461 -0.7225 -1.0403
  153MOL    C7736861   5.491   3.980   6.237  0.6418 -0.8833  0.0012
  153MOL    C7836862   5.511   4.054   6.102  0.1229 -0.1378  1.1317
  153MOL    O7936863   5.414   4.081   6.033 -0.3434  1.0719  0.2930
  153MOL    H8036864   5.707   3.925   6.265 -0.4968  2.1876 -0.9284
  153MOL    H8136865   5.627   3.784   6.079  0.1322  0.9203 -0.5328
  153MOL    H8236866   5.517   3.700   6.186  0.1558 -1.0351 -0.0447
  153MOL    H8336867   5.695   3.696   6.227 -0.2798  1.7123  2.7439
  153MOL    H8436868   5.501   4.064   6.305  0.1473 -1.3477  0.6522
  153MOL    H8536869   5.391   3.937   6.240  0.2559  0.0309  0.3558
  153MOL    O8636870   5.649   4.086   6.081  0.6510 -0.1871  0.4352
  153MOL    C8736871   5.702   4.138   5.959  0.0188  0.5682  0.3951
  153MOL    C8836872   5.714   4.292   5.974 -0.3440 -0.3339  0.0817
  153MOL    C8936873   5.842   4.074   5.940  0.1264  0.9172 -0.1971
  153MOL    C9036874   5.900   4.101   5.800  1.2430 -0.6762  0.6677
  153MOL    O9136875   5.965   4.200   5.778  0.0347  0.3664  0.4256
  153MOL    H9236876   5.635   4.103   5.880  2.2808 -2.1933 -0.3909
  153MOL    H9336877   5.619   4.344   5.986 -0.6625 -1.1873  1.3894
  153MOL    H9436878   5.766   4.328   5.885 -2.8440 -0.5605 -1.5192
  153MOL    H9536879   5.765   4.321   6.066  0.0518  0.0621 -0.2662
  153MOL    H9636880   5.846   3.966   5.951 -2.1196  0.5539 -2.5699
  153MOL    H9736881   5.912   4.103   6.018  0.2746  0.5565 -0.1984
  153MOL    O9836882   5.883   4.001   5.708  0.2194 -0.1400 -0.0942
  153MOL    C9936883   5.951   4.010   5.584  0.1566 -0.0866  0.3578
  153MOL   C10036884   6.052   3.886   5.579  0.3126  0.1785 -0.0676
  153MOL   C10136885   5.843   4.005   5.479  0.2255 -0.5467 -0.4125
  153MOL   C10236886   5.894   4.024   5.341  0.3213  0.3509  0.8932
  153MOL   O10336887   5.881   3.927   5.265 -0.0961 -0.0526 -0.1908
  153MOL   H10436888   5.991   4.110   5.566 -1.9353  0.6468 -0.3436
  153MOL   H10536889   6.132   3.898   5.652 -0.2171 -4.5661  1.4244
  153MOL   H10636890   6.095   3.875   5.480 -2.2076  0.7999 -1.2896
  153MOL   H10736891   6.004   3.792   5.607 -0.0303  0.5967  0.7741
  153MOL   H10836892   5.772   4.088   5.482  0.9990  0.1735 -1.4912
  153MOL   H10936893   5.780   3.916   5.477 -0.2928 -0.1700 -2.4677
  153MOL   O11036894   5.948   4.142   5.317  0.1197  0.1276  0.1871
  153MOL   C11136895   6.004   4.183   5.189 -0.3333  0.2715 -0.5270
  153MOL   C11236896   5.949   4.319   5.146 -0.3633  0.4063 -0.6043
  153MOL   C11336897   6.153   4.196   5.185  0.0991  0.3886  0.2943
  153MOL   C11436898   6.216   4.059   5.180  0.0466  0.2879  0.5850
  153MOL   O11536899   6.276   4.014   5.273 -0.0657  0.1214 -0.3448
  153MOL   H11636900   5.962   4.116   5.115 -3.2389  0.6038  0.7447
  153MOL   H11736901   5.960   4.338   5.039 -1.3470  0.5565 -0.6780
  153MOL   H11836902   5.991   4.403   5.201  1.2285  0.3496 -1.6923
  153MOL   H11936903   5.840   4.320   5.155 -0.2860 -0.5474  0.5762
  153MOL   H12036904   6.179   4.240   5.281 -1.0101  2.4182 -0.3128
  153MOL   H12136905   6.189   4.242   5.093 -4.0437  2.4335 -0.4192
  153MOL   O12236906   6.196   4.002   5.059  0.4840  0.2299 -0.5111
  153MOL   C12336907   6.246   3.872   5.022  0.1165 -0.0009  0.2682
  153MOL   C12436908   6.128   3.804   4.946 -0.5052  0.7153 -0.4297
  153MOL   C12536909   6.380   3.872   4.946 -0.2311 -0.2081 -0.7577
  153MOL   C12636910   6.439   3.736   4.894 -0.0998 -0.2132  0.1222
  153MOL   O12736911   6.475   3.729   4.781  0.7904  0.2512  0.4728
  153MOL   H12836912   6.266   3.811   5.110  1.1051  0.6817  0.5193
  153MOL   H12936913   6.167   3.703   4.938 -1.3681  0.4332 -1.0898
  153MOL   H13036914   6.103   3.850   4.850 -1.3680 -0.9190 -1.0117
  153MOL   H13136915   6.044   3.815   5.015  0.1030 -1.3564  0.6555
  153MOL   H13236916   6.459   3.917   5.006 -1.4642  1.1975 -0.1337
  153MOL   H13336917   6.372   3.928   4.853 -1.9413 -1.2116 -1.2301
  153MOL   O13436918   6.443   3.631   4.979  0.2610 -0.0149 -0.3528
  153MOL   C13536919   6.488   3.502   4.939 -1.0279  0.0580  0.1004
  153MOL   C13636920   6.555   3.432   5.059 -0.6576  0.1622 -0.0115
  153MOL   C13736921   6.360   3.417   4.890 -0.1508 -0.0475 -0.9069
  153MOL   C13836922   6.302   3.450   4.745  0.0631  0.2072  0.2656
  153MOL   O13936923   6.201   3.514   4.734  0.2402 -0.1726 -0.3858
  153MOL   H14036924   6.552   3.521   4.853 -0.6172  0.1405  0.4221
  153MOL   H14136925   6.495   3.434   5.149 -1.4465 -0.0902 -0.5328
  153MOL   H14236926   6.646   3.487   5.084  1.9613 -2.3296 -3.5068
  153MOL   H14336927   6.582   3.326   5.053 -0.2618  0.2007  1.0218
  153MOL   H14436928   6.278   3.431   4.961  0.3334 -0.3505 -0.2818
  153MOL   H14536929   6.395   3.313   4.894 -1.8866 -0.5887  2.7145
  153MOL   O14636930   6.379   3.399   4.651  0.6951 -0.4126 -0.2261
  153MOL   C14736931   6.342   3.404   4.510 -0.7823  0.6906  0.3670
  153MOL   C14836932   6.443   3.486   4.429  0.1157 -0.1484  0.1754
  153MOL   C14936933   6.355   3.257   4.462  0.1845  0.1449  0.4443
  153MOL   C15036934   6.253   3.217   4.357  0.2212 -0.6336  0.3706
  153MOL   O15136935   6.218   3.300   4.276  0.2078  0.8020 -0.0019
  153MOL   H15236936   6.236   3.419   4.487 -1.6297 -1.7235  2.5126
  153MOL   H15336937   6.424   3.475   4.322  2.8011 -1.5070 -0.2134
  153MOL   H15436938   6.544   3.450   4.448  0.4137 -1.1019 -2.9199
  153MOL   H15536939   6.436   3.586   4.471 -2.3275 -0.0700 -0.3409
  153MOL   H15636940   6.333   3.201   4.553 -0.6125 -0.3786 -0.0627
  153MOL   H15736941   6.456   3.220   4.449 -0.0926 -0.5454  0.2132
  153MOL   O15836942   6.222   3.089   4.364 -0.2365  0.4239 -0.5185
  153MOL   C15936943   6.138   3.030   4.261  0.0320  0.3976 -0.2599
  153MOL   C16036944   6.173   2.879   4.242  0.5189 -0.0018  0.0571
  153MOL   C16136945   5.990   3.043   4.302  0.0087 -0.5321 -0.0984
  153MOL   C16236946   5.927   3.182   4.303 -0.3016  0.4064 -0.3348
  153MOL   O16336947   5.843   3.212   4.221  0.2093 -0.4473  0.1788
  153MOL   H16436948   6.150   3.086   4.168  1.4140 -0.7111 -0.7880
  153MOL   H16536949   6.150   2.828   4.335 -1.4920 -0.2570 -0.5425
  153MOL   H16636950   6.280   2.874   4.220  0.2441 -0.6114 -1.1988
  153MOL   H16736951   6.125   2.813   4.169  2.3013 -0.0197 -1.1192
  153MOL   H16836952   5.978   3.019   4.408  2.4998  2.5390  0.9658
  153MOL   H16936953   5.925   2.982   4.240  0.0216 -1.9112  1.2243
  153MOL   O17036954   5.952   3.245   4.417 -0.0301 -0.2274  0.7121
  153MOL   C17136955   5.857   3.330   4.473 -0.2254 -0.2113 -0.5448
  153MOL   C17236956   5.754   3.251   4.559  0.5289  0.6281  0.0221
  153MOL   C17336957   5.938   3.425   4.567  0.2026 -0.1054 -0.6611
  153MOL   C17436958   5.869   3.540   4.634  0.3997  0.0213  0.1278
  153MOL   O17536959   5.861   3.544   4.757  0.1966 -0.3080  0.3190
  153MOL   H17636960   5.809   3.383   4.391  0.9734 -0.3886 -1.3782
  153MOL   H17736961   5.806   3.195   4.637  0.8283 -1.7213 -1.8148
  153MOL   H17836962   5.708   3.181   4.488  1.5897 -0.7007  0.6221
  153MOL   H17936963   5.671   3.311   4.596  0.4611  1.2284 -1.0880
  153MOL   H18036964   6.006   3.472   4.497 -1.3796  0.3602 -1.9037
  153MOL   H18136965   5.994   3.369   4.643 -1.0832 -1.2806 -0.5505
  153MOL   O18236966   5.810   3.623   4.542 -0.0730  0.2863  0.3048
  153MOL   C18336967   5.735   3.727   4.597  1.0156 -0.5080  0.3231
  153MOL   C18436968   5.751   3.849   4.502  0.5412 -0.3895 -0.5665
  153MOL   C18536969   5.587   3.694   4.648 -0.1466 -0.3924  0.6204
  153MOL   C18636970   5.551   3.805   4.743 -0.3308  0.5203  0.3160
  153MOL   O18736971   5.465   3.886   4.715  0.0214 -0.0923  0.6079
  153MOL   H18836972   5.799   3.765   4.677 -0.9710  3.3718  0.1940
  153MOL   H18936973   5.692   3.933   4.539  1.3882 -0.1100  0.1482
  153MOL   H19036974   5.710   3.831   4.402 -0.2103 -0.7039 -0.2106
  153MOL   H19136975   5.855   3.879   4.489  0.8946 -0.1113  2.6190
  153MOL   H19236976   5.600   3.602   4.706 -1.4458 -0.8643  0.1707
  153MOL   H19336977   5.511   3.672   4.573  1.8041  2.2018 -2.2222
  153MOL   O19436978   5.623   3.805   4.859  0.0282 -0.1426 -0.3384
  153MOL   C19536979   5.607   3.910   4.957  0.2541  0.2236  0.7371
  153MOL   C19636980   5.595   3.830   5.088 -0.3846  0.4702 -0.4598
  153MOL   C19736981   5.743   3.996   4.967 -0.7973  0.3404  0.3191
  153MOL   C19836982   5.765   4.083   4.847 -0.5172 -0.3672 -0.0423
  153MOL   O19936983   5.843   4.039   4.757  0.1709 -0.0638  0.9031
  153MOL   H20036984   5.519   3.973   4.943 -0.1062  0.0612  2.1949
  153MOL   H20136985   5.588   3.905   5.167  0.5902 -0.1831  0.2636
  153MOL   H20236986   5.686   3.772   5.102  0.3546  1.9997  1.1664
  153MOL   H20336987   5.496   3.785   5.092  0.2009 -0.6122  2.4511
  153MOL   H20436988   5.837   3.942   4.973 -0.1583  1.4852  0.7079
  153MOL   H20536989   5.728   4.063   5.052 -2.2525  2.0571 -1.2423
  153MOL   O20636990   5.689   4.198   4.843  0.1650  0.3679  0.4788
  153MOL   C20736991   5.673   4.284   4.727  0.0611 -0.0944 -0.1953
  153MOL   C20836992   5.555   4.222   4.643 -0.3204 -0.5894  0.2151
  153MOL   C20936993   5.654   4.423   4.784  0.4157  0.6103  0.2119
  153MOL   C21036994   5.645   4.537   4.678  1.1424  0.1904  0.0690
  153MOL   O21136995   5.533   4.596   4.657 -0.5597  0.3230  0.4003
  153MOL   H21236996   5.764   4.282   4.668 -0.5787  0.8521 -1.2204
  153MOL   H21336997   5.534   4.291   4.561  1.5514 -0.1608  0.0719
  153MOL   H21436998   5.465   4.224   4.704  0.8736  2.5384  1.9998
  153MOL   H21536999   5.572   4.122   4.603 -1.6891 -0.3334 -1.0408
  153MOL   H21637000   5.734   4.456   4.850 -1.1983  1.4411  1.8244
  153MOL   H21737001   5.564   4.424   4.847  0.1121  0.2616 -0.2140
  153MOL   O21837002   5.765   4.555   4.608 -0.2483 -0.0451 -0.2336
  153MOL   C21937003   5.768   4.655   4.507 -0.5090 -0.0667  0.9222
  153MOL   C22037004   5.811   4.786   4.576 -0.0977  0.3655 -0.7938
  153MOL   C22137005   5.866   4.610   4.397  0.2817 -0.5393  0.4289
  153MOL   C22237006   5.846   4.700   4.277  0.4466  0.2772 -0.3168
  153MOL   O22337007   5.747   4.686   4.200 -0.8889 -0.1164  0.3460
  153MOL   H22437008   5.668   4.664   4.464 -0.7935 -0.8493  1.4173
  153MOL   H22537009   5.744   4.816   4.656 -1.4583 -2.8055 -0.6269
  153MOL   H22637010   5.829   4.870   4.509  0.2595 -0.3463 -1.6134
  153MOL   H22737011   5.911   4.779   4.617  0.0535  3.4094 -0.5918
  153MOL   H22837012   5.838   4.507   4.376  1.2150 -0.8283  0.5988
  153MOL   H22937013   5.968   4.598   4.433  1.0694  0.6407 -1.3099
  153MOL   O23037014   5.937   4.792   4.267  0.0216 -0.2359  0.0340
  153MOL   C23137015   5.914   4.908   4.181 -0.2667  0.1236 -0.0905
  153MOL   C23237016   5.943   5.028   4.261 -0.4988 -0.0436  0.0690
  153MOL   C23337017   6.015   4.892   4.064  0.1557 -0.0294 -0.0626
  153MOL   C23437018   5.975   4.980   3.944  0.2927 -0.1404  0.6621
  153MOL   O23537019   5.873   5.051   3.946  0.1267  0.5029  0.3950
  153MOL   H23637020   5.813   4.913   4.141  0.4464  1.9377 -1.7488
  153MOL   H23737021   6.044   5.031   4.302 -1.2518  1.2490  1.8749
  153MOL   H23837022   5.882   5.042   4.350 -0.8951  1.3340 -0.4055
  153MOL   H23937023   5.928   5.125   4.215  0.2936 -1.0642 -2.4520
  153MOL   H24037024   6.020   4.788   4.031  1.9958  0.1507 -0.4076
  153MOL   H24137025   6.117   4.923   4.087 -0.1129  3.4137 -3.0293
  153MOL   H24237026   6.049   4.982   3.865 -0.0987  1.3557  0.3201
  154MOL     O137027   3.458   7.718   7.528 -0.1232 -0.1190  0.1463
  154MOL     C237028   3.342   7.803   7.549 -0.1334  0.0247  0.6009
  154MOL     C337029   3.249   7.731   7.652  0.4828  0.4700  0.6477
  154MOL     C437030   3.390   7.941   7.593 -0.0724 -0.2502 -0.0546
  154MOL     C537031   3.283   0.065   7.608 -0.3581  0.6281  0.4197
  154MOL     O637032   3.247   0.111   7.718  0.1094  0.2006  0.3656
  154MOL     H737033   3.295   7.812   7.451 -0.9491  1.3295  1.0922
  154MOL     H837034   3.195   7.644   7.614  0.4510  0.3574  0.9488
  154MOL     H937035   3.177   7.804   7.689  0.4295  1.3328 -1.1146
  154MOL    H1037036   3.283   7.703   7.752  0.1380  1.2070  0.9673
  154MOL    H1137037   3.457   7.972   7.512 -0.5046  1.6704  0.3252
  154MOL    H1237038   3.456   7.936   7.680 -0.8058  3.1213  0.7577
  154MOL    H1337039   3.512   7.757   7.461  0.6103 -0.3519  0.5960
  154MOL    O1437040   3.228   0.095   7.483  0.4790  0.0905 -0.5825
  154MOL    C1537041   3.108   0.173   7.472  0.7190  0.4352  0.1690
  154MOL    C1637042   3.149   0.292   7.390 -0.4509  0.3975 -0.6176
  154MOL    C1737043   2.993   0.095   7.402  0.6644 -0.6457 -0.3122
  154MOL    C1837044   2.857   0.168   7.404  0.3000  0.1713 -0.1309
  154MOL    O1937045   2.841   0.274   7.462 -0.2318  0.4028 -0.7509
  154MOL    H2037046   3.079   0.208   7.571 -0.2219  0.2104 -0.0200
  154MOL    H2137047   3.067   0.357   7.359  0.7385  1.2379 -2.0888
  154MOL    H2237048   3.212   0.266   7.304  1.1533 -0.2570  0.7253
  154MOL    H2337049   3.219   0.349   7.452  2.7838 -3.0929 -0.8470
  154MOL    H2437050   2.976   7.975   7.442  0.5108 -0.4843  0.0331
  154MOL    H2537051   3.019   0.074   7.298  0.9015  1.7159 -0.7599
  154MOL    O2637052   2.773   0.097   7.333 -0.5291 -0.2158  0.6192
  154MOL    C2737053   2.635   0.142   7.305 -0.0948 -0.2656 -0.5359
  154MOL    C2837054   2.582   0.075   7.170  0.6500  0.3383  0.1219
  154MOL    C2937055   2.547   0.120   7.429 -0.4374 -0.3095  0.1970
  154MOL    C3037056   2.480   7.963   7.451 -0.1002  1.4100 -0.7567
  154MOL    O3137057   2.362   7.942   7.419 -0.3567  0.0035 -0.1395
  154MOL    H3237058   2.655   0.246   7.281  0.5379 -0.1836  0.3061
  154MOL    H3337059   2.569   7.947   7.175 -1.9459  0.5937 -0.2746
  154MOL    H3437060   2.650   0.082   7.085  0.1250  0.1613 -0.3169
  154MOL    H3537061   2.494   0.133   7.142  0.5771  0.6811  1.0489
  154MOL    H3637062   2.464   0.190   7.420  0.9103  1.2560 -0.4723
  154MOL    H3737063   2.601   0.153   7.518  0.0031 -3.9637  1.3441
  154MOL    O3837064   2.552   7.876   7.513  0.2652  0.4578 -0.3500
  154MOL    C3937065   2.517   7.738   7.515  0.2776  0.1737 -0.7712
  154MOL    C4037066   2.648   7.651   7.491  0.0293  0.4768 -0.1327
  154MOL    C4137067   2.450   7.712   7.654  0.4930 -0.7280 -0.5570
  154MOL    C4237068   2.403   7.568   7.671 -1.3940  1.0049  0.6443
  154MOL    O4337069   2.478   7.464   7.658  0.0761  0.1057  0.1943
  154MOL    H4437070   2.447   7.703   7.439  1.1073  0.5737 -1.7310
  154MOL    H4537071   2.717   7.647   7.575  1.2922  0.5779 -1.1386
  154MOL    H4637072   2.701   7.678   7.399  0.7159 -0.9453 -0.1740
  154MOL    H4737073   2.618   7.549   7.466 -0.2500  0.5901 -0.2567
  154MOL    H4837074   2.370   7.785   7.657  0.1237 -0.9383 -3.7902
  154MOL    H4937075   2.521   7.727   7.736  0.8688  0.1260 -1.0281
  154MOL    O5037076   2.278   7.568   7.713 -0.5199  0.2387 -0.4312
  154MOL    C5137077   2.222   7.451   7.771 -0.1230 -0.0911  0.2165
  154MOL    C5237078   2.110   7.506   7.856 -0.3972  0.4773  0.3753
  154MOL    C5337079   2.169   7.355   7.664 -0.4816  0.4364  0.0963
  154MOL    C5437080   2.107   7.231   7.732  0.4380 -0.2190 -0.1634
  154MOL    O5537081   1.989   7.225   7.770 -0.1353 -0.4523  0.4398
  154MOL    H5637082   2.288   7.390   7.833  0.9878  0.9569  0.0917
  154MOL    H5737083   2.138   7.590   7.919 -0.2765  0.0456  0.9019
  154MOL    H5837084   2.088   7.431   7.932 -0.8338 -0.1382 -0.3548
  154MOL    H5937085   2.019   7.541   7.807  0.4982  3.3111  0.6351
  154MOL    H6037086   2.257   7.334   7.603  0.9868 -0.3125  2.4037
  154MOL    H6137087   2.095   7.392   7.594  0.3901  0.0536 -1.0378
  154MOL    O6237088   2.198   7.137   7.744 -0.1367 -0.0351 -0.1619
  154MOL    C6337089   2.174   7.040   7.839  0.1247  0.1405  0.1723
  154MOL    C6437090   2.123   6.919   7.757  0.1927 -0.3576  0.0484
  154MOL    C6537091   2.306   7.016   7.913  0.0702  0.1420  0.3356
  154MOL    C6637092   2.312   7.106   0.056  0.2145  0.0996 -1.3022
  154MOL    O6737093   2.388   7.204   0.060 -0.1845  0.3201  0.2792
  154MOL    H6837094   2.099   7.073   7.911  1.4520  0.6071  1.3651
  154MOL    H6937095   2.040   6.939   7.689  0.5908 -1.3464 -0.7487
  154MOL    H7037096   2.095   6.835   7.820 -0.4180  0.2952  0.6510
  154MOL    H7137097   2.208   6.870   7.709 -1.2453 -0.8528 -2.0153
  154MOL    H7237098   2.389   7.046   7.849 -0.9423 -1.1304 -1.6133
  154MOL    H7337099   2.323   6.917   7.956  0.8776  0.3880  0.6010
  154MOL    O7437100   2.221   7.079   0.153  0.1184 -0.6561 -0.3225
  154MOL    C7537101   2.206   7.165   0.266 -0.1582  0.2549 -0.4554
  154MOL    C7637102   2.077   7.241   0.253 -0.0159  0.0990 -0.4785
  154MOL    C7737103   2.198   7.080   0.392 -0.5115 -0.3300  0.1970
  154MOL    C7837104   2.328   7.025   0.454  0.4585 -0.7005 -0.5946
  154MOL    O7937105   2.343   6.908   0.476 -0.4327 -0.0665  0.0842
  154MOL    H8037106   2.289   7.236   0.267 -1.1240  1.3942  0.9377
  154MOL    H8137107   1.993   7.171   0.247 -0.7493  0.8341  1.0189
  154MOL    H8237108   2.079   7.304   0.164 -1.0735 -0.6650 -1.0539
  154MOL    H8337109   2.062   7.313   0.333 -1.8849  1.5493 -2.0774
  154MOL    H8437110   2.131   6.994   0.392 -1.8762  0.7171 -0.4309
  154MOL    H8537111   2.164   7.153   0.465  0.0691 -0.0912  0.2354
  154MOL    O8637112   2.420   7.117   0.482 -0.0106 -0.7410 -0.2774
  154MOL    C8737113   2.543   7.097   0.562 -0.6790 -0.3491 -0.6287
  154MOL    C8837114   2.524   7.053   0.714  0.2744  0.6557  0.0822
  154MOL    C8937115   2.638   7.003   0.482  0.4728  0.1948  0.5535
  154MOL    C9037116   2.781   7.015   0.534 -0.6739 -0.5252 -0.0557
  154MOL    O9137117   2.842   6.920   0.588 -0.7402  0.3265  0.3263
  154MOL    H9237118   2.600   7.189   0.547 -0.4806 -0.7101 -2.1391
  154MOL    H9337119   2.618   7.054   0.770  0.7325 -3.0800 -0.4333
  154MOL    H9437120   2.478   6.954   0.713  1.5266  0.0400  1.0892
  154MOL    H9537121   2.459   7.134   0.746 -1.6892 -1.2072  0.9022
  154MOL    H9637122   2.629   7.028   0.376  0.4181  0.8416  0.7098
  154MOL    H9737123   2.614   6.897   0.495 -1.6064  0.3692 -1.4669
  154MOL    O9837124   2.824   7.142   0.516  0.0090  0.2863 -0.5771
  154MOL    C9937125   2.948   7.186   0.570  0.2920 -0.4448  0.2348
  154MOL   C10037126   3.032   7.279   0.478  0.3741 -0.0108  0.1143
  154MOL   C10137127   2.924   7.236   0.716  0.3585  0.1717 -0.2935
  154MOL   C10237128   2.838   7.365   0.735 -0.6124  0.1210 -0.2149
  154MOL   O10337129   2.715   7.360   0.712  0.2348  0.6748 -0.0414
  154MOL   H10437130   3.006   7.093   0.572  0.4693 -0.3309  0.4428
  154MOL   H10537131   2.996   7.382   0.485  2.4996  1.0441 -3.3697
  154MOL   H10637132   3.047   7.240   0.378  0.3089  1.0340 -0.3126
  154MOL   H10737133   3.132   7.276   0.521 -1.0967 -0.5638  3.6804
  154MOL   H10837134   3.020   7.255   0.763 -0.1979 -0.2528  1.0437
  154MOL   H10937135   2.885   7.151   0.772  0.2605 -0.1922 -0.8974
  154MOL   O11037136   2.904   7.473   0.786  0.3029 -0.3283  0.0114
  154MOL   C11137137   2.831   7.591   0.828 -0.4960 -0.3222  0.1551
  154MOL   C11237138   2.807   7.585   0.981  0.5566 -0.0345  0.6639
  154MOL   C11337139   2.918   7.716   0.783  0.2439  0.8211  0.1046
  154MOL   C11437140   3.056   7.730   0.843 -0.5594 -0.2801 -0.4155
  154MOL   O11537141   3.085   7.832   0.908  0.1097  0.0221  0.5445
  154MOL   H11637142   2.740   7.611   0.772  2.2075  3.8624 -3.0292
  154MOL   H11737143   2.733   7.509   1.005  0.0701  0.3116  0.2762
  154MOL   H11837144   2.773   7.683   1.014  1.6930 -0.3458  2.8506
  154MOL   H11937145   2.894   7.545   1.033  0.0339 -2.1028  0.0161
  154MOL   H12037146   2.867   7.810   0.805  1.8286  1.6879  0.1073
  154MOL   H12137147   2.926   7.728   0.675  1.3008  1.3166  0.2329
  154MOL   O12237148   3.142   7.622   0.820  1.0139 -0.6532  0.3372
  154MOL   C12337149   3.266   7.620   0.882 -0.3518  0.0435 -0.4034
  154MOL   C12437150   3.265   7.486   0.963 -0.3573  0.4473  0.6972
  154MOL   C12537151   3.382   7.626   0.777 -0.4115  0.5591  0.3357
  154MOL   C12637152   3.413   7.750   0.703  0.6838 -0.4860  0.2012
  154MOL   O12737153   3.521   7.774   0.656  0.0465 -0.2581  0.4898
  154MOL   H12837154   3.271   7.703   0.953 -1.3040  0.9917 -1.4303
  154MOL   H12937155   3.282   7.399   0.900  1.1726  1.8511 -0.8713
  154MOL   H13037156   3.176   7.481   1.026 -1.1759  2.3593 -0.2417
  154MOL   H13137157   3.345   7.497   1.035  3.0751  0.1843 -2.9257
  154MOL   H13237158   3.389   7.538   0.713  0.8565  0.5986  0.4151
  154MOL   H13337159   3.475   7.622   0.835  0.8332 -0.6428 -1.7023
  154MOL   O13437160   3.309   7.833   0.696  0.0153  0.3257 -0.0995
  154MOL   C13537161   3.316   7.958   0.620  0.1133 -0.1959 -0.0347
  154MOL   C13637162   3.176   0.025   0.576  0.0936  0.0988 -0.4465
  154MOL   C13737163   3.402   0.082   0.693 -0.2285 -0.7624  0.7242
  154MOL   C13837164   3.347   0.119   0.833  0.1949  0.2690  0.6308
  154MOL   O13937165   3.281   0.225   0.856  0.3925  0.3158 -0.3522
  154MOL   H14037166   3.359   7.929   0.524  2.3748 -0.5035  1.0377
  154MOL   H14137167   3.101   0.026   0.655 -2.8004  4.3592 -3.0309
  154MOL   H14237168   3.127   7.947   0.497  0.5752 -0.4867 -0.3212
  154MOL   H14337169   3.182   0.130   0.548  0.2758  0.4141  0.7578
  154MOL   H14437170   3.407   0.173   0.633  1.2954 -1.1704  0.2071
  154MOL   H14537171   3.507   0.052   0.696  1.0247  2.8058 -2.6010
  154MOL   O14637172   3.375   0.030   0.924 -0.5131  0.9906 -0.2445
  154MOL   C14737173   3.360   0.057   1.062 -0.5313  0.0666  0.8257
  154MOL   C14837174   3.326   7.900   1.131  0.2036  0.1747  0.4172
  154MOL   C14937175   3.498   0.124   1.100  0.1338 -0.9290  0.3563
  154MOL   C15037176   3.518   0.144   1.245 -0.0402 -0.4734 -0.6735
  154MOL   O15137177   3.606   0.092   1.305  0.2571  0.5357 -0.3017
  154MOL   H15237178   3.286   0.133   1.086 -1.5041 -1.2364  2.0416
  154MOL   H15337179   3.235   7.852   1.095  0.5478 -0.2650  0.1224
  154MOL   H15437180   3.329   7.904   1.239 -0.5433  1.0073  0.4177
  154MOL   H15537181   3.414   7.837   1.114 -1.1133 -0.7440 -3.7741
  154MOL   H15637182   3.500   0.222   1.053 -0.4154 -1.3641 -0.5783
  154MOL   H15737183   3.581   0.064   1.061 -0.5750  0.2794 -3.1509
  154MOL   O15837184   3.429   0.229   1.296 -0.3015  0.2284 -0.1498
  154MOL   C15937185   3.442   0.261   1.429  0.1982  0.5173 -0.1127
  154MOL   C16037186   3.547   0.380   1.450  0.5280 -0.3258  0.1250
  154MOL   C16137187   3.297   0.294   1.487  0.1436  0.1835 -0.0364
  154MOL   C16237188   3.304   0.307   1.640 -0.1618  0.0957 -0.1182
  154MOL   O16337189   3.343   0.216   1.716  0.6453 -0.2819 -0.2376
  154MOL   H16437190   3.484   0.176   1.483  0.9939  1.0253  0.0769
  154MOL   H16537191   3.504   0.463   1.394  0.6828  0.1520  0.7069
  154MOL   H16637192   3.646   0.367   1.406 -0.3855  1.1013 -2.4804
  154MOL   H16737193   3.548   0.403   1.556 -1.6201 -0.5196  0.2157
  154MOL   H16837194   3.222   0.225   1.450  0.3793 -0.2745  0.3354
  154MOL   H16937195   3.263   0.395   1.461  0.6602  0.3625 -0.0214
  154MOL   O17037196   3.290   0.430   1.685 -0.1832  0.0133  0.5092
  154MOL   C17137197   3.319   0.475   1.821 -0.0490 -0.0190  0.2889
  154MOL   C17237198   3.429   0.580   1.805 -0.2963  0.0780  0.0206
  154MOL   C17337199   3.189   0.540   1.867 -0.7974 -0.0139  0.4471
  154MOL   C17437200   3.079   0.449   1.918 -0.1346 -0.2776 -0.3145
  154MOL   O17537201   3.081   0.327   1.910 -0.4085 -0.3740 -0.5062
  154MOL   H17637202   3.363   0.402   1.888 -0.7807  0.2116  1.0279
  154MOL   H17737203   3.406   0.654   1.728  0.1955  0.3606  0.1461
  154MOL   H17837204   3.516   0.523   1.774 -0.3421 -1.1625  2.0972
  154MOL   H17937205   3.451   0.626   1.901  0.1131  0.2842 -0.1753
  154MOL   H18037206   3.156   0.609   1.789 -1.7616 -1.2080 -0.1974
  154MOL   H18137207   3.221   0.601   1.953  2.4691 -0.4108 -0.4181
  154MOL   O18237208   2.976   0.517   1.948  0.3127  0.3506  0.7206
  154MOL   C18337209   2.845   0.462   1.950  0.2391 -0.1271 -0.5083
  154MOL   C18437210   2.803   0.450   2.093  0.1682 -0.0635 -0.5648
  154MOL   C18537211   2.761   0.562   1.875 -0.1125  0.5682  1.3430
  154MOL   C18637212   2.769   0.564   1.717 -0.7323  0.2983  0.5160
  154MOL   O18737213   2.700   0.633   1.646 -0.2210  0.2045 -0.7289
  154MOL   H18837214   2.831   0.370   1.893  2.9024 -0.2089 -1.0994
  154MOL   H18937215   2.795   0.549   2.137  0.4404  0.7836 -2.3682
  154MOL   H19037216   2.864   0.386   2.158 -1.1106 -0.2789  0.4500
  154MOL   H19137217   2.706   0.402   2.098  0.2302  0.0319  2.4886
  154MOL   H19237218   2.794   0.663   1.898  1.5432  0.1182  0.9450
  154MOL   H19337219   2.655   0.544   1.894  0.3901 -1.8991  2.0046
  154MOL   O19437220   2.872   0.485   1.665  0.5278 -0.7414 -0.0121
  154MOL   C19537221   2.867   0.458   1.524  0.3858 -0.6085  0.4991
  154MOL   C19637222   2.966   0.547   1.457  0.0080  0.2739 -0.4346
  154MOL   C19737223   2.901   0.312   1.498 -0.3360  0.4367 -0.4882
  154MOL   C19837224   2.779   0.224   1.503  0.5309 -1.1628 -0.9649
  154MOL   O19937225   2.722   0.190   1.396  0.0332 -0.0393  0.2314
  154MOL   H20037226   2.772   0.489   1.481  0.1212 -2.8327 -0.5719
  154MOL   H20137227   2.954   0.653   1.475  1.6565  1.3427 -5.0430
  154MOL   H20237228   2.976   0.522   1.352 -1.8484 -2.0685 -0.1157
  154MOL   H20337229   3.060   0.517   1.505 -0.2321  0.5900  0.2450
  154MOL   H20437230   2.986   0.277   1.557 -0.0227  0.7977 -0.7160
  154MOL   H20537231   2.951   0.297   1.402  0.0058 -0.2941 -0.1955
  154MOL   O20637232   2.740   0.183   1.631 -0.7363 -0.0449  0.3196
  154MOL   C20737233   2.629   0.092   1.635 -0.2735 -0.2878 -0.0402
  154MOL   C20837234   2.655   0.024   1.777  1.0695 -0.5837 -0.6330
  154MOL   C20937235   2.490   0.155   1.628 -1.1073  0.3136 -0.1422
  154MOL   C21037236   2.439   0.249   1.740  0.3100  0.5806 -0.0663
  154MOL   O21137237   2.497   0.358   1.759  0.0521 -0.5754 -0.5976
  154MOL   H21237238   2.647   0.013   1.562  0.3896 -0.7432  0.6059
  154MOL   H21337239   2.754   7.959   1.782  1.3724  0.2349  1.3064
  154MOL   H21437240   2.583   7.921   1.780 -0.2905  0.6103  1.0239
  154MOL   H21537241   2.632   0.082   1.867  1.9226 -1.0406 -0.1151
  154MOL   H21637242   2.413   0.078   1.627  0.1293 -0.9387 -0.6696
  154MOL   H21737243   2.475   0.201   1.530  0.7555  0.0008 -0.6120
  154MOL   O21837244   2.329   0.201   1.805  0.2289 -0.1166 -0.4150
  154MOL   C21937245   2.291   0.273   1.925 -0.3129  0.6393 -0.2596
  154MOL   C22037246   2.139   0.262   1.925  0.0129 -0.0232 -0.1583
  154MOL   C22137247   2.357   0.203   2.041  0.2424  0.2182  0.2153
  154MOL   C22237248   2.426   0.300   2.137 -0.9352 -0.1481 -0.0974
  154MOL   O22337249   2.526   0.260   2.196  0.3048  0.1482 -0.0263
  154MOL   H22437250   2.327   0.375   1.914 -0.7348  0.7481 -0.6744
  154MOL   H22537251   2.088   0.308   1.841  1.9319  2.3121 -0.0869
  154MOL   H22637252   2.106   0.311   2.017 -1.2981 -1.8706  0.3814
  154MOL   H22737253   2.105   0.159   1.929 -1.5939  0.5242  0.5621
  154MOL   H22837254   2.431   0.126   2.019 -0.2017  0.5573 -2.7884
  154MOL   H22937255   2.279   0.159   2.103 -1.1059  1.2803 -0.6839
  154MOL   O23037256   2.365   0.416   2.153  0.3484  0.6929  0.9514
  154MOL   C23137257   2.413   0.512   2.251  0.7037 -0.7503  0.2714
  154MOL   C23237258   2.424   0.638   2.177 -0.1050  0.2235  0.4937
  154MOL   C23337259   2.305   0.531   2.367  0.5163 -0.8723  0.3028
  154MOL   C23437260   2.313   0.419   2.472 -0.4100 -0.3908 -0.8701
  154MOL   O23537261   2.290   0.440   2.591  0.3995 -0.0427 -0.0798
  154MOL   H23637262   2.506   0.487   2.302  1.8176  1.7368 -0.4617
  154MOL   H23737263   2.331   0.645   2.122 -0.5215 -0.7034  1.0709
  154MOL   H23837264   2.511   0.642   2.111  0.4981  0.1824  1.2672
  154MOL   H23937265   2.439   0.727   2.239  1.3469  0.7512 -0.5706
  154MOL   H24037266   2.207   0.526   2.318  0.6415  1.8572 -0.3032
  154MOL   H24137267   2.325   0.622   2.424 -0.0665 -1.2590  1.1447
  154MOL   H24237268   2.323   0.317   2.436  0.5241 -0.6183  0.0099
  155MOL     O137269   3.454   2.373   7.429  0.1951 -0.2218  0.7038
  155MOL     C237270   3.375   2.480   7.389 -0.1595 -0.5265 -0.1452
  155MOL     C337271   3.441   2.604   7.451  0.0947  0.1090  0.2289
  155MOL     C437272   3.365   2.460   7.243  0.3169  0.5445 -0.2779
  155MOL     C537273   3.232   2.525   7.185  0.1474 -0.3450 -0.0122
  155MOL     O637274   3.122   2.493   7.228  0.0698  0.7418  0.0655
  155MOL     H737275   3.276   2.457   7.429 -0.9897  3.0425  0.0382
  155MOL     H837276   3.443   2.607   7.560 -2.3490 -0.5175  0.3215
  155MOL     H937277   3.386   2.689   7.412 -1.1594 -0.3224  1.0541
  155MOL    H1037278   3.540   2.618   7.407 -0.3794  3.4512  0.1165
  155MOL    H1137279   3.382   2.357   7.213  3.1554  0.7806  0.3932
  155MOL    H1237280   3.451   2.518   7.209  2.7524 -2.0116  1.3897
  155MOL    H1337281   3.515   2.345   7.362  1.7310  0.9044  1.6010
  155MOL    O1437282   3.252   2.618   7.076  0.7570  0.1776 -0.3101
  155MOL    C1537283   3.144   2.697   7.021  0.0728  1.1935 -0.0727
  155MOL    C1637284   3.218   2.833   7.005 -0.3640 -0.5263  0.4100
  155MOL    C1737285   3.090   2.624   6.902 -0.5341 -0.4642 -0.6751
  155MOL    C1837286   2.968   2.690   6.835 -0.9726 -0.6690  0.0292
  155MOL    O1937287   2.860   2.670   6.884  0.1584 -0.4309 -1.1286
  155MOL    H2037288   3.067   2.723   7.094  0.3419  1.4401  0.1280
  155MOL    H2137289   3.307   2.813   6.945  0.7079  1.5652  1.2467
  155MOL    H2237290   3.248   2.886   7.096  0.0033  2.2417 -1.2566
  155MOL    H2337291   3.165   2.915   6.957 -0.2782  1.1454  3.0479
  155MOL    H2437292   3.051   2.528   6.938  0.9674 -1.0637 -0.6321
  155MOL    H2537293   3.176   2.604   6.839  1.4122  2.0592  1.0918
  155MOL    O2637294   3.001   2.766   6.726 -0.2557  0.0320 -0.4290
  155MOL    C2737295   2.904   2.848   6.672  0.0256 -0.1794  0.7667
  155MOL    C2837296   2.992   2.969   6.644  0.3793  0.2309 -0.0096
  155MOL    C2937297   2.826   2.800   6.546  0.4122  0.5356 -0.0413
  155MOL    C3037298   2.719   2.688   6.572 -0.0381 -0.6109  0.0067
  155MOL    O3137299   2.599   2.707   6.569 -0.2174  0.3492  0.6406
  155MOL    H3237300   2.839   2.892   6.747  0.0667  1.1746  0.0142
  155MOL    H3337301   3.074   2.953   6.574 -0.0816 -1.3832 -0.2014
  155MOL    H3437302   3.031   3.003   6.739  0.2391  1.4795 -0.3922
  155MOL    H3537303   2.929   3.046   6.600 -0.2036 -1.2409 -1.8507
  155MOL    H3637304   2.900   2.767   6.472 -1.2255 -0.2944 -1.3419
  155MOL    H3737305   2.763   2.882   6.511  0.3434  1.3290  1.9099
  155MOL    O3837306   2.773   2.574   6.597 -0.2927  0.9059  0.6720
  155MOL    C3937307   2.704   2.453   6.627  0.4220 -0.0136  0.7158
  155MOL    C4037308   2.788   2.343   6.569 -0.4081  0.1199  0.4201
  155MOL    C4137309   2.679   2.448   6.774  0.2003 -0.4603 -0.2205
  155MOL    C4237310   2.570   2.352   6.822 -0.8675 -0.7695 -0.0687
  155MOL    O4337311   2.487   2.381   6.904  0.4766  0.0906  0.4590
  155MOL    H4437312   2.605   2.445   6.582  0.8211  1.3199 -0.4356
  155MOL    H4537313   2.816   2.349   6.464 -0.8322  1.5906  0.3714
  155MOL    H4637314   2.735   2.249   6.579 -0.5091  0.1991  0.6348
  155MOL    H4737315   2.881   2.349   6.625 -0.4690 -0.0492  0.5369
  155MOL    H4837316   2.663   2.547   6.816  1.7410  1.0985 -3.1085
  155MOL    H4937317   2.775   2.425   6.820 -0.0870 -1.8057 -0.2954
  155MOL    O5037318   2.596   2.228   6.791  0.1898 -0.6427  0.1627
  155MOL    C5137319   2.545   2.117   6.858  0.3777  0.0568  0.5942
  155MOL    C5237320   2.394   2.102   6.861  0.5842 -0.1726 -0.3195
  155MOL    C5337321   2.625   1.993   6.819  0.1827 -0.2209  0.2955
  155MOL    C5437322   2.773   1.997   6.864  0.2968  0.7429 -0.1608
  155MOL    O5537323   2.798   2.001   6.987 -0.6068 -0.2130  1.0575
  155MOL    H5637324   2.573   2.140   6.960  1.1180 -1.2922  0.7050
  155MOL    H5737325   2.366   2.001   6.892  0.2625 -0.2211 -0.7563
  155MOL    H5837326   2.345   2.113   6.764 -0.4590  1.3317  0.3575
  155MOL    H5937327   2.354   2.172   6.933  2.6839  1.1490 -0.3924
  155MOL    H6037328   2.627   1.977   6.711 -0.0927  1.6335 -0.0008
  155MOL    H6137329   2.589   1.903   6.868  1.1826 -0.2627  0.9652
  155MOL    O6237330   2.865   1.991   6.764 -0.1031  0.1866  0.2532
  155MOL    C6337331   3.009   2.012   6.786 -0.2889 -0.0012  0.6332
  155MOL    C6437332   3.099   1.917   6.696  0.8991  0.6571  0.3334
  155MOL    C6537333   3.053   2.166   6.766 -0.2986  0.3383  0.0464
  155MOL    C6637334   3.184   2.197   6.834 -0.0084  0.3109 -0.2209
  155MOL    O6737335   3.181   2.266   6.936  0.0114  0.1580 -0.5399
  155MOL    H6837336   3.023   1.980   6.890  1.0488 -0.4047  0.3413
  155MOL    H6937337   3.098   1.815   6.733  0.8860  0.8760  0.9491
  155MOL    H7037338   3.204   1.944   6.693  1.1345 -0.0406  1.8456
  155MOL    H7137339   3.054   1.909   6.597  0.6026  0.3563  0.4920
  155MOL    H7237340   2.975   2.239   6.787 -0.1329  0.8773 -1.1736
  155MOL    H7337341   3.073   2.178   6.660  1.2493  2.0512  0.5012
  155MOL    O7437342   3.298   2.159   6.763 -0.6035 -0.0322 -0.2350
  155MOL    C7537343   3.430   2.191   6.810  0.2251 -0.0689 -0.1950
  155MOL    C7637344   3.516   2.066   6.795  0.1188  0.0205 -0.8606
  155MOL    C7737345   3.477   2.307   6.718 -0.1362 -0.0019  0.9045
  155MOL    C7837346   3.588   2.381   6.790  0.9344 -0.0458 -0.3052
  155MOL    O7937347   3.684   2.321   6.841 -0.0399  0.1995  0.0906
  155MOL    H8037348   3.440   2.217   6.915  1.4567 -1.0506 -0.0579
  155MOL    H8137349   3.476   2.004   6.716  0.0648 -0.3269 -0.5617
  155MOL    H8237350   3.503   2.015   6.891 -0.6074 -2.8524 -2.4456
  155MOL    H8337351   3.621   2.095   6.789 -0.1208  1.4315  0.9361
  155MOL    H8437352   3.395   2.369   6.681  2.4808  2.3524 -1.1928
  155MOL    H8537353   3.514   2.268   6.622  0.5789 -0.9319  1.5486
  155MOL    O8637354   3.564   2.507   6.818 -0.1467 -0.1125  0.3942
  155MOL    C8737355   3.651   2.591   6.897  0.6533 -0.3084  0.8890
  155MOL    C8837356   3.748   2.639   6.791  0.4654 -0.3271 -0.3731
  155MOL    C8937357   3.574   2.700   6.966  0.4487  0.5092  0.0761
  155MOL    C9037358   3.655   2.774   7.064  0.4345 -0.1681  0.1184
  155MOL    O9137359   3.687   2.740   7.178 -0.1686 -0.3817  0.1629
  155MOL    H9237360   3.715   2.535   6.965  1.5721  0.6943  0.8639
  155MOL    H9337361   3.831   2.681   6.847 -1.0738 -0.1007  1.8009
  155MOL    H9437362   3.707   2.713   6.722 -1.1028 -0.2939  0.5563
  155MOL    H9537363   3.792   2.559   6.731 -0.0594  0.3358 -1.6706
  155MOL    H9637364   3.495   2.664   7.032  0.1907  3.1875  1.3048
  155MOL    H9737365   3.531   2.767   6.892  0.6487 -0.0991 -0.6022
  155MOL    O9837366   3.692   2.888   7.000 -0.2964  0.2676  0.0624
  155MOL    C9937367   3.759   2.996   7.071  0.5010  0.2208 -0.1193
  155MOL   C10037368   3.907   3.008   7.031  0.3240  0.1031  0.3115
  155MOL   C10137369   3.688   3.136   7.053  0.7543 -0.0002  0.0740
  155MOL   C10237370   3.550   3.137   7.121  0.0363  0.1429  0.2194
  155MOL   O10337371   3.450   3.117   7.052  0.3695  0.6165 -0.2024
  155MOL   H10437372   3.750   2.980   7.178 -0.4386 -1.3864 -0.4249
  155MOL   H10537373   3.950   2.908   7.040 -0.3978 -0.2323  0.0541
  155MOL   H10637374   3.966   3.066   7.102  1.7611 -0.8927 -0.0488
  155MOL   H10737375   3.933   3.055   6.936 -2.3849  0.4964 -0.2637
  155MOL   H10837376   3.675   3.140   6.945 -1.1322 -1.9411  0.1846
  155MOL   H10937377   3.739   3.228   7.081  0.6310  0.1655 -0.2391
  155MOL   O11037378   3.554   3.165   7.245  0.2303 -0.4011 -0.3771
  155MOL   C11137379   3.439   3.175   7.322 -0.1247  0.5361 -0.7202
  155MOL   C11237380   3.408   3.052   7.402 -0.7318  0.5681 -0.4280
  155MOL   C11337381   3.441   3.310   7.402  0.1591  0.6339 -0.9908
  155MOL   C11437382   3.303   3.337   7.461  0.6113 -0.2198  0.4134
  155MOL   O11537383   3.288   3.340   7.586 -0.2932 -0.4992 -0.5031
  155MOL   H11637384   3.349   3.175   7.260 -1.5870 -0.0234  1.3241
  155MOL   H11737385   3.419   2.960   7.345  1.2720  1.0519 -0.8410
  155MOL   H11837386   3.306   3.049   7.439  0.0059  1.1182  1.7389
  155MOL   H11937387   3.488   3.051   7.476 -0.7416 -0.9940 -0.4315
  155MOL   H12037388   3.481   3.394   7.345 -1.5124  1.7798 -0.5282
  155MOL   H12137389   3.501   3.307   7.493 -0.5861  1.5458 -0.4579
  155MOL   O12237390   3.210   3.359   7.364 -0.2011 -0.3485 -0.1529
  155MOL   C12337391   3.067   3.353   7.398  0.3775 -0.5671  0.4003
  155MOL   C12437392   3.025   3.497   7.432 -0.4347 -0.0428 -0.5995
  155MOL   C12537393   2.976   3.292   7.293  0.3526 -0.1849  0.1359
  155MOL   C12637394   3.013   3.148   7.245 -0.3723 -0.3926  0.0127
  155MOL   O12737395   3.093   3.133   7.158  0.3368  0.2126  0.5217
  155MOL   H12837396   3.042   3.302   7.492  0.2764 -2.4801 -0.6431
  155MOL   H12937397   3.108   3.551   7.386  0.0509  0.6655  1.1032
  155MOL   H13037398   3.016   3.522   7.537  0.7144  0.7787 -0.6940
  155MOL   H13137399   2.927   3.519   7.390 -1.0008  1.7568  1.6070
  155MOL   H13237400   2.975   3.358   7.206 -0.2426 -0.1540  0.1655
  155MOL   H13337401   2.889   3.297   7.359  1.3402 -0.2290  1.4625
  155MOL   O13437402   2.955   3.051   7.310  0.2331  0.2760  0.4383
  155MOL   C13537403   2.967   2.910   7.272 -0.4239  0.0479 -0.3888
  155MOL   C13637404   3.053   2.846   7.386 -0.2327  0.0108  0.0099
  155MOL   C13737405   2.831   2.847   7.258  0.4229  0.8996 -0.0926
  155MOL   C13837406   2.746   2.897   7.134  0.0516  0.3696  0.6478
  155MOL   O13937407   2.789   2.968   7.048 -0.7877 -0.1035  0.2923
  155MOL   H14037408   3.016   2.915   7.175 -0.2652 -0.3177 -0.3289
  155MOL   H14137409   3.068   2.742   7.360  1.7659 -0.6609  3.6360
  155MOL   H14237410   3.006   2.864   7.482 -0.9312 -0.2907 -0.2764
  155MOL   H14337411   3.147   2.900   7.398  0.9286 -1.6367 -1.5248
  155MOL   H14437412   2.772   2.860   7.349 -0.5960  0.6084 -0.7014
  155MOL   H14537413   2.840   2.739   7.247 -0.6197  0.5787  1.8080
  155MOL   O14637414   2.623   2.845   7.142  0.0522 -0.0788  0.6361
  155MOL   C14737415   2.522   2.866   7.042  0.0933 -0.1284 -0.3428
  155MOL   C14837416   2.550   2.795   6.909  0.2828  0.5768 -0.6524
  155MOL   C14937417   2.392   2.815   7.102 -0.1876 -0.2717 -0.4386
  155MOL   C15037418   2.339   2.896   7.219  0.0155 -0.7374 -0.5536
  155MOL   O15137419   2.279   2.840   7.308 -0.0152 -0.3208 -0.9183
  155MOL   H15237420   2.510   2.974   7.025 -0.1833 -0.2758 -1.1322
  155MOL   H15337421   2.474   2.814   6.833  0.4821  0.2849 -0.9272
  155MOL   H15437422   2.545   2.687   6.923 -1.9613  0.6850 -0.4486
  155MOL   H15537423   2.641   2.832   6.860  0.4715  2.2619  0.9098
  155MOL   H15637424   2.409   2.714   7.138 -0.3206 -0.1351  0.0132
  155MOL   H15737425   2.314   2.819   7.027 -2.6113 -2.7205  1.8428
  155MOL   O15837426   2.385   3.016   7.228  0.1897  0.0788 -0.2815
  155MOL   C15937427   2.340   3.114   7.326  0.4819  0.3099 -0.0424
  155MOL   C16037428   2.469   3.159   7.386  0.8229 -0.4684 -0.1287
  155MOL   C16137429   2.269   3.226   7.258 -0.1356  0.4878  0.2311
  155MOL   C16237430   2.184   3.307   7.367 -0.6359 -0.4302  0.5801
  155MOL   O16337431   2.222   3.424   7.387 -0.0501  0.2115  0.3990
  155MOL   H16437432   2.277   3.071   7.403  0.9589  1.9276  1.2790
  155MOL   H16537433   2.524   3.073   7.425 -1.4417 -0.9301  2.2026
  155MOL   H16637434   2.455   3.227   7.470 -0.9629  1.2894 -1.8054
  155MOL   H16737435   2.520   3.223   7.314 -0.9175  2.3640  1.0998
  155MOL   H16837436   2.195   3.176   7.195  1.3550 -0.9750 -0.4120
  155MOL   H16937437   2.333   3.280   7.189  0.7293 -1.2735 -0.3774
  155MOL   O17037438   2.074   3.250   7.417 -0.6153  0.0683 -0.2658
  155MOL   C17137439   1.989   3.321   7.504  0.0956  0.0352  0.4457
  155MOL   C17237440   1.875   3.388   7.418 -0.3237  0.3818 -0.7563
  155MOL   C17337441   1.930   3.219   7.598  0.7220 -0.4074 -0.0640
  155MOL   C17437442   2.024   3.193   7.712  0.5867 -0.8859 -0.0675
  155MOL   O17537443   2.073   3.277   7.787  0.1310  0.2066 -0.2436
  155MOL   H17637444   2.061   3.385   7.557  2.8557 -0.4956 -2.5296
  155MOL   H17737445   1.928   3.451   7.347 -0.3083  1.6319  0.3605
  155MOL   H17837446   1.825   3.462   7.480  1.3053  1.1060 -0.2890
  155MOL   H17937447   1.797   3.318   7.386 -0.9669  0.4442  0.6322
  155MOL   H18037448   1.906   3.135   7.533 -0.7082  0.3467 -0.5324
  155MOL   H18137449   1.848   3.258   7.657  1.7463  0.5277  0.7694
  155MOL   O18237450   2.043   3.058   7.727  0.2400 -0.1999  0.0823
  155MOL   C18337451   2.115   3.013   7.841 -0.4342  0.1894  0.1184
  155MOL   C18437452   2.039   2.889   7.905 -0.9277  0.4546  0.2490
  155MOL   C18537453   2.267   2.987   7.805 -0.0990  0.6055  0.0695
  155MOL   C18637454   2.357   2.933   7.920  0.9689 -0.2433  0.1987
  155MOL   O18737455   2.422   3.011   0.003 -0.3697 -0.5487 -0.1081
  155MOL   H18837456   2.124   3.091   7.916 -2.1912  0.5573 -0.0434
  155MOL   H18937457   2.084   2.855   0.019  0.0461  1.8293  0.2984
  155MOL   H19037458   2.053   2.807   7.835  1.3511 -1.0914  2.4004
  155MOL   H19137459   1.936   2.922   7.916 -1.1109  0.1370 -0.4645
  155MOL   H19237460   2.311   3.075   7.758  0.1515  1.2018  1.4021
  155MOL   H19337461   2.274   2.901   7.738 -0.2289  1.8025 -1.5147
  155MOL   O19437462   2.348   2.794   7.934  0.0471 -0.2033  0.0181
  155MOL   C19537463   2.422   2.728   0.058  0.2631 -0.0342 -0.2633
  155MOL   C19637464   2.319   2.638   0.124  0.5098 -0.4308 -0.6829
  155MOL   C19737465   2.553   2.660   0.006  0.1792 -0.2724  0.4151
  155MOL   C19837466   2.549   2.611   7.843 -0.3569  0.0161 -0.2194
  155MOL   O19937467   2.494   2.502   7.819  0.5406 -0.0039 -0.4080
  155MOL   H20037468   2.450   2.804   0.131  2.4382  0.3222 -1.4412
  155MOL   H20137469   2.250   2.692   0.188 -0.1660 -3.5089  1.3109
  155MOL   H20237470   2.357   2.564   0.194  1.8560 -0.0641 -1.0159
  155MOL   H20337471   2.270   2.586   0.042  0.8400  0.5410 -1.4978
  155MOL   H20437472   2.574   2.573   0.069  1.4599  1.3188  2.2148
  155MOL   H20537473   2.638   2.724   0.024  1.3174 -2.1890  2.0625
  155MOL   O20637474   2.575   2.701   7.753 -0.1817  0.7251  0.1258
  155MOL   C20737475   2.555   2.681   7.609  0.2129 -0.5952 -0.1260
  155MOL   C20837476   2.555   2.819   7.544 -0.8841 -0.4322 -0.4216
  155MOL   C20937477   2.663   2.590   7.552  0.0579  0.0725  0.5011
  155MOL   C21037478   2.629   2.522   7.414  0.2497  0.1767 -0.4733
  155MOL   O21137479   2.525   2.562   7.353 -0.6094 -0.0546  0.3595
  155MOL   H21237480   2.456   2.641   7.584 -1.2776  2.5420  0.5362
  155MOL   H21337481   2.519   2.813   7.441 -0.4625 -3.0707 -0.4623
  155MOL   H21437482   2.640   2.886   7.555 -1.3128  0.0072  0.2336
  155MOL   H21537483   2.472   2.874   7.588 -1.0629 -0.7990 -0.2951
  155MOL   H21637484   2.675   2.504   7.618 -1.2325 -0.0503  0.5978
  155MOL   H21737485   2.763   2.632   7.548 -0.6190  1.6066 -0.6650
  155MOL   O21837486   2.716   2.426   7.374 -0.4357  0.6817  0.3353
  155MOL   C21937487   2.690   2.356   7.254  0.2174 -0.9996 -0.1149
  155MOL   C22037488   2.812   2.368   7.169  0.0394 -0.1372 -0.3335
  155MOL   C22137489   2.652   2.216   7.297  0.0801  1.1416 -0.1939
  155MOL   C22237490   2.757   2.130   7.364  0.0591  0.4223 -0.2602
  155MOL   O22337491   2.793   2.148   7.482  0.2581 -0.1758  0.1286
  155MOL   H22437492   2.612   2.397   7.189  1.2190 -0.2356 -0.8545
  155MOL   H22537493   2.820   2.469   7.128 -0.8187 -0.7759 -2.1291
  155MOL   H22637494   2.810   2.294   7.090  1.8362 -1.0555  0.4614
  155MOL   H22737495   2.904   2.343   7.222  0.7919  0.6431 -1.2546
  155MOL   H22837496   2.609   2.146   7.226 -1.6954  1.5335  0.4559
  155MOL   H22937497   2.563   2.219   7.360 -0.3860 -0.4890 -0.7553
  155MOL   O23037498   2.818   2.053   7.275 -0.3764  0.6662  0.0702
  155MOL   C23137499   2.927   1.970   7.313 -0.0313  0.2610  0.6541
  155MOL   C23237500   2.880   1.827   7.294  0.6816  0.2612  0.2322
  155MOL   C23337501   3.044   2.008   7.218  0.0179  0.4517  0.2756
  155MOL   C23437502   3.149   1.895   7.186  0.0056 -0.2569 -0.5999
  155MOL   O23537503   3.206   1.852   7.284 -0.4975 -0.0667 -0.4096
  155MOL   H23637504   2.959   1.981   7.417 -2.7761 -2.0251  1.7960
  155MOL   H23737505   2.880   1.807   7.186  4.0264 -0.1031  0.2251
  155MOL   H23837506   2.777   1.828   7.328  0.5676  0.0829 -0.1018
  155MOL   H23937507   2.949   1.760   7.346 -0.1484 -1.2457 -0.5721
  155MOL   H24037508   3.083   2.110   7.228  0.4851  0.6356 -2.6982
  155MOL   H24137509   3.005   2.016   7.116 -1.0846 -2.3452  0.4397
  155MOL   H24237510   3.161   1.862   7.082  0.1474  1.2546 -1.0815
  156MOL     O137511   5.495   0.331   3.620 -0.1664  0.7520 -0.6838
  156MOL     C237512   5.462   0.228   3.710  0.3088  0.7633 -0.2212
  156MOL     C337513   5.585   0.136   3.724  0.3675 -0.2634  0.2008
  156MOL     C437514   5.406   0.288   3.841 -0.5382  0.3229  0.4400
  156MOL     C537515   5.339   0.182   3.927 -0.0612  0.5054 -0.2059
  156MOL     O637516   5.402   0.118   4.008  0.3943  0.1058  0.1839
  156MOL     H737517   5.396   0.163   3.654  0.9956  0.8814 -1.1812
  156MOL     H837518   5.574   0.055   3.797 -2.3210 -0.1547 -0.0136
  156MOL     H937519   5.679   0.190   3.732 -1.1602  2.5478 -0.3383
  156MOL    H1037520   5.573   0.085   3.628  3.2249 -2.7883  1.0967
  156MOL    H1137521   5.340   0.373   3.830 -1.0946 -0.0330  1.0383
  156MOL    H1237522   5.499   0.331   3.879  1.1760 -1.6933 -1.3205
  156MOL    H1337523   5.529   0.290   3.542 -0.5031 -1.8812  0.5008
  156MOL    O1437524   5.212   0.163   3.893 -0.1146 -0.5866  0.2531
  156MOL    C1537525   5.133   0.052   3.948  0.0329  0.4095 -0.3484
  156MOL    C1637526   5.023   0.131   4.029  0.0237  0.2780  0.1367
  156MOL    C1737527   5.082   7.956   3.823  0.7769  0.4446  0.0074
  156MOL    C1837528   4.976   7.852   3.844 -0.1147  0.1194 -0.4492
  156MOL    O1937529   4.959   7.800   3.955  0.4879  0.0247  0.1424
  156MOL    H2037530   5.196   7.976   4.018  1.6646  2.4017 -0.1791
  156MOL    H2137531   4.951   0.186   3.967 -0.2697 -0.8472 -0.5527
  156MOL    H2237532   5.065   0.191   4.109 -0.1219  0.4385  0.0935
  156MOL    H2337533   4.967   0.055   4.084  0.1070  0.3397  0.3021
  156MOL    H2437534   5.166   7.906   3.774  1.0471 -0.1096  1.0201
  156MOL    H2537535   5.038   0.043   3.750 -3.6802 -2.5537 -0.2576
  156MOL    O2637536   4.926   7.816   3.718  0.7159 -0.3125  0.0541
  156MOL    C2737537   4.815   7.722   3.721 -0.1558 -0.1217 -0.1898
  156MOL    C2837538   4.693   7.811   3.671 -0.1315 -0.0791  0.0592
  156MOL    C2937539   4.841   7.608   3.622 -0.2324  0.2355 -0.2294
  156MOL    C3037540   4.926   7.503   3.683 -0.7596 -0.2998  0.0467
  156MOL    O3137541   4.880   7.410   3.747  0.2094  0.2514 -0.1328
  156MOL    H3237542   4.798   7.687   3.823  2.5732  1.8570  1.0078
  156MOL    H3337543   4.598   7.760   3.654 -0.8282  0.9361  0.8489
  156MOL    H3437544   4.713   7.862   3.576  0.3966  0.6247  0.5428
  156MOL    H3537545   4.674   7.890   3.743 -1.0457 -2.1386  2.1668
  156MOL    H3637546   4.875   7.647   3.526 -1.6033  2.5853  0.1938
  156MOL    H3737547   4.743   7.561   3.609 -2.1406  4.2919 -1.3886
  156MOL    O3837548   5.059   7.532   3.664 -0.1052  0.2181  0.2887
  156MOL    C3937549   5.158   7.438   3.699 -0.0863 -0.9374  0.0635
  156MOL    C4037550   5.216   7.362   3.577 -0.2087  0.2342  0.6462
  156MOL    C4137551   5.268   7.525   3.762 -0.2598  0.3687 -0.0227
  156MOL    C4237552   5.242   7.581   3.901 -0.4605 -0.2245  0.5320
  156MOL    O4337553   5.254   7.697   3.920  0.3549 -0.1847 -0.3122
  156MOL    H4437554   5.120   7.362   3.767 -1.8708  1.3598  1.7226
  156MOL    H4537555   5.276   7.275   3.604 -0.8133 -0.1149  0.8738
  156MOL    H4637556   5.270   7.433   3.514  0.2713  0.9702  1.8678
  156MOL    H4737557   5.129   7.341   3.516  0.4289 -0.6120  0.0255
  156MOL    H4837558   5.289   7.608   3.695  0.3497 -0.2021 -0.5455
  156MOL    H4937559   5.365   7.475   3.766 -0.5445 -0.2546 -0.8536
  156MOL    O5037560   5.206   7.487   3.984  0.3637 -0.1584 -0.0928
  156MOL    C5137561   5.156   7.514   4.118 -0.2084  0.2538  0.7272
  156MOL    C5237562   5.007   7.460   4.132 -0.3131  0.0695 -0.3690
  156MOL    C5337563   5.252   7.460   4.222  1.1421 -0.4193 -0.0338
  156MOL    C5437564   5.370   7.562   4.233 -0.0234  0.2053 -0.6797
  156MOL    O5537565   5.491   7.529   4.213  0.0406 -0.2709  0.9703
  156MOL    H5637566   5.142   7.619   4.140 -0.8724 -0.4286  3.8458
  156MOL    H5737567   4.973   7.496   4.229  0.0478  3.9043 -1.6046
  156MOL    H5837568   4.991   7.352   4.130  3.0001 -0.4756  0.7743
  156MOL    H5937569   4.938   7.508   4.062 -2.7927 -1.8721  0.6670
  156MOL    H6037570   5.293   7.359   4.217  2.9476  0.2521  0.6411
  156MOL    H6137571   5.193   7.455   4.313 -0.8429  0.8167 -1.2124
  156MOL    O6237572   5.326   7.670   4.305 -0.3521 -0.0964  0.4990
  156MOL    C6337573   5.412   7.769   4.351  0.5944 -0.1145 -0.8375
  156MOL    C6437574   5.383   7.894   4.258 -0.3762  0.3765 -0.4355
  156MOL    C6537575   5.392   7.800   4.499  0.4644  0.0374 -0.0648
  156MOL    C6637576   5.445   7.691   4.590 -0.9682 -0.2155  0.2393
  156MOL    O6737577   5.565   7.658   4.599 -0.0296 -0.8681 -0.2453
  156MOL    H6837578   5.517   7.744   4.345  0.5961 -0.9932  1.9167
  156MOL    H6937579   5.440   0.002   4.291  0.3486 -0.2923  0.1118
  156MOL    H7037580   5.279   7.919   4.280  0.1963 -0.0549  3.0117
  156MOL    H7137581   5.410   7.871   4.155 -0.0952  2.5473 -0.8762
  156MOL    H7237582   5.288   7.811   4.527  0.1376  2.0283 -1.9131
  156MOL    H7337583   5.445   7.894   4.521 -2.2762  1.8939 -1.1360
  156MOL    O7437584   5.340   7.645   4.663 -0.4235  0.2609 -0.1516
  156MOL    C7537585   5.349   7.534   4.747  0.0786  0.2344  0.4379
  156MOL    C7637586   5.250   7.550   4.857  0.0218 -0.3783 -0.5698
  156MOL    C7737587   5.344   7.408   4.659 -0.4134  0.4922 -0.1981
  156MOL    C7837588   5.344   7.269   4.717  0.2537  0.4659  0.2029
  156MOL    O7937589   5.257   7.188   4.688 -0.0837 -0.6661  0.0769
  156MOL    H8037590   5.446   7.557   4.790  0.8142  0.0397 -1.0605
  156MOL    H8137591   5.269   7.485   4.943  2.5643  0.4166 -0.4944
  156MOL    H8237592   5.149   7.518   4.831 -1.3417  0.7243  3.0459
  156MOL    H8337593   5.250   7.656   4.884  0.1462 -0.8931  1.5467
  156MOL    H8437594   5.424   7.415   4.585 -0.2736 -1.7539 -0.3059
  156MOL    H8537595   5.254   7.400   4.599 -1.4671 -1.4426  1.5575
  156MOL    O8637596   5.450   7.250   4.806  0.8763 -0.1575 -0.5521
  156MOL    C8737597   5.468   7.133   4.881  0.3535 -0.4747  0.4262
  156MOL    C8837598   5.585   7.055   4.828  0.1747  0.5914 -0.2638
  156MOL    C8937599   5.493   7.177   5.027  0.1486  0.0782  0.9674
  156MOL    C9037600   5.370   7.215   5.103  0.6491  0.3835 -0.0639
  156MOL    O9137601   5.367   7.322   5.156  0.3740 -0.4166 -0.6225
  156MOL    H9237602   5.381   7.068   4.869  0.6604 -0.9142  0.5871
  156MOL    H9337603   5.683   7.103   4.835  0.7276 -0.5562 -0.0675
  156MOL    H9437604   5.575   7.040   4.720  0.8352  0.8654 -0.3697
  156MOL    H9537605   5.587   6.957   4.875 -1.9217  1.0636  0.8274
  156MOL    H9637606   5.556   7.265   5.037  1.0022 -0.0069 -2.8381
  156MOL    H9737607   5.538   7.095   5.084  1.6921  0.2374  0.0068
  156MOL    O9837608   5.271   7.117   5.108 -0.0737 -0.3531 -0.1388
  156MOL    C9937609   5.145   7.142   5.181 -0.6052  0.7899 -0.6410
  156MOL   C10037610   5.046   7.219   5.089 -0.4563 -0.0831  0.4109
  156MOL   C10137611   5.079   7.010   5.236 -0.5211 -0.5119 -0.2646
  156MOL   C10237612   4.952   7.023   5.323  0.0464 -0.2723  0.3790
  156MOL   O10337613   4.900   7.131   5.362 -0.0308  0.6892  0.5898
  156MOL   H10437614   5.171   7.199   5.270  0.5848  1.6886 -1.5471
  156MOL   H10537615   4.965   7.261   5.148  0.6095  2.6864 -0.0145
  156MOL   H10637616   5.011   7.153   5.010 -2.2419  1.4589 -0.1211
  156MOL   H10737617   5.103   7.298   5.040  0.5871 -1.1505 -0.1346
  156MOL   H10837618   5.160   6.962   5.291  0.6218  2.1738  0.5028
  156MOL   H10937619   5.066   6.939   5.155 -1.0692 -0.6711 -0.0344
  156MOL   O11037620   4.908   6.896   5.356 -0.2363 -0.0070  0.5993
  156MOL   C11137621   4.808   6.870   5.459 -0.6110 -0.7875 -0.3207
  156MOL   C11237622   4.699   6.779   5.397  0.1260  0.0287 -0.0525
  156MOL   C11337623   4.875   6.822   5.589 -0.3174  0.1807 -0.0524
  156MOL   C11437624   4.791   6.812   5.716 -0.8941 -0.3057 -0.4149
  156MOL   O11537625   4.777   6.708   5.781  0.7369  0.5220 -0.6928
  156MOL   H11637626   4.749   6.957   5.486  0.4818 -0.4206  0.9342
  156MOL   H11737627   4.610   6.771   5.461  1.2870 -1.1346  1.4612
  156MOL   H11837628   4.742   6.683   5.369  1.2386 -0.4050  2.9958
  156MOL   H11937629   4.658   6.831   5.311  0.0549  1.4204  0.8040
  156MOL   H12037630   4.959   6.886   5.618  1.0901 -1.4138 -0.5933
  156MOL   H12137631   4.909   6.720   5.574 -1.1261 -0.4685  2.3400
  156MOL   O12237632   4.739   6.928   5.750 -0.5177 -0.2987  0.7238
  156MOL   C12337633   4.645   6.946   5.855 -0.0663  0.1125  0.4745
  156MOL   C12437634   4.703   7.042   5.957 -0.2020  0.2717 -0.0365
  156MOL   C12537635   4.506   6.980   5.805  0.4608 -0.6603 -0.4298
  156MOL   C12637636   4.411   6.864   5.784 -0.1437  0.3653  0.1620
  156MOL   O12737637   4.339   6.827   5.873 -0.7797  0.0204  0.0772
  156MOL   H12837638   4.654   6.858   5.918 -0.2289 -0.9625 -0.9725
  156MOL   H12937639   4.727   7.139   5.912 -0.1772  0.3715  0.1943
  156MOL   H13037640   4.796   7.006   6.000  0.0873  0.3884 -0.5611
  156MOL   H13137641   4.641   7.060   6.045  1.9528  0.9879  1.3496
  156MOL   H13237642   4.504   7.048   5.719 -2.5634 -0.7435 -0.4660
  156MOL   H13337643   4.452   7.034   5.884  0.8612 -0.1975 -0.4670
  156MOL   O13437644   4.411   6.804   5.662  0.0057 -0.4868 -0.0276
  156MOL   C13537645   4.331   6.686   5.637 -0.2254  0.1961  0.0193
  156MOL   C13637646   4.307   6.668   5.488 -0.4215 -0.0864  0.9294
  156MOL   C13737647   4.406   6.571   5.702  0.3058 -0.2930  0.6937
  156MOL   C13837648   4.321   6.445   5.718  0.2546 -0.3278  0.3995
  156MOL   O13937649   4.232   6.438   5.800 -0.1975 -0.3934 -0.0063
  156MOL   H14037650   4.234   6.705   5.683 -0.2443  1.3979 -0.4776
  156MOL   H14137651   4.239   6.586   5.468 -0.1208 -1.0577  3.7192
  156MOL   H14237652   4.399   6.650   5.433 -1.0385 -1.3771  0.3077
  156MOL   H14337653   4.246   6.755   5.462  1.6553  0.4582 -2.4084
  156MOL   H14437654   4.427   6.594   5.807  2.4928  0.7654  0.0400
  156MOL   H14537655   4.501   6.554   5.652  0.0476  0.2583  0.0140
  156MOL   O14637656   4.352   6.348   5.629 -0.2670  0.2913 -0.0237
  156MOL   C14737657   4.291   6.222   5.616 -0.1056 -1.2032 -0.2585
  156MOL   C14837658   4.209   6.231   5.485  0.0569 -0.1924  0.1575
  156MOL   C14937659   4.400   6.117   5.625  0.0984 -0.5729 -0.2001
  156MOL   C15037660   4.350   5.970   5.611 -0.0781 -0.1281 -0.7267
  156MOL   O15137661   4.403   5.892   5.539  0.1724 -1.2018 -0.3477
  156MOL   H15237662   4.217   6.207   5.695  1.4222  0.8148  1.6312
  156MOL   H15337663   4.268   6.239   5.394 -1.1278  1.6990 -0.4626
  156MOL   H15437664   4.142   6.317   5.483 -0.1733 -0.3983 -2.1557
  156MOL   H15537665   4.148   6.141   5.475 -1.8523  0.9844  1.0029
  156MOL   H15637666   4.461   6.127   5.715  0.4585 -1.6228 -0.3181
  156MOL   H15737667   4.481   6.131   5.552  0.0475  1.2072  0.0631
  156MOL   O15837668   4.244   5.946   5.699  0.5450  0.0018 -0.2104
  156MOL   C15937669   4.183   5.814   5.696  0.5908 -0.2939  0.7086
  156MOL   C16037670   4.256   5.714   5.788  0.7675  0.1416  0.1158
  156MOL   C16137671   4.029   5.832   5.726  0.1106 -0.2347 -0.3383
  156MOL   C16237672   3.928   5.861   5.611  0.4332  0.3401 -0.2909
  156MOL   O16337673   3.895   5.773   5.532 -0.7149  0.1623  0.1898
  156MOL   H16437674   4.187   5.780   5.593  0.3209  0.9340  0.2736
  156MOL   H16537675   4.185   5.631   5.795  2.4784 -1.3657  0.0308
  156MOL   H16637676   4.275   5.756   5.886 -3.4696  1.4481  0.4685
  156MOL   H16737677   4.354   5.684   5.751  1.9641  1.6641  2.0003
  156MOL   H16837678   4.013   5.910   5.800  0.6160 -1.6751  1.3250
  156MOL   H16937679   3.988   5.739   5.766 -0.6636  0.1754 -0.1647
  156MOL   O17037680   3.877   5.985   5.616 -0.2638 -0.0173 -0.2301
  156MOL   C17137681   3.768   6.024   5.534  0.1889  0.0147  0.1688
  156MOL   C17237682   3.640   6.055   5.625 -0.2785  0.7726 -0.3641
  156MOL   C17337683   3.824   6.147   5.461 -0.1398 -0.8954  0.0341
  156MOL   C17437684   3.862   6.113   5.316  0.4700 -0.6230 -0.0643
  156MOL   O17537685   3.788   6.127   5.218  0.4497 -0.0691 -0.4892
  156MOL   H17637686   3.737   5.946   5.465  0.3851  0.1235 -0.0400
  156MOL   H17737687   3.670   6.118   5.709 -1.0077 -0.3511  0.7366
  156MOL   H17837688   3.614   5.963   5.676 -3.3791  0.4871 -2.3252
  156MOL   H17937689   3.563   6.094   5.558  0.8445  0.9395 -1.6057
  156MOL   H18037690   3.913   6.179   5.516 -0.0901 -1.6235  0.3800
  156MOL   H18137691   3.761   6.234   5.443  2.3364  0.8529 -0.4183
  156MOL   O18237692   3.988   6.071   5.307  0.1891 -0.0389  0.3179
  156MOL   C18337693   4.057   6.039   5.192  0.0165  0.2275  0.0968
  156MOL   C18437694   4.124   6.160   5.131 -0.4113  0.2859  0.3229
  156MOL   C18537695   4.166   5.939   5.240  0.5139  0.3728 -0.0319
  156MOL   C18637696   4.120   5.794   5.243  0.2489 -0.1776 -0.0351
  156MOL   O18737697   4.025   5.755   5.176 -0.7021 -0.8699 -0.4468
  156MOL   H18837698   3.988   6.000   5.117 -0.4898 -0.4800  0.9198
  156MOL   H18937699   4.195   6.134   5.052 -1.1139  2.4056 -1.0364
  156MOL   H19037700   4.178   6.214   5.209 -0.2692  0.4542  0.1086
  156MOL   H19137701   4.047   6.230   5.099  0.1777  2.2558  3.0140
  156MOL   H19237702   4.212   5.956   5.337  1.0983  0.4256 -0.3196
  156MOL   H19337703   4.241   5.933   5.162 -1.3648 -0.2166 -1.8546
  156MOL   O19437704   4.208   5.708   5.307  0.2385 -0.3404  0.3219
  156MOL   C19537705   4.191   5.566   5.298  0.5038  0.5151  0.2142
  156MOL   C19637706   4.285   5.508   5.184 -0.3093 -0.2106 -0.1544
  156MOL   C19737707   4.245   5.505   5.434 -0.1297  0.0619 -0.2992
  156MOL   C19837708   4.172   5.387   5.496 -0.1662 -0.1174 -0.2232
  156MOL   O19937709   4.228   5.310   5.572 -0.5495 -0.7059  0.7622
  156MOL   H20037710   4.089   5.538   5.271  1.0935 -1.2106 -0.3107
  156MOL   H20137711   4.253   5.404   5.176 -1.7844  0.1810  0.5031
  156MOL   H20237712   4.393   5.514   5.198 -0.4619 -0.5662  1.2863
  156MOL   H20337713   4.265   5.544   5.083 -0.0443  1.7038  0.4590
  156MOL   H20437714   4.236   5.586   5.506  1.7332 -1.3478  1.5810
  156MOL   H20537715   4.352   5.486   5.436 -0.3064 -0.9667 -0.2126
  156MOL   O20637716   4.038   5.375   5.473 -0.1220 -0.7429  0.2125
  156MOL   C20737717   3.944   5.292   5.552 -0.4473 -0.1438  0.5910
  156MOL   C20837718   3.853   5.377   5.626  0.3304  0.7535 -0.0062
  156MOL   C20937719   3.868   5.187   5.463 -0.4837  0.0771 -0.0808
  156MOL   C21037720   3.959   5.093   5.378 -0.5855 -0.0376  0.0151
  156MOL   O21137721   3.971   5.108   5.253  0.5126  0.3252 -0.0281
  156MOL   H21237722   4.011   5.247   5.626  1.3473 -0.9163 -1.4383
  156MOL   H21337723   3.788   5.317   5.691  0.8409 -0.4232 -0.5792
  156MOL   H21437724   3.781   5.436   5.568  0.4940  0.0246 -0.9403
  156MOL   H21537725   3.907   5.438   5.699  0.3663 -0.1366  0.7254
  156MOL   H21637726   3.794   5.231   5.396 -0.3173 -1.5007 -1.3560
  156MOL   H21737727   3.802   5.117   5.514 -1.0689  0.4989 -0.2604
  156MOL   O21837728   4.021   4.998   5.450 -0.5273 -0.0703 -1.1957
  156MOL   C21937729   4.135   4.932   5.401  0.5044  0.2937  0.4254
  156MOL   C22037730   4.252   5.011   5.450  0.3035  0.2245  0.0299
  156MOL   C22137731   4.152   4.785   5.452  0.2921  0.1344 -0.4176
  156MOL   C22237732   4.255   4.717   5.364 -0.8038  0.0332  0.7502
  156MOL   O22337733   4.227   4.680   5.252 -0.2388 -0.5394  0.3215
  156MOL   H22437734   4.131   4.936   5.292  0.4530  2.3679  0.4923
  156MOL   H22537735   4.229   5.111   5.414 -0.4955  0.6722  1.7348
  156MOL   H22637736   4.342   4.963   5.412 -0.3004 -1.8457  1.1238
  156MOL   H22737737   4.266   5.021   5.558 -0.6120 -0.7922  0.2537
  156MOL   H22837738   4.060   4.728   5.437  0.7522 -0.4740 -0.9996
  156MOL   H22937739   4.169   4.776   5.559 -0.7876  2.7770  0.0043
  156MOL   O23037740   4.378   4.694   5.423  0.6103 -0.2593  0.2665
  156MOL   C23137741   4.504   4.652   5.353 -0.8864  0.5346 -0.1404
  156MOL   C23237742   4.608   4.763   5.332  0.0734 -0.0263 -0.3943
  156MOL   C23337743   4.553   4.519   5.412 -0.1190  0.5216  0.6093
  156MOL   C23437744   4.605   4.527   5.555 -0.3937 -0.2316  0.3284
  156MOL   O23537745   4.629   4.420   5.613 -0.1673 -0.1642  0.0816
  156MOL   H23637746   4.485   4.621   5.250  0.8684  2.5100 -1.0862
  156MOL   H23737747   4.691   4.724   5.275  1.0932  0.0571  0.9982
  156MOL   H23837748   4.638   4.803   5.429 -0.3938 -2.3050  0.7300
  156MOL   H23937749   4.570   4.849   5.278 -3.3061 -0.9143  0.3882
  156MOL   H24037750   4.627   4.474   5.346 -2.4394 -2.7362  0.1063
  156MOL   H24137751   4.476   4.443   5.428  0.2124 -0.4103 -1.9625
  156MOL   H24237752   4.620   4.623   5.604 -0.8217 -0.7297  1.4548
  157MOL     O137753   5.063   4.769   5.877  0.0242  0.2059  0.3051
  157MOL     C237754   5.081   4.634   5.918  0.5351  0.5492  0.5562
  157MOL     C337755   5.041   4.546   5.797  0.3622  1.0040  0.3318
  157MOL     C437756   5.224   4.627   5.959  0.1930  0.0068 -0.8741
  157MOL     C537757   5.274   4.495   6.011 -0.1305  0.0505  0.4306
  157MOL     O637758   5.363   4.429   5.958  0.1868  0.0925  0.1823
  157MOL     H737759   5.019   4.618   6.007 -0.7042  1.0115 -0.2105
  157MOL     H837760   4.941   4.573   5.766 -0.1564 -2.3413 -1.0931
  157MOL     H937761   5.041   4.442   5.829 -1.7329  1.2464  1.1905
  157MOL    H1037762   5.106   4.556   5.710  0.5583 -1.7927  0.1178
  157MOL    H1137763   5.240   4.686   6.050 -1.8238 -1.8686  0.7500
  157MOL    H1237764   5.297   4.657   5.883  3.1448 -1.2705  1.3591
  157MOL    H1337765   4.987   4.802   5.921  0.1972 -1.9681  2.3525
  157MOL    O1437766   5.220   4.473   6.139  0.1956  0.0243  0.0188
  157MOL    C1537767   5.248   4.346   6.200  0.3841 -0.6170  1.1338
  157MOL    C1637768   5.378   4.359   6.289 -0.4754  0.6375  0.2203
  157MOL    C1737769   5.122   4.317   6.290 -0.9467  0.6007 -0.2237
  157MOL    C1837770   5.018   4.237   6.216 -0.2227  0.2848  0.0596
  157MOL    O1937771   5.011   4.117   6.234 -0.2622  0.0542 -0.4904
  157MOL    H2037772   5.260   4.270   6.122 -1.2001  0.4028 -0.1311
  157MOL    H2137773   5.367   4.431   6.370 -2.7887  1.0293 -0.4076
  157MOL    H2237774   5.473   4.384   6.243  0.1172 -2.9357 -0.6911
  157MOL    H2337775   5.428   4.273   6.333 -0.2590  0.3610 -0.5564
  157MOL    H2437776   5.078   4.411   6.324  1.8924  0.8132  3.1018
  157MOL    H2537777   5.146   4.266   6.383 -0.4403 -0.8644 -1.1466
  157MOL    O2637778   4.926   4.319   6.146  0.6262  0.2249 -0.1213
  157MOL    C2737779   4.811   4.266   6.096  0.9263  0.6207 -0.5054
  157MOL    C2837780   4.700   4.360   6.151  0.0978 -0.2399  0.1527
  157MOL    C2937781   4.822   4.252   5.945 -0.1783 -0.1319 -0.2772
  157MOL    C3037782   4.713   4.161   5.886 -0.3805 -0.5746 -0.7229
  157MOL    O3137783   4.635   4.105   5.965  0.3171 -0.1887  0.5955
  157MOL    H3237784   4.795   4.170   6.146  1.1403 -0.4082 -2.3663
  157MOL    H3337785   4.713   4.464   6.122 -1.2174  0.8450  3.2297
  157MOL    H3437786   4.706   4.366   6.260  1.2394  0.2212  0.0748
  157MOL    H3537787   4.605   4.314   6.123 -0.0015  0.5165 -0.7994
  157MOL    H3637788   4.920   4.209   5.924 -0.5663 -2.3167  2.1336
  157MOL    H3737789   4.813   4.344   5.888 -0.7296 -0.3798 -0.5956
  157MOL    O3837790   4.717   4.156   5.751 -0.0429 -0.3701  0.3401
  157MOL    C3937791   4.623   4.077   5.670 -0.0358 -0.4196  0.1767
  157MOL    C4037792   4.656   3.929   5.659 -0.3596  0.2500 -0.1618
  157MOL    C4137793   4.476   4.126   5.696  0.4702  1.0738  0.4832
  157MOL    C4237794   4.373   4.106   5.581  0.1419  0.0527  0.0471
  157MOL    O4337795   4.358   4.193   5.497 -0.1613 -0.1990  0.6102
  157MOL    H4437796   4.661   4.117   5.576  0.7110  0.8184  0.9822
  157MOL    H4537797   4.638   3.883   5.756  2.2155  2.0316  1.2158
  157MOL    H4637798   4.763   3.914   5.647 -0.2785  0.2940  0.4944
  157MOL    H4737799   4.605   3.870   5.582 -2.6319  0.7849  0.8900
  157MOL    H4837800   4.468   4.232   5.716 -2.8455  0.4789  2.7503
  157MOL    H4937801   4.436   4.077   5.785  0.8680 -2.8790 -1.3692
  157MOL    O5037802   4.301   3.990   5.588 -0.2029 -0.3328 -0.1023
  157MOL    C5137803   4.216   3.953   5.479 -0.1313 -0.1684 -0.3398
  157MOL    C5237804   4.268   3.819   5.421 -0.2790  0.2031 -0.2207
  157MOL    C5337805   4.072   3.946   5.531  0.7025  0.4783  0.1598
  157MOL    C5437806   4.025   4.085   5.574 -0.0839 -0.2107 -0.2851
  157MOL    O5537807   3.961   4.108   5.676  0.0662  0.0214 -0.7378
  157MOL    H5637808   4.221   4.022   5.395  0.4001  0.4428  0.1892
  157MOL    H5737809   4.373   3.826   5.395 -0.6218  1.2366 -1.3762
  157MOL    H5837810   4.218   3.783   5.331 -0.6203  1.4006 -0.5113
  157MOL    H5937811   4.257   3.732   5.485 -1.1584  0.5750  0.1500
  157MOL    H6037812   4.064   3.883   5.619  1.0491  0.0142 -0.1349
  157MOL    H6137813   4.012   3.921   5.443 -0.4430  0.6734  0.8798
  157MOL    O6237814   4.053   4.182   5.491  0.7443 -0.7072 -0.4054
  157MOL    C6337815   3.997   4.310   5.503 -0.1036 -0.0277  0.1701
  157MOL    C6437816   4.125   4.405   5.515  0.1656  0.5541  0.3589
  157MOL    C6537817   3.911   4.355   5.380 -0.3418 -1.0633 -0.7577
  157MOL    C6637818   3.808   4.467   5.399  0.9043  0.8137 -0.3246
  157MOL    O6737819   3.711   4.447   5.472  0.1882  0.4722 -0.3386
  157MOL    H6837820   3.936   4.325   5.592  0.3257 -1.0178  0.6334
  157MOL    H6937821   4.199   4.395   5.435  1.0065  1.1634  1.0380
  157MOL    H7037822   4.185   4.396   5.606  0.7585  0.9223  0.0144
  157MOL    H7137823   4.104   4.510   5.535  2.1597  0.9788  0.3836
  157MOL    H7237824   3.859   4.268   5.341  1.0300 -1.2456 -2.2539
  157MOL    H7337825   3.980   4.391   5.303 -0.8070  2.4421  0.3987
  157MOL    O7437826   3.835   4.583   5.350 -0.1566 -0.0780 -0.5887
  157MOL    C7537827   3.741   4.690   5.353  0.2952  0.0430 -0.5681
  157MOL    C7637828   3.752   4.769   5.485 -0.6249 -0.2788  0.0672
  157MOL    C7737829   3.768   4.786   5.237 -0.0222 -0.4149 -0.0912
  157MOL    C7837830   3.650   4.877   5.197  0.3518 -0.4602  0.5300
  157MOL    O7937831   3.559   4.911   5.266  0.2998  0.1377  0.2028
  157MOL    H8037832   3.641   4.652   5.337 -0.8205  2.7561 -0.3782
  157MOL    H8137833   3.725   4.697   5.562 -4.5026 -1.4240 -2.2113
  157MOL    H8237834   3.674   4.846   5.487 -1.2696 -0.9187 -0.3429
  157MOL    H8337835   3.848   4.820   5.496 -1.3309  1.1587 -0.3306
  157MOL    H8437836   3.808   4.719   5.161  1.0929  1.5936 -1.3072
  157MOL    H8537837   3.856   4.850   5.245 -1.4603  1.5223  0.7023
  157MOL    O8637838   3.674   4.930   5.075  0.5679  0.0863 -0.0558
  157MOL    C8737839   3.589   5.024   5.017  0.3200  0.6303 -0.6670
  157MOL    C8837840   3.620   5.165   5.076  1.0516  0.6637  0.4055
  157MOL    C8937841   3.613   5.021   4.865  0.1283  0.4285  0.1646
  157MOL    C9037842   3.567   4.896   4.795  0.0310  0.5067 -0.2739
  157MOL    O9137843   3.511   4.805   4.852 -0.1178 -0.3223 -0.9476
  157MOL    H9237844   3.483   5.003   5.032  0.8379 -1.9924 -0.6053
  157MOL    H9337845   3.548   5.233   5.030 -0.3464 -0.6735  0.5700
  157MOL    H9437846   3.719   5.195   5.040  0.8879 -1.2177 -1.7473
  157MOL    H9537847   3.604   5.180   5.183  1.1305 -1.7111  0.7665
  157MOL    H9637848   3.720   5.031   4.850  0.6272  0.5302  3.4523
  157MOL    H9737849   3.562   5.106   4.821  0.4329 -0.0245 -1.0713
  157MOL    O9837850   3.589   4.907   4.662 -0.0388 -0.2245  0.9531
  157MOL    C9937851   3.559   4.801   4.572  0.5321 -0.3046  0.0806
  157MOL   C10037852   3.405   4.807   4.540 -0.3716  0.2592  0.3470
  157MOL   C10137853   3.647   4.813   4.449 -0.1156 -0.7965  0.5075
  157MOL   C10237854   3.780   4.766   4.484 -0.9267  0.4555 -0.0930
  157MOL   O10337855   3.808   4.644   4.472 -0.1687  0.0001 -0.8618
  157MOL   H10437856   3.569   4.711   4.632  0.5859 -0.8305 -0.7145
  157MOL   H10537857   3.386   4.723   4.473  2.0857  0.6605 -0.9428
  157MOL   H10637858   3.384   4.897   4.482 -0.6484  0.0960  0.1918
  157MOL   H10737859   3.334   4.810   4.622 -1.5890 -2.9042 -0.5182
  157MOL   H10837860   3.651   4.913   4.405 -0.8556 -1.3244 -0.7887
  157MOL   H10937861   3.604   4.742   4.379  1.0894 -1.5055  0.4641
  157MOL   O11037862   3.868   4.859   4.514 -0.3846  0.0251  0.2699
  157MOL   C11137863   4.001   4.839   4.542 -1.2618  0.5252  0.3429
  157MOL   C11237864   4.075   4.974   4.521 -0.4872 -0.9610  0.1887
  157MOL   C11337865   4.037   4.769   4.679  0.3954 -0.1005 -0.3659
  157MOL   C11437866   4.023   4.856   4.802  0.0247  0.0260 -0.1231
  157MOL   O11537867   3.914   4.868   4.855  0.3418  0.0025  0.3031
  157MOL   H11637868   4.041   4.775   4.463 -1.5499  0.3530  0.3370
  157MOL   H11737869   4.173   4.977   4.570  0.1902 -0.8726 -1.1333
  157MOL   H11837870   4.016   5.058   4.556  0.5145 -1.5389  3.4498
  157MOL   H11937871   4.106   4.990   4.417 -1.1362 -1.6013 -0.0999
  157MOL   H12037872   4.142   4.738   4.675  0.1500 -0.7590 -2.1295
  157MOL   H12137873   3.967   4.685   4.686  0.1397  0.2959  1.9950
  157MOL   O12237874   4.134   4.923   4.833  0.0301  0.5807 -0.6723
  157MOL   C12337875   4.154   4.998   4.950 -0.1842  0.0445  0.7846
  157MOL   C12437876   4.300   4.972   4.993 -0.4739  0.2239  0.9098
  157MOL   C12537877   4.101   5.142   4.926 -0.0961 -0.2723  0.1402
  157MOL   C12637878   4.195   5.230   4.844 -0.0915  0.4206  0.1829
  157MOL   O12737879   4.239   5.330   4.889 -0.4416  0.4771 -0.1299
  157MOL   H12837880   4.089   4.956   5.027 -0.5172 -1.8663 -0.5148
  157MOL   H12937881   4.376   5.016   4.927 -0.0171 -1.6997  0.1296
  157MOL   H13037882   4.311   4.865   5.007 -1.4535  0.1515  1.1557
  157MOL   H13137883   4.320   5.011   5.093  0.6275  0.9706  0.4124
  157MOL   H13237884   4.095   5.198   5.020 -1.5232  0.5842 -0.4278
  157MOL   H13337885   4.005   5.151   4.875 -0.3574 -0.5165  0.5859
  157MOL   O13437886   4.229   5.177   4.727 -0.7017  0.3859 -0.0958
  157MOL   C13537887   4.321   5.246   4.638 -0.1077 -0.3007 -0.0481
  157MOL   C13637888   4.467   5.183   4.650  0.0169 -0.2016 -0.0972
  157MOL   C13737889   4.274   5.241   4.485 -0.3243 -0.4512 -0.9309
  157MOL   C13837890   4.298   5.370   4.411 -0.6943 -0.5154  0.4689
  157MOL   O13937891   4.343   5.472   4.466  0.8010  0.2355  0.0100
  157MOL   H14037892   4.323   5.349   4.673  0.3169 -0.7068  1.1403
  157MOL   H14137893   4.496   5.186   4.755 -0.1730 -2.9655  0.0907
  157MOL   H14237894   4.533   5.251   4.597 -0.3181 -1.9919 -2.9284
  157MOL   H14337895   4.491   5.084   4.610 -0.0516 -0.1569 -0.2495
  157MOL   H14437896   4.166   5.224   4.487 -0.8073  2.3612 -0.6983
  157MOL   H14537897   4.317   5.151   4.442  1.4135 -0.2634  0.3685
  157MOL   O14637898   4.270   5.356   4.287 -0.7868 -0.0301  0.0272
  157MOL   C14737899   4.271   5.468   4.195 -0.1927 -0.2532  0.4774
  157MOL   C14837900   4.395   5.467   4.109  0.3770  0.5781  0.3231
  157MOL   C14937901   4.145   5.475   4.121  0.7753 -0.1071 -0.1084
  157MOL   C15037902   4.017   5.509   4.199 -0.5234 -0.5911 -0.4984
  157MOL   O15137903   3.968   5.433   4.286  0.6320 -0.3519  0.0936
  157MOL   H15237904   4.269   5.559   4.256 -0.6483  0.7628 -1.0339
  157MOL   H15337905   4.402   5.386   4.037  1.0751  1.7432 -0.9580
  157MOL   H15437906   4.488   5.479   4.165  0.5069  1.5782 -0.0931
  157MOL   H15537907   4.381   5.552   4.042 -1.3257  0.0727  0.0209
  157MOL   H15637908   4.123   5.375   4.082  2.2193 -0.1663 -0.7920
  157MOL   H15737909   4.148   5.540   4.034  1.5540  0.3341  0.2428
  157MOL   O15837910   3.973   5.635   4.174 -0.4442 -0.5923 -0.0519
  157MOL   C15937911   3.852   5.695   4.214 -0.6408 -0.0883  0.2802
  157MOL   C16037912   3.886   5.799   4.332 -0.3704 -0.3700 -0.3352
  157MOL   C16137913   3.762   5.749   4.098  0.1173 -0.2694  0.0624
  157MOL   C16237914   3.837   5.855   4.009  0.5054 -0.1035 -0.2781
  157MOL   O16337915   3.946   5.904   4.038 -0.1507 -0.0767 -0.0455
  157MOL   H16437916   3.792   5.608   4.241 -1.6363  0.3924 -0.3511
  157MOL   H16537917   3.929   5.752   4.420  0.1511  2.7328  1.1444
  157MOL   H16637918   3.793   5.850   4.359  0.7742  1.6659 -0.1328
  157MOL   H16737919   3.960   5.874   4.303 -0.3312  0.2917  1.4582
  157MOL   H16837920   3.677   5.799   4.144 -1.7467 -0.7359 -2.7277
  157MOL   H16937921   3.718   5.672   4.034  1.8941 -0.1164 -1.3694
  157MOL   O17037922   3.759   5.884   3.896 -0.1597 -0.8721  0.5099
  157MOL   C17137923   3.804   5.989   3.804  0.1167  0.4140  0.3952
  157MOL   C17237924   3.747   5.960   3.665  0.2823 -0.0973  0.1691
  157MOL   C17337925   3.767   6.128   3.857  0.1469  0.3601 -0.2074
  157MOL   C17437926   3.855   6.231   3.806  0.3071 -0.0554 -0.4689
  157MOL   O17537927   3.942   6.219   3.722 -0.4976 -0.0867 -0.6767
  157MOL   H17637928   3.912   5.980   3.811 -0.1104 -1.9567  1.3815
  157MOL   H17737929   3.640   5.944   3.671  0.1457  1.0489  0.8852
  157MOL   H17837930   3.790   5.873   3.613 -1.4940 -1.3380  0.7310
  157MOL   H17937931   3.767   6.035   3.590  0.9872 -0.4518 -0.0065
  157MOL   H18037932   3.776   6.122   3.966  1.6228 -0.8353 -0.3695
  157MOL   H18137933   3.662   6.149   3.837  0.1443  1.1043  0.5479
  157MOL   O18237934   3.824   6.343   3.863  0.3932  0.4326 -0.1764
  157MOL   C18337935   3.902   6.458   3.848  0.2970 -0.6151 -0.4479
  157MOL   C18437936   3.854   6.533   3.719 -0.3087 -0.1366  0.1183
  157MOL   C18537937   3.908   6.553   3.968  0.2752  0.0105 -0.3257
  157MOL   C18637938   3.946   6.482   4.094 -1.2742 -0.0896 -0.1316
  157MOL   O18737939   3.890   6.505   4.199  0.2225 -0.7278  0.2826
  157MOL   H18837940   4.007   6.432   3.837  1.0151  1.1474  1.7596
  157MOL   H18937941   3.880   6.638   3.728 -3.2030  0.5955  0.4195
  157MOL   H19037942   3.747   6.542   3.701 -0.1947  0.8479 -0.0938
  157MOL   H19137943   3.894   6.495   3.625 -1.1216 -2.5751  0.7008
  157MOL   H19237944   3.816   6.611   3.971  1.3683  1.7766 -0.2564
  157MOL   H19337945   3.983   6.630   3.949  0.1499 -0.3318 -2.4389
  157MOL   O19437946   4.056   6.401   4.090 -0.6128 -0.4059  0.2888
  157MOL   C19537947   4.103   6.326   4.205  0.4024  0.1266  0.2465
  157MOL   C19637948   4.086   6.173   4.184  0.2868  0.6875  0.0162
  157MOL   C19737949   4.243   6.374   4.250 -0.8934  0.9262 -0.2847
  157MOL   C19837950   4.342   6.340   4.142 -0.0851  0.9208 -0.5468
  157MOL   O19937951   4.419   6.242   4.153  0.1155  0.9514  0.2033
  157MOL   H20037952   4.040   6.348   4.291 -0.3971 -1.5809  0.1013
  157MOL   H20137953   3.984   6.141   4.202  1.1029 -1.3771  1.0565
  157MOL   H20237954   4.158   6.112   4.239  0.0569 -0.1830 -0.6384
  157MOL   H20337955   4.103   6.154   4.078  0.8892  0.3452  0.1699
  157MOL   H20437956   4.284   6.319   4.335 -0.3159  1.6929 -0.0701
  157MOL   H20537957   4.241   6.482   4.260  0.6784  1.0319 -1.0453
  157MOL   O20637958   4.337   6.419   4.037  0.3779  0.1829 -0.7787
  157MOL   C20737959   4.434   6.425   3.937  0.0580  0.4815  0.8019
  157MOL   C20837960   4.351   6.417   3.810  0.8656  0.5876  0.3302
  157MOL   C20937961   4.514   6.558   3.939 -0.5327  0.4540 -0.1169
  157MOL   C21037962   4.659   6.526   3.906 -1.0434  0.3093  0.0911
  157MOL   O21137963   4.696   6.549   3.794 -0.6759  0.1552  0.4257
  157MOL   H21237964   4.492   6.333   3.950 -1.0275 -0.0837  1.7076
  157MOL   H21337965   4.401   6.449   3.719 -0.6186  1.1460 -0.3043
  157MOL   H21437966   4.266   6.484   3.820  0.8358  0.4700  0.9096
  157MOL   H21537967   4.312   6.316   3.792 -1.3201  1.2930  0.9240
  157MOL   H21637968   4.513   6.600   4.039  2.3831  0.4301 -0.0290
  157MOL   H21737969   4.475   6.635   3.872 -1.6202  0.2713  0.3028
  157MOL   O21837970   4.735   6.492   4.015  0.2243 -0.4143  0.3471
  157MOL   C21937971   4.872   6.461   4.017  0.4162 -0.0925  1.1693
  157MOL   C22037972   4.936   6.550   4.128 -0.4489 -0.2271 -0.4052
  157MOL   C22137973   4.894   6.317   4.051  0.2280 -0.2641  0.2181
  157MOL   C22237974   4.834   6.219   3.945  0.1773 -0.2038  0.1116
  157MOL   O22337975   4.725   6.159   3.965  0.6483  0.0914 -0.6658
  157MOL   H22437976   4.911   6.483   3.918 -0.2512  2.4855  1.4474
  157MOL   H22537977   4.891   6.523   4.224  0.8217  1.7277  0.7709
  157MOL   H22637978   4.923   6.651   4.089 -0.9550  0.0457  0.4599
  157MOL   H22737979   5.044   6.537   4.133 -0.0950  3.0827  2.2799
  157MOL   H22837980   4.859   6.300   4.152 -0.4237 -2.9240 -0.4224
  157MOL   H22937981   5.002   6.304   4.064  0.4332  0.6711 -0.5009
  157MOL   O23037982   4.904   6.215   3.829 -0.0745 -0.5150 -0.0245
  157MOL   C23137983   4.845   6.151   3.715  0.0421 -0.6753 -0.0232
  157MOL   C23237984   4.781   6.262   3.620  0.4338 -0.1509 -0.7681
  157MOL   C23337985   4.943   6.049   3.654 -0.2419 -0.3633 -0.3499
  157MOL   C23437986   5.066   6.113   3.587 -0.8508 -0.1092  0.2381
  157MOL   O23537987   5.138   6.041   3.518  0.1796 -0.4808 -0.0654
  157MOL   H23637988   4.760   6.088   3.742 -0.8164 -0.5468 -2.3294
  157MOL   H23737989   4.731   6.225   3.530 -0.1681  0.4871 -0.6959
  157MOL   H23837990   4.854   6.338   3.593 -2.6293  3.0519 -0.4079
  157MOL   H23937991   4.710   6.310   3.687  1.6498 -1.0354  1.2321
  157MOL   H24037992   4.900   5.998   3.567 -0.9646  0.6843 -0.6235
  157MOL   H24137993   4.966   5.970   3.725 -1.9340 -1.2950 -0.8068
  157MOL   H24237994   5.079   6.222   3.592 -1.0200 -0.1482  1.7639
  158MOL     O137995   4.222   0.279   5.905 -0.2729  0.4082  0.1655
  158MOL     C237996   4.250   0.243   6.038 -0.2343  0.5736 -0.4941
  158MOL     C337997   4.263   0.369   6.113  0.3940 -0.4270 -0.6932
  158MOL     C437998   4.136   0.157   6.080  0.2818  0.2655  0.3369
  158MOL     C537999   4.128   0.104   6.226  0.4073  0.0598 -0.1236
  158MOL     O638000   4.018   0.086   6.278  0.5996 -0.2887  0.1105
  158MOL     H738001   4.341   0.182   6.040 -0.6487 -0.0670 -0.9673
  158MOL     H838002   4.171   0.428   6.118  1.3188  1.0890 -1.0368
  158MOL     H938003   4.356   0.422   6.093  1.2417 -1.4765  0.4364
  158MOL    H1038004   4.283   0.346   6.218  1.4914  0.6445 -0.6481
  158MOL    H1138005   4.115   0.069   6.019  1.3323  0.7550 -0.7535
  158MOL    H1238006   4.044   0.213   6.065  1.2447  2.1456  1.2534
  158MOL    H1338007   4.304   0.285   5.858  1.0998 -1.1542  2.2780
  158MOL    O1438008   4.240   0.113   6.293 -0.3013 -1.2161  1.0947
  158MOL    C1538009   4.242   0.121   6.432 -0.1454 -0.8432 -0.4987
  158MOL    C1638010   4.379   0.055   6.472  0.3784 -0.1109 -0.0074
  158MOL    C1738011   4.253   0.269   6.470 -0.5214  0.0046  0.0122
  158MOL    C1838012   4.232   0.290   6.623  0.4268  0.6942  0.2137
  158MOL    O1938013   4.325   0.321   6.703 -0.5266 -0.3905 -0.1653
  158MOL    H2038014   4.154   0.075   6.478 -2.1780  2.8080 -0.5319
  158MOL    H2138015   4.447   0.064   6.388 -1.1138 -2.4500 -1.5501
  158MOL    H2238016   4.366   7.928   6.492  0.4885 -0.1286 -0.0355
  158MOL    H2338017   4.428   0.096   6.560  2.2764 -4.3781  1.0843
  158MOL    H2438018   4.180   0.328   6.414 -1.3026  1.0565  2.0585
  158MOL    H2538019   4.353   0.309   6.456 -0.5026  0.3521  1.0621
  158MOL    O2638020   4.102   0.275   6.664 -0.4093  0.1437 -0.2734
  158MOL    C2738021   4.073   0.273   6.802  0.2829 -0.2407  0.0281
  158MOL    C2838022   3.928   0.320   6.813  0.3959 -0.0514 -1.1748
  158MOL    C2938023   4.098   0.138   6.862 -0.5953  0.0094  0.2486
  158MOL    C3038024   4.086   0.143   7.016  0.2889 -0.8145 -0.3412
  158MOL    O3138025   4.006   0.073   7.076 -0.2012  0.0785 -0.4259
  158MOL    H3238026   4.143   0.348   6.838 -1.2490 -0.0089  2.6581
  158MOL    H3338027   3.891   0.347   6.912  0.5911 -1.3418 -0.7409
  158MOL    H3438028   3.849   0.258   6.770  0.5472 -1.0244 -0.0642
  158MOL    H3538029   3.932   0.419   6.766  1.7683  0.9610  1.0130
  158MOL    H3638030   4.199   0.101   6.843 -0.5100  0.5873 -0.4258
  158MOL    H3738031   4.026   0.063   6.829 -0.2831 -0.3002  0.2716
  158MOL    O3838032   4.163   0.228   7.069 -0.1026 -0.1028  0.5803
  158MOL    C3938033   4.176   0.243   7.219 -0.1759 -0.0632  0.6469
  158MOL    C4038034   4.317   0.283   7.254 -0.0398 -0.0402  0.1630
  158MOL    C4138035   4.068   0.325   7.296  0.2796  0.1312 -0.0942
  158MOL    C4238036   4.060   0.480   7.272  0.4111  0.1188 -0.3586
  158MOL    O4338037   4.062   0.556   7.375  0.4692  0.5383 -0.0150
  158MOL    H4438038   4.171   0.141   7.257  2.3506 -0.2554  0.5494
  158MOL    H4538039   4.343   0.264   7.358  2.4945 -0.1902 -0.4584
  158MOL    H4638040   4.338   0.387   7.231 -3.8674  0.4560 -1.3527
  158MOL    H4738041   4.380   0.232   7.181  1.7201  0.2396  1.4395
  158MOL    H4838042   4.085   0.321   7.403  4.2717 -1.2255 -0.6840
  158MOL    H4938043   3.972   0.278   7.276  0.3545  0.0708 -0.3167
  158MOL    O5038044   4.071   0.519   7.139  0.1637  0.4524 -0.3789
  158MOL    C5138045   4.110   0.652   7.104 -0.0908 -0.1587 -0.1488
  158MOL    C5238046   4.239   0.620   7.014 -0.0923 -0.0339 -0.0710
  158MOL    C5338047   3.982   0.690   7.026 -0.5577  0.0505 -0.2415
  158MOL    C5438048   3.988   0.839   6.981  0.1340  1.0826  0.2945
  158MOL    O5538049   3.889   0.907   7.000 -0.3982 -0.2559 -0.0514
  158MOL    H5638050   4.126   0.716   7.191  0.6494 -0.7067  0.1233
  158MOL    H5738051   4.309   0.552   7.063  1.6507  1.0127 -1.0694
  158MOL    H5838052   4.284   0.717   6.996 -2.4964  0.9178 -1.1097
  158MOL    H5938053   4.198   0.570   6.926  0.8757  1.5251 -1.4396
  158MOL    H6038054   3.897   0.682   7.094  0.9298 -2.5732  1.3824
  158MOL    H6138055   3.964   0.619   6.945 -1.2059  0.6292 -0.6118
  158MOL    O6238056   4.107   0.878   6.932 -0.0226  0.7480 -0.0344
  158MOL    C6338057   4.132   1.008   6.873  0.4535 -0.4672 -0.0583
  158MOL    C6438058   4.156   1.102   6.990  1.1342  0.0944 -0.2412
  158MOL    C6538059   4.251   0.993   6.777  0.3807 -0.8854 -0.8421
  158MOL    C6638060   4.246   1.104   6.676  1.3228 -0.1761  0.0028
  158MOL    O6738061   4.350   1.164   6.651  0.1357 -0.0817 -0.0305
  158MOL    H6838062   4.035   1.035   6.831  0.0553 -0.3418  0.9287
  158MOL    H6938063   4.079   1.093   7.068  1.8998  1.1215  0.6519
  158MOL    H7038064   4.182   1.204   6.962  3.0133 -0.4966 -0.6730
  158MOL    H7138065   4.258   1.075   7.018  1.1743 -1.0349 -1.4529
  158MOL    H7238066   4.242   0.902   6.717  2.0330 -0.0320 -2.4122
  158MOL    H7338067   4.345   0.991   6.831  0.5066  0.2463 -1.0165
  158MOL    O7438068   4.121   1.140   6.627 -0.4652 -0.4647 -0.1354
  158MOL    C7538069   4.116   1.265   6.557 -0.3097 -0.2833  0.4662
  158MOL    C7638070   4.028   1.244   6.433 -0.3364  1.1445  0.3920
  158MOL    C7738071   4.063   1.361   6.665  0.8525  0.2518 -0.0674
  158MOL    C7838072   3.913   1.347   6.685  0.0233  0.0238 -0.7510
  158MOL    O7938073   3.840   1.431   6.641 -0.1837 -0.5787  0.3751
  158MOL    H8038074   4.209   1.301   6.513 -0.3692 -1.8161 -0.9470
  158MOL    H8138075   4.087   1.179   6.368  0.7392  1.5019  1.0132
  158MOL    H8238076   4.012   1.337   6.378 -1.4898  0.9217  0.3216
  158MOL    H8338077   3.943   1.176   6.441  0.6687  0.1435  2.8460
  158MOL    H8438078   4.083   1.465   6.638 -0.5080  0.4074 -0.5184
  158MOL    H8538079   4.117   1.350   6.759  0.7083  0.1153 -0.0005
  158MOL    O8638080   3.873   1.264   6.781 -0.2793 -0.2412  0.1409
  158MOL    C8738081   3.731   1.227   6.792 -0.1036  0.1537  0.0387
  158MOL    C8838082   3.694   1.109   6.702  0.0972 -0.3904  0.7600
  158MOL    C8938083   3.703   1.211   6.942 -0.2950  0.0633  0.7082
  158MOL    C9038084   3.554   1.236   6.971  0.7069 -0.3949  0.7188
  158MOL    O9138085   3.469   1.181   6.901 -0.3117 -0.3469  0.2438
  158MOL    H9238086   3.669   1.309   6.756 -1.3401 -0.0782  1.5941
  158MOL    H9338087   3.588   1.083   6.697 -0.8406  3.7742 -3.9663
  158MOL    H9438088   3.746   1.026   6.750 -0.5979 -1.3695 -0.1484
  158MOL    H9538089   3.734   1.125   6.603 -0.4227  1.7662  0.8843
  158MOL    H9638090   3.763   1.285   6.995 -1.2945  1.2871  0.1441
  158MOL    H9738091   3.735   1.112   6.977 -3.0068 -1.1402 -0.0959
  158MOL    O9838092   3.542   1.334   7.062 -0.2126  0.1371  0.3316
  158MOL    C9938093   3.412   1.388   7.094  0.2382  0.2668  0.1815
  158MOL   C10038094   3.347   1.323   7.216 -0.6668  0.6343 -0.3220
  158MOL   C10138095   3.435   1.532   7.121 -0.2453 -0.2115  0.7588
  158MOL   C10238096   3.445   1.622   6.995  0.1656 -0.3306  0.1240
  158MOL   O10338097   3.344   1.686   6.961 -0.3921  0.5811  0.6281
  158MOL   H10438098   3.353   1.385   7.003  0.4579  0.6951  0.0243
  158MOL   H10538099   3.378   1.350   7.317  0.1041 -3.6705  0.6914
  158MOL   H10638100   3.363   1.217   7.197  1.0966  0.9140 -0.5008
  158MOL   H10738101   3.239   1.339   7.212 -0.8083 -0.5052 -1.1964
  158MOL   H10838102   3.529   1.540   7.175 -0.5383 -0.7679  1.3613
  158MOL   H10938103   3.353   1.569   7.183 -2.0219 -1.5702 -0.7088
  158MOL   O11038104   3.558   1.620   6.935  0.3449 -0.6218  0.1149
  158MOL   C11138105   3.602   1.704   6.830  0.3359 -0.3045  0.1194
  158MOL   C11238106   3.742   1.751   6.845 -1.1462  0.0941  0.1540
  158MOL   C11338107   3.582   1.646   6.689 -0.8271 -0.4429 -0.4457
  158MOL   C11438108   3.434   1.654   6.645 -0.0381  0.3816  0.2377
  158MOL   O11538109   3.376   1.757   6.616 -0.6152  0.2395 -0.0633
  158MOL   H11638110   3.544   1.796   6.834  0.2051 -0.3070 -1.3240
  158MOL   H11738111   3.764   1.809   6.935  0.5576  1.0418 -0.8493
  158MOL   H11838112   3.773   1.825   6.772  0.7189 -1.5378 -0.7639
  158MOL   H11938113   3.811   1.667   6.853  1.1464  1.7788 -1.1419
  158MOL   H12038114   3.627   1.547   6.687  4.3871  1.7851 -1.0731
  158MOL   H12138115   3.638   1.703   6.615 -0.4051  0.4418  0.5502
  158MOL   O12238116   3.381   1.531   6.648  0.4956  0.1034  0.3653
  158MOL   C12338117   3.247   1.502   6.655  0.6120 -0.6050  0.1916
  158MOL   C12438118   3.196   1.490   6.505  0.7901  0.0041  0.0972
  158MOL   C12538119   3.233   1.374   6.741  0.6240  0.5886 -0.6827
  158MOL   C12638120   3.095   1.367   6.816  0.3995 -0.4228  0.7055
  158MOL   O12738121   3.040   1.261   6.839  0.2389 -0.1337 -0.1280
  158MOL   H12838122   3.193   1.582   6.705 -0.4245  0.2170 -2.1509
  158MOL   H12938123   3.267   1.427   6.451  0.9325  0.3105 -0.0724
  158MOL   H13038124   3.180   1.587   6.458 -0.3289  1.5686  3.5592
  158MOL   H13138125   3.111   1.422   6.494 -0.2953  1.5181 -1.0361
  158MOL   H13238126   3.303   1.387   6.823 -2.0348 -1.0595  1.9748
  158MOL   H13338127   3.245   1.276   6.695 -1.2266 -0.6049  1.2435
  158MOL   O13438128   3.059   1.493   6.867  0.5853  0.3460 -0.0669
  158MOL   C13538129   2.944   1.515   6.955  0.0021 -0.1297 -0.1391
  158MOL   C13638130   3.001   1.501   7.095  0.7369  0.7756  0.0772
  158MOL   C13738131   2.880   1.645   6.920 -0.0151 -0.2921 -0.6067
  158MOL   C13838132   2.783   1.638   6.810  0.5251 -0.5426  0.3073
  158MOL   O13938133   2.663   1.668   6.829 -0.0480  0.6541 -0.4670
  158MOL   H14038134   2.856   1.452   6.948  0.6857 -0.7808 -3.4907
  158MOL   H14138135   3.005   1.397   7.125  3.0764  0.5595 -0.8814
  158MOL   H14238136   2.941   1.555   7.168 -1.8933  0.4718 -1.7967
  158MOL   H14338137   3.102   1.544   7.102 -0.1228  2.7068  1.0416
  158MOL   H14438138   2.946   1.721   6.879  0.5173 -1.1321 -1.3219
  158MOL   H14538139   2.824   1.678   7.008 -0.0892  1.2547 -1.2111
  158MOL   O14638140   2.831   1.592   6.698  0.2396  0.1861 -0.0777
  158MOL   C14738141   2.762   1.597   6.580 -0.9532 -0.4856 -0.2728
  158MOL   C14838142   2.789   1.730   6.505  0.5450 -0.2932 -0.1653
  158MOL   C14938143   2.808   1.475   6.506  0.0910  0.1619 -0.2451
  158MOL   C15038144   2.734   1.348   6.551 -0.1383  0.3189  0.0217
  158MOL   O15138145   2.638   1.304   6.486 -0.1841  0.6030 -0.0048
  158MOL   H15238146   2.656   1.578   6.600 -1.1044  1.4848  0.9704
  158MOL   H15338147   2.744   1.715   6.407  0.6201  0.5611 -0.3382
  158MOL   H15438148   2.893   1.760   6.490  0.7114 -0.1750  1.1647
  158MOL   H15538149   2.744   1.812   6.561  0.0306 -1.5695  1.3188
  158MOL   H15638150   2.916   1.460   6.512 -0.1859 -1.2337  1.3894
  158MOL   H15738151   2.800   1.493   6.398  0.0440 -0.6833 -0.3820
  158MOL   O15838152   2.788   1.289   6.665 -0.6791  0.6721  0.2001
  158MOL   C15938153   2.723   1.183   6.722  0.3409  0.1087 -0.3328
  158MOL   C16038154   2.796   1.051   6.696 -0.3561  0.3379  0.1518
  158MOL   C16138155   2.722   1.210   6.869 -0.2824  0.0912  0.2276
  158MOL   C16238156   2.592   1.167   6.943  0.5808 -0.2686  0.0295
  158MOL   O16338157   2.517   1.244   7.003  0.1881 -0.0137 -0.9430
  158MOL   H16438158   2.620   1.180   6.688  0.6668  0.1555 -1.3597
  158MOL   H16538159   2.902   1.050   6.719 -0.1985  1.2400 -0.5082
  158MOL   H16638160   2.804   1.051   6.587  0.4326 -2.9782  0.1475
  158MOL   H16738161   2.749   0.962   6.738  0.5587 -0.0282  0.4028
  158MOL   H16838162   2.714   1.317   6.887 -3.0985  0.4106 -2.5111
  158MOL   H16938163   2.811   1.162   6.912  0.3569 -0.6498 -1.8266
  158MOL   O17038164   2.577   1.033   6.943 -0.5073  0.1130  0.1997
  158MOL   C17138165   2.483   0.958   7.019  0.2791  0.8543  0.6561
  158MOL   C17238166   2.447   0.837   6.923  0.5084  0.1961 -0.1641
  158MOL   C17338167   2.546   0.918   7.156  0.7560 -0.5528 -0.7861
  158MOL   C17438168   2.461   0.831   7.241  0.2615 -0.1452  0.8638
  158MOL   O17538169   2.376   0.873   7.320  0.6752  0.4314  0.0931
  158MOL   H17638170   2.391   1.015   7.036 -0.2042 -0.5208  2.8063
  158MOL   H17738171   2.430   0.866   6.819 -2.1177 -1.6688 -0.3165
  158MOL   H17838172   2.362   0.776   6.953  1.7864 -0.5075  2.1448
  158MOL   H17938173   2.537   0.776   6.921  0.4933  0.1052  1.3232
  158MOL   H18038174   2.568   1.009   7.212  0.9688 -1.0220 -0.1011
  158MOL   H18138175   2.639   0.864   7.138  0.1307 -1.2165 -2.0604
  158MOL   O18238176   2.496   0.705   7.214  0.3755 -0.0167  0.3781
  158MOL   C18338177   2.446   0.609   7.307 -0.3794  0.4948  0.3881
  158MOL   C18438178   2.463   0.473   7.229 -0.1264 -0.4486 -0.4826
  158MOL   C18538179   2.530   0.610   7.439  0.1405  0.0725 -0.5379
  158MOL   C18638180   2.501   0.506   7.543  0.5291  0.3712  0.2857
  158MOL   O18738181   2.407   0.428   7.525  0.1027  0.2576  0.0256
  158MOL   H18838182   2.340   0.623   7.331 -0.2153  0.4963  1.1372
  158MOL   H18938183   2.443   0.382   7.287  1.9857 -1.1431 -0.8078
  158MOL   H19038184   2.563   0.459   7.188  1.5668  2.1176  2.6378
  158MOL   H19138185   2.390   0.471   7.148  0.5448  1.5927 -1.1651
  158MOL   H19238186   2.505   0.705   7.488  0.2409 -0.5162  0.6794
  158MOL   H19338187   2.638   0.608   7.420  0.2286 -1.3601  0.0432
  158MOL   O19438188   2.582   0.514   7.647  0.2221  0.3591  0.2496
  158MOL   C19538189   2.576   0.420   7.757  0.3384  0.6399  0.1732
  158MOL   C19638190   2.715   0.376   7.807  0.4088  0.5828  0.4273
  158MOL   C19738191   2.475   0.486   7.856 -0.0834  0.1498  0.5155
  158MOL   C19838192   2.514   0.614   7.919  0.2226 -0.0738 -0.0279
  158MOL   O19938193   2.425   0.694   7.961 -0.5094 -0.0675 -0.0428
  158MOL   H20038194   2.543   0.323   7.720  0.1119  1.0975 -0.8186
  158MOL   H20138195   2.713   0.289   7.873  1.3667  0.0922 -0.1721
  158MOL   H20238196   2.781   0.449   7.855  2.6383 -0.5354 -0.8645
  158MOL   H20338197   2.779   0.354   7.722 -1.1851 -0.2707 -0.5755
  158MOL   H20438198   2.450   0.417   7.937 -1.7931  0.3912  0.2114
  158MOL   H20538199   2.381   0.505   7.804  1.2903  1.3009 -1.6156
  158MOL   O20638200   2.646   0.635   7.932 -0.0494  0.5702  0.0839
  158MOL   C20738201   2.687   0.770   7.959  0.3554 -0.1869  0.1110
  158MOL   C20838202   2.830   0.765   0.031 -0.2198  0.0254 -0.3695
  158MOL   C20938203   2.673   0.849   7.824  0.0044 -0.0075 -0.3526
  158MOL   C21038204   2.721   0.990   7.830  0.0253  0.1829  0.3110
  158MOL   O21138205   2.813   1.024   7.752  1.0189  0.1796  0.2322
  158MOL   H21238206   2.625   0.821   0.053 -1.9492 -0.8332 -1.3567
  158MOL   H21338207   2.874   0.858   0.067 -1.8935  0.2932  1.1220
  158MOL   H21438208   2.896   0.708   7.946 -0.0074 -0.8623  0.6051
  158MOL   H21538209   2.813   0.693   0.112 -0.7975 -1.4424 -1.7698
  158MOL   H21638210   2.567   0.846   7.795  0.0474 -0.3736 -0.4731
  158MOL   H21738211   2.729   0.796   7.747  2.2225 -0.3408  1.4629
  158MOL   O21838212   2.676   1.063   7.935  0.0459  1.1249  0.4205
  158MOL   C21938213   2.708   1.197   7.955 -0.2984 -0.0679  0.2247
  158MOL   C22038214   2.614   1.277   7.857  0.3526  0.3200 -0.1582
  158MOL   C22138215   2.700   1.237   0.117  0.0246 -0.2962 -0.1569
  158MOL   C22238216   2.563   1.239   0.179 -0.0068 -0.6241  0.2604
  158MOL   O22338217   2.508   1.347   0.198  0.2866 -0.1551  0.2795
  158MOL   H22438218   2.813   1.209   7.928 -0.7521 -1.0042 -2.0871
  158MOL   H22538219   2.511   1.242   7.867 -0.6637  3.1908 -0.2653
  158MOL   H22638220   2.643   1.257   7.754 -2.9410  0.3618 -1.1350
  158MOL   H22738221   2.617   1.381   7.888  0.2232 -0.3232  2.1491
  158MOL   H22838222   2.751   1.333   0.127  2.5920 -1.3154 -2.8648
  158MOL   H22938223   2.770   1.172   0.169  0.4409  0.3973  0.1602
  158MOL   O23038224   2.513   1.119   0.197 -0.2058 -0.3470 -0.3113
  158MOL   C23138225   2.377   1.096   0.242  0.0253  0.8709 -0.0925
  158MOL   C23238226   2.332   0.973   0.159 -0.2134  0.1693 -0.5702
  158MOL   C23338227   2.393   1.055   0.384  0.4010 -0.0329 -0.3041
  158MOL   C23438228   2.428   1.171   0.484 -0.4853 -0.1898  0.4497
  158MOL   O23538229   2.497   1.155   0.585  0.0484 -0.3086  0.0065
  158MOL   H23638230   2.316   1.185   0.227  1.4381  2.3157  2.5084
  158MOL   H23738231   2.298   0.996   0.058  0.1998 -0.4170 -0.8447
  158MOL   H23838232   2.242   0.940   0.210  0.7832 -1.6270  0.0935
  158MOL   H23938233   2.403   0.891   0.146 -0.5360 -0.8860  3.4559
  158MOL   H24038234   2.468   0.977   0.394  0.0104 -0.5366 -1.1973
  158MOL   H24138235   2.302   1.008   0.424  0.7937  2.2715  3.6012
  158MOL   H24238236   2.392   1.272   0.460  0.1353 -0.3893 -1.3429
  159MOL     O138237   0.980   3.894   4.758 -0.0646  0.2954 -0.7490
  159MOL     C238238   0.966   3.998   4.669 -0.0744 -0.0086  0.0360
  159MOL     C338239   0.871   4.106   4.715 -0.0777 -0.2459 -0.5507
  159MOL     C438240   1.110   4.040   4.621  0.0559 -0.4903 -0.7709
  159MOL     C538241   1.181   4.119   4.732 -0.2308  1.4408 -0.0544
  159MOL     O638242   1.268   4.066   4.804 -0.6965  0.2931 -0.0778
  159MOL     H738243   0.918   3.960   4.579  2.1105 -1.7275 -0.4533
  159MOL     H838244   0.768   4.071   4.711 -0.0005 -0.8262  1.9742
  159MOL     H938245   0.877   4.191   4.647 -0.0500 -0.9365 -1.4230
  159MOL    H1038246   0.896   4.139   4.815  1.9452 -0.2354 -1.0377
  159MOL    H1138247   1.117   4.107   4.535  0.9192 -3.0387 -2.7766
  159MOL    H1238248   1.179   3.959   4.595 -0.3387 -0.2374 -2.7023
  159MOL    H1338249   0.897   3.850   4.751  0.0617  0.3369 -2.8733
  159MOL    O1438250   1.140   4.247   4.733 -0.0199  0.1071 -0.3548
  159MOL    C1538251   1.198   4.329   4.841  0.7837  0.4631  0.5584
  159MOL    C1638252   1.221   4.475   4.785  0.0815 -0.2530  0.1183
  159MOL    C1738253   1.086   4.321   4.953 -1.0144 -0.2419 -0.2311
  159MOL    C1838254   1.137   4.366   5.086  0.5125  0.0033  0.3474
  159MOL    O1938255   1.221   4.449   5.097 -0.5945 -0.3364 -0.0875
  159MOL    H2038256   1.298   4.292   4.864  0.9508  0.1970 -0.5532
  159MOL    H2138257   1.277   4.468   4.691 -1.8684 -0.2451 -1.0697
  159MOL    H2238258   1.291   4.534   4.844  1.6527 -1.0869 -0.8583
  159MOL    H2338259   1.128   4.528   4.766 -0.6972 -1.6742 -0.1329
  159MOL    H2438260   1.046   4.220   4.955 -0.6319 -0.4017 -0.6670
  159MOL    H2538261   1.002   4.386   4.929 -0.7909  0.0302 -0.2901
  159MOL    O2638262   1.078   4.296   5.189  0.2565 -0.0314 -0.5604
  159MOL    C2738263   1.124   4.306   5.326 -0.4252  0.2577  0.1246
  159MOL    C2838264   0.994   4.327   5.402  0.2837 -0.5793  0.1163
  159MOL    C2938265   1.203   4.178   5.372  0.1903 -0.1732  0.0572
  159MOL    C3038266   1.311   4.189   5.477 -0.0205 -0.2872 -0.3330
  159MOL    O3138267   1.295   4.154   5.598 -0.0597  0.3359 -0.2849
  159MOL    H3238268   1.195   4.389   5.324  1.5107 -1.3715 -1.5578
  159MOL    H3338269   0.936   4.237   5.419  0.6673 -0.6413  1.1688
  159MOL    H3438270   0.926   4.403   5.363 -0.6663 -1.1889  0.5625
  159MOL    H3538271   1.013   4.374   5.499 -0.2897  0.4250 -0.2468
  159MOL    H3638272   1.257   4.139   5.286  1.4715  2.3088 -0.2896
  159MOL    H3738273   1.126   4.110   5.409 -0.2676 -0.2123 -0.9433
  159MOL    O3838274   1.421   4.216   5.413  0.1379 -0.1446 -0.2281
  159MOL    C3938275   1.532   4.271   5.477 -0.6417  0.6851 -0.5794
  159MOL    C4038276   1.615   4.163   5.547  0.0937  0.4375 -0.0517
  159MOL    C4138277   1.616   4.360   5.384 -0.5951  0.4743  0.1019
  159MOL    C4238278   1.682   4.291   5.262 -0.1195  0.1710 -0.0178
  159MOL    O4338279   1.792   4.236   5.271 -0.2238  0.3135 -0.4051
  159MOL    H4438280   1.493   4.335   5.556  2.5377  0.9403  0.8832
  159MOL    H4538281   1.646   4.089   5.473 -1.7084  0.5028 -0.9079
  159MOL    H4638282   1.560   4.107   5.622 -0.9261 -0.3765 -1.3732
  159MOL    H4738283   1.700   4.205   5.600 -1.0191  0.3089  1.9016
  159MOL    H4838284   1.695   4.408   5.442  1.6978 -0.8396 -1.8007
  159MOL    H4938285   1.557   4.447   5.356 -2.2690 -0.1270  1.6752
  159MOL    O5038286   1.612   4.300   5.150  0.5262  0.8181  0.3415
  159MOL    C5138287   1.640   4.212   5.042 -0.5003  0.4176  0.0162
  159MOL    C5238288   1.546   4.094   5.051  0.2311  0.0569  0.3425
  159MOL    C5338289   1.605   4.303   4.919 -0.2464 -0.3410  0.1318
  159MOL    C5438290   1.697   4.410   4.877  0.7937  0.4816  0.8482
  159MOL    O5538291   1.815   4.396   4.903  0.4118  0.4319  0.3499
  159MOL    H5638292   1.743   4.176   5.041 -0.5177  0.3472  0.7393
  159MOL    H5738293   1.565   4.021   4.972 -0.5651 -0.4683  0.6283
  159MOL    H5838294   1.443   4.129   5.040  0.2449  0.3032  0.9496
  159MOL    H5938295   1.545   4.051   5.151  0.7627 -0.1219  0.2707
  159MOL    H6038296   1.513   4.359   4.935 -0.8833 -0.9389 -1.3323
  159MOL    H6138297   1.593   4.241   4.830 -1.2051  0.3014 -0.1918
  159MOL    O6238298   1.639   4.508   4.806 -1.0970 -0.4616  0.4243
  159MOL    C6338299   1.721   4.618   4.761  0.3338 -0.1811  0.2844
  159MOL    C6438300   1.716   4.612   4.606 -0.3577 -0.5323 -0.6259
  159MOL    C6538301   1.657   4.746   4.812 -0.3763 -0.0097 -0.0816
  159MOL    C6638302   1.703   4.790   4.955 -0.3738  0.7369  0.4507
  159MOL    O6738303   1.694   4.905   4.993 -0.7317 -0.1400 -0.0872
  159MOL    H6838304   1.822   4.611   4.803  1.1751 -1.0748 -1.8279
  159MOL    H6938305   1.754   4.707   4.570 -3.4510  1.0643  0.1559
  159MOL    H7038306   1.611   4.614   4.576 -0.1282  2.1607 -1.3885
  159MOL    H7138307   1.760   4.520   4.566 -1.2979 -0.8453 -0.9771
  159MOL    H7238308   1.548   4.742   4.810 -0.3706 -1.0393  0.8087
  159MOL    H7338309   1.683   4.831   4.750 -1.3282 -0.3763 -0.9916
  159MOL    O7438310   1.763   4.697   5.025  0.5337  0.0836 -0.3591
  159MOL    C7538311   1.834   4.735   5.144  0.2471 -0.3611  0.7809
  159MOL    C7638312   1.778   4.658   5.263  0.3512 -0.2716 -0.1067
  159MOL    C7738313   1.982   4.694   5.132 -0.8731 -0.1033  0.6473
  159MOL    C7838314   2.060   4.771   5.028 -0.6841  0.0243  0.0813
  159MOL    O7938315   2.021   4.792   4.913 -0.4201  0.1858  0.4021
  159MOL    H8038316   1.831   4.843   5.159  2.3466 -0.2986  1.0259
  159MOL    H8138317   1.817   4.690   5.360  0.2676  2.4724 -0.9581
  159MOL    H8238318   1.801   4.551   5.253  1.5498 -0.4407  3.5289
  159MOL    H8338319   1.670   4.648   5.258  0.2545  0.5453  0.2903
  159MOL    H8438320   1.996   4.588   5.113  0.4407 -0.0746  1.3879
  159MOL    H8538321   2.039   4.695   5.225  2.8463  0.2911 -1.5280
  159MOL    O8638322   2.187   4.787   5.064 -0.5380  0.5003 -0.3959
  159MOL    C8738323   2.282   4.840   4.973  0.1365 -0.5293  0.0369
  159MOL    C8838324   2.285   4.992   4.988  0.0478 -0.0315 -0.1958
  159MOL    C8938325   2.413   4.778   5.039  0.4635  0.2384  0.3933
  159MOL    C9038326   2.422   4.626   5.014 -0.1175  0.2663 -0.4704
  159MOL    O9138327   2.463   4.547   5.104 -0.7001  0.1323 -0.5081
  159MOL    H9238328   2.268   4.814   4.868 -0.3498 -2.1356  0.4937
  159MOL    H9338329   2.279   5.018   5.094  1.5500  0.6956 -0.2709
  159MOL    H9438330   2.196   5.028   4.936  0.3455  2.7102  1.0901
  159MOL    H9538331   2.371   5.042   4.942 -0.6868  0.3061 -1.2185
  159MOL    H9638332   2.422   4.813   5.142 -0.7091  0.8719  0.2893
  159MOL    H9738333   2.504   4.811   4.988 -0.3493  4.0311  1.2370
  159MOL    O9838334   2.370   4.588   4.892 -0.0519 -0.3354  0.1682
  159MOL    C9938335   2.332   4.451   4.884  0.3772  0.5056 -0.4825
  159MOL   C10038336   2.187   4.449   4.834  0.5941  0.0558 -0.3329
  159MOL   C10138337   2.422   4.376   4.776  0.3917 -1.1577 -1.0182
  159MOL   C10238338   2.400   4.406   4.625  0.2647  0.0814  0.2014
  159MOL   O10338339   2.451   4.501   4.568  0.2031 -0.6140  0.0431
  159MOL   H10438340   2.324   4.400   4.980  0.6715  1.2356 -0.0619
  159MOL   H10538341   2.105   4.466   4.903 -0.1319  2.6805 -1.7723
  159MOL   H10638342   2.176   4.352   4.786  1.8772  1.0077 -2.6392
  159MOL   H10738343   2.161   4.515   4.751 -1.3023  0.2948  0.4249
  159MOL   H10838344   2.404   4.271   4.800 -1.5268 -0.3637  1.2741
  159MOL   H10938345   2.525   4.410   4.788  0.5938 -1.5760 -1.5435
  159MOL   O11038346   2.320   4.311   4.567  0.4363 -0.3151 -0.0784
  159MOL   C11138347   2.287   4.322   4.428  0.2718 -0.1811 -0.4860
  159MOL   C11238348   2.269   4.174   4.391 -0.5550 -0.1855 -0.2046
  159MOL   C11338349   2.151   4.394   4.421  0.1513 -0.0497 -0.3297
  159MOL   C11438350   2.089   4.430   4.288 -0.2643  0.2316  0.5598
  159MOL   O11538351   2.107   4.534   4.235  0.5257  0.0894  0.1710
  159MOL   H11638352   2.352   4.383   4.365  0.4997  2.7046  2.3678
  159MOL   H11738353   2.357   4.111   4.402 -0.3753 -0.5477 -3.3184
  159MOL   H11838354   2.261   4.166   4.283  0.6606 -0.6437 -0.2646
  159MOL   H11938355   2.191   4.128   4.451  1.2699 -0.2936  2.1577
  159MOL   H12038356   2.168   4.484   4.480  0.6096  0.0195 -0.5685
  159MOL   H12138357   2.073   4.343   4.477 -0.1105  0.8546  0.1333
  159MOL   O12238358   2.022   4.328   4.233 -0.0870  0.6028 -0.5599
  159MOL   C12338359   1.929   4.360   4.128  0.5878  0.2727  0.0939
  159MOL   C12438360   2.001   4.317   4.001  0.3599 -0.4179 -0.5684
  159MOL   C12538361   1.798   4.293   4.159  0.0378 -0.5423 -0.8911
  159MOL   C12638362   1.673   4.344   4.078  0.1195 -0.3020  0.2979
  159MOL   O12738363   1.588   4.263   4.036 -0.1627 -0.1557  0.2169
  159MOL   H12838364   1.914   4.468   4.122  1.1399  0.2994 -1.1105
  159MOL   H12938365   1.938   4.321   3.913 -0.6513 -0.6044  0.1474
  159MOL   H13038366   2.036   4.214   4.003  0.1870 -0.4623  0.4148
  159MOL   H13138367   2.091   4.380   3.992  1.2216 -1.2231  1.9518
  159MOL   H13238368   1.780   4.302   4.266 -0.7397 -3.0970 -0.7556
  159MOL   H13338369   1.797   4.184   4.149 -2.1704 -0.5521 -0.8724
  159MOL   O13438370   1.668   4.480   4.072 -0.2452  0.4488  0.0372
  159MOL   C13538371   1.553   4.546   4.029  0.2282  0.2978 -0.0753
  159MOL   C13638372   1.546   4.677   4.099  0.2672  0.0925 -0.2431
  159MOL   C13738373   1.536   4.544   3.877  0.1733  0.2717 -0.5458
  159MOL   C13838374   1.627   4.634   3.796  0.3259  0.3252  0.1073
  159MOL   O13938375   1.590   4.722   3.717  0.0705  0.8389  0.2691
  159MOL   H14038376   1.462   4.493   4.058 -0.3474 -0.6327 -3.3608
  159MOL   H14138377   1.449   4.718   4.072  0.5034 -1.1636 -3.1188
  159MOL   H14238378   1.631   4.745   4.090  2.5628 -2.5228  0.6137
  159MOL   H14338379   1.539   4.660   4.207  0.0392  1.3668 -0.0488
  159MOL   H14438380   1.436   4.578   3.850 -0.5383  0.2906  1.9831
  159MOL   H14538381   1.535   4.439   3.849 -0.4521  0.4547 -1.2341
  159MOL   O14638382   1.757   4.607   3.825 -0.3751 -0.1070 -0.1699
  159MOL   C14738383   1.863   4.684   3.768 -0.0033  0.0169 -0.0850
  159MOL   C14838384   1.936   4.734   3.890  0.4659 -0.9174 -0.0561
  159MOL   C14938385   1.950   4.594   3.677 -0.2674 -0.0136  0.3465
  159MOL   C15038386   2.047   4.666   3.586  0.1384 -0.1456 -1.2496
  159MOL   O15138387   2.147   4.727   3.634  0.3690 -0.5750  0.6291
  159MOL   H15238388   1.817   4.762   3.707 -2.9617  0.4143  2.5580
  159MOL   H15338389   2.016   4.806   3.872  1.8658 -1.8082  2.3467
  159MOL   H15438390   1.987   4.654   3.944  1.8836  0.0049 -0.0098
  159MOL   H15538391   1.868   4.778   3.963  1.3349  0.3638 -0.0002
  159MOL   H15638392   1.880   4.525   3.631  1.5309 -2.7712  1.6514
  159MOL   H15738393   2.016   4.522   3.725  0.9452  1.7267  1.3270
  159MOL   O15838394   2.025   4.639   3.461 -0.3293  0.5663 -0.3059
  159MOL   C15938395   2.107   4.683   3.360 -0.4948  0.0666  0.0683
  159MOL   C16038396   2.065   4.599   3.237 -0.2000  0.2467  0.2252
  159MOL   C16138397   2.104   4.839   3.329 -0.0921 -0.2145 -0.0502
  159MOL   C16238398   1.975   4.890   3.265 -0.5058 -0.5593 -0.1765
  159MOL   O16338399   1.992   4.971   3.175 -1.0256  0.2999 -0.0131
  159MOL   H16438400   2.212   4.661   3.379 -0.2804  0.6628 -0.4152
  159MOL   H16538401   2.071   4.491   3.250  0.3820  0.1960 -0.4238
  159MOL   H16638402   2.120   4.641   3.153 -0.3080  1.5551  0.7915
  159MOL   H16738403   1.958   4.617   3.225 -0.2415  0.1743  0.4941
  159MOL   H16838404   2.173   4.857   3.247  1.0968 -0.0673  0.9713
  159MOL   H16938405   2.132   4.886   3.423  0.8845 -1.0064  0.0530
  159MOL   O17038406   1.857   4.847   3.317 -0.2409  0.0632 -0.3900
  159MOL   C17138407   1.733   4.900   3.285  0.3672 -0.2464 -0.1227
  159MOL   C17238408   1.649   4.777   3.245 -0.3052  0.4642  0.4060
  159MOL   C17338409   1.683   4.984   3.403 -0.1340 -0.2161  0.0690
  159MOL   C17438410   1.579   5.075   3.358 -0.4732  0.1241 -0.7607
  159MOL   O17538411   1.505   5.052   3.259  0.3440 -0.0075  0.0957
  159MOL   H17638412   1.735   4.970   3.201 -2.5152 -1.1607 -1.0081
  159MOL   H17738413   1.543   4.793   3.222 -0.0232 -0.0388 -1.3456
  159MOL   H17838414   1.658   4.709   3.329 -0.5997 -0.9785 -0.6947
  159MOL   H17938415   1.686   4.736   3.151 -0.3366  3.4224 -0.9448
  159MOL   H18038416   1.764   5.051   3.432 -0.5552  0.2270  0.2328
  159MOL   H18138417   1.659   4.923   3.489  0.4482  0.1159  0.4679
  159MOL   O18238418   1.581   5.184   3.431  0.4062 -0.0306  0.1131
  159MOL   C18338419   1.493   5.291   3.395 -0.1808 -0.1859  0.6734
  159MOL   C18438420   1.430   5.352   3.517  0.3918  0.0678  1.1289
  159MOL   C18538421   1.562   5.405   3.308 -0.6431  0.1366 -0.2243
  159MOL   C18638422   1.483   5.464   3.191 -0.1448  0.9836 -0.4289
  159MOL   O18738423   1.397   5.406   3.130  0.7270 -0.1465 -0.4531
  159MOL   H18838424   1.413   5.257   3.329  0.8888 -1.7293  0.1558
  159MOL   H18938425   1.498   5.398   3.588  1.6776  0.9319 -0.6278
  159MOL   H19038426   1.374   5.275   3.571 -0.8499 -0.1616 -0.4358
  159MOL   H19138427   1.364   5.436   3.493 -1.3702 -0.4814  3.8710
  159MOL   H19238428   1.655   5.366   3.268  0.3119  1.4704  0.6435
  159MOL   H19338429   1.605   5.483   3.372  0.6171 -1.4680  0.9290
  159MOL   O19438430   1.515   5.596   3.171 -0.5759 -0.5248  0.3986
  159MOL   C19538431   1.445   5.677   3.081 -0.4714  0.5734  0.7395
  159MOL   C19638432   1.368   5.772   3.165  0.3778 -0.0749  0.0535
  159MOL   C19738433   1.538   5.743   2.977  0.2238  0.1233 -0.2028
  159MOL   C19838434   1.595   5.642   2.879  0.6049  0.7318  1.0478
  159MOL   O19938435   1.715   5.611   2.864  0.1291 -0.5224 -0.3020
  159MOL   H20038436   1.375   5.617   3.022 -0.7962  0.6332  1.0618
  159MOL   H20138437   1.328   5.724   3.254  0.1527 -0.5903 -0.3171
  159MOL   H20238438   1.278   5.795   3.108  1.6902  1.7534 -1.3342
  159MOL   H20338439   1.426   5.859   3.193 -0.2111 -0.4275  2.4678
  159MOL   H20438440   1.625   5.789   3.025  0.6881  0.0349 -0.9607
  159MOL   H20538441   1.487   5.817   2.916  1.1315  1.8635  1.1252
  159MOL   O20638442   1.496   5.602   2.810  0.2373  0.5425  0.5055
  159MOL   C20738443   1.522   5.514   2.704  0.3883 -0.4900 -0.3987
  159MOL   C20838444   1.414   5.402   2.712 -0.7516 -0.0622  0.1510
  159MOL   C20938445   1.526   5.597   2.572  0.4092 -0.4541  0.4589
  159MOL   C21038446   1.596   5.533   2.451  0.0866  0.1766  0.2001
  159MOL   O21138447   1.536   5.448   2.385 -0.0583 -0.3710 -0.2330
  159MOL   H21238448   1.618   5.466   2.724  1.0731  1.0906  0.1802
  159MOL   H21338449   1.435   5.317   2.648  2.5685  0.5952  0.2296
  159MOL   H21438450   1.312   5.424   2.682 -1.2553 -3.0633 -0.4668
  159MOL   H21538451   1.404   5.364   2.814 -0.3510 -2.4455 -0.6656
  159MOL   H21638452   1.583   5.690   2.581  0.6323 -0.7665  2.4516
  159MOL   H21738453   1.420   5.619   2.561  0.9453  0.7787 -2.8840
  159MOL   O21838454   1.727   5.560   2.451 -0.4006 -0.0636 -0.2021
  159MOL   C21938455   1.826   5.480   2.384 -1.4190 -0.6238  0.2247
  159MOL   C22038456   1.862   5.540   2.248 -0.7968 -0.0185  0.3052
  159MOL   C22138457   1.944   5.447   2.478 -0.0064  0.6068 -0.2651
  159MOL   C22238458   2.009   5.313   2.448  0.3834 -0.6357 -0.5820
  159MOL   O22338459   1.969   5.243   2.355 -0.9631  0.0008 -0.2101
  159MOL   H22438460   1.789   5.380   2.361  0.6317 -1.5611  0.8325
  159MOL   H22538461   1.785   5.572   2.179 -1.4584 -0.5597  0.7851
  159MOL   H22638462   1.938   5.481   2.197 -1.8280 -0.5488 -0.6471
  159MOL   H22738463   1.918   5.632   2.266  0.5156 -0.6289 -0.5396
  159MOL   H22838464   1.904   5.431   2.578 -0.7990  0.9769 -0.5182
  159MOL   H22938465   2.010   5.532   2.491 -0.0005  0.6389 -0.5161
  159MOL   O23038466   2.105   5.282   2.533 -0.3213 -0.2267  0.0423
  159MOL   C23138467   2.184   5.166   2.516  0.3106 -0.0963  0.1249
  159MOL   C23238468   2.335   5.194   2.539 -1.2973 -0.5724 -0.8565
  159MOL   C23338469   2.123   5.050   2.592 -0.3977  0.0684  0.2926
  159MOL   C23438470   2.150   5.033   2.746  0.6691  0.4305  0.5233
  159MOL   O23538471   2.217   4.940   2.786 -0.5630  0.2154 -0.0575
  159MOL   H23638472   2.166   5.136   2.413 -0.3021 -2.6866  0.9602
  159MOL   H23738473   2.363   5.225   2.639  0.0493 -0.9109 -1.1234
  159MOL   H23838474   2.371   5.275   2.476  0.2749 -0.6626 -0.0857
  159MOL   H23938475   2.394   5.103   2.531 -1.5305 -0.7684 -0.3422
  159MOL   H24038476   2.150   4.957   2.543 -0.7565 -0.2393  0.6734
  159MOL   H24138477   2.015   5.057   2.578  0.0294 -1.2446 -4.1648
  159MOL   H24238478   2.100   5.090   2.824 -0.7969 -1.2609  0.8376
  160MOL     O138479   3.869   4.431   2.337  0.0460  0.3911  0.1108
  160MOL     C238480   3.964   4.462   2.436 -0.1589  0.3944  0.1633
  160MOL     C338481   4.060   4.347   2.447  0.1642  0.5170  0.5320
  160MOL     C438482   4.019   4.601   2.408  0.5333 -0.3368  0.4151
  160MOL     C538483   4.080   4.677   2.529 -0.1963 -0.2704 -0.5185
  160MOL     O638484   4.006   4.729   2.610 -0.4481 -0.2842  0.1310
  160MOL     H738485   3.920   4.475   2.535 -0.9454 -2.7932  0.2807
  160MOL     H838486   4.005   4.267   2.497  0.8591  1.1306  2.3203
  160MOL     H938487   4.144   4.360   2.515  1.3715 -1.2531 -0.5958
  160MOL    H1038488   4.103   4.311   2.353  0.2917 -1.2390  1.2494
  160MOL    H1138489   3.942   4.668   2.369  0.3139 -0.1981  1.0830
  160MOL    H1238490   4.087   4.602   2.323  1.5131  1.9104  1.1795
  160MOL    H1338491   3.907   4.448   2.252 -0.7268  0.5808 -0.2001
  160MOL    O1438492   4.219   4.675   2.527 -0.1792  0.4678  0.2414
  160MOL    C1538493   4.305   4.748   2.610  0.3869 -0.0726 -0.0817
  160MOL    C1638494   4.301   4.701   2.754  0.3399  0.3300 -0.0466
  160MOL    C1738495   4.451   4.755   2.567 -0.1548  0.0409 -0.0214
  160MOL    C1838496   4.463   4.837   2.438 -0.1018 -0.7645 -0.1062
  160MOL    O1938497   4.359   4.882   2.387 -0.6640  0.0788  0.0594
  160MOL    H2038498   4.277   4.853   2.622 -0.2459 -0.1228 -1.0623
  160MOL    H2138499   4.327   4.783   2.821 -0.3697 -0.0582  0.7054
  160MOL    H2238500   4.372   4.618   2.757  0.2100  0.2456  0.7348
  160MOL    H2338501   4.201   4.664   2.776 -0.5187  1.2998 -2.1944
  160MOL    H2438502   4.478   4.650   2.564  1.8394  0.4244  2.9046
  160MOL    H2538503   4.512   4.807   2.640  0.3764  0.5213 -0.8022
  160MOL    O2638504   4.589   4.856   2.401 -0.1080 -0.3331 -0.3140
  160MOL    C2738505   4.609   4.937   2.279 -0.4536  0.0520  0.4863
  160MOL    C2838506   4.718   5.031   2.319  1.1346  1.0647 -0.8303
  160MOL    C2938507   4.640   4.854   2.155 -0.5157 -0.0972  0.3637
  160MOL    C3038508   4.529   4.781   2.090 -0.0497  0.5971  0.4051
  160MOL    O3138509   4.562   4.678   2.032  0.1832  0.4550  0.0096
  160MOL    H3238510   4.525   5.003   2.257 -2.6327 -2.6658  0.2930
  160MOL    H3338511   4.809   4.986   2.360  0.6372  1.2233  0.4692
  160MOL    H3438512   4.672   5.104   2.385 -0.3184  0.5614 -1.2562
  160MOL    H3538513   4.764   5.081   2.234  0.5866 -0.1106 -1.8425
  160MOL    H3638514   4.718   4.781   2.177  0.9535  1.5287  0.6569
  160MOL    H3738515   4.678   4.919   2.077 -0.8711 -0.2279  0.0824
  160MOL    O3838516   4.402   4.833   2.092  0.7973  0.2434 -0.0718
  160MOL    C3938517   4.290   4.771   2.036  0.3282  0.1948 -0.1873
  160MOL    C4038518   4.165   4.832   2.101  0.1806  0.0431 -0.0092
  160MOL    C4138519   4.291   4.787   1.879 -0.2685 -0.0789 -0.7094
  160MOL    C4238520   4.190   4.697   1.808 -0.4756  0.3945 -0.2205
  160MOL    O4338521   4.081   4.746   1.781 -0.2227  0.4391 -0.3722
  160MOL    H4438522   4.294   4.670   2.077 -0.7647  0.0667 -0.3891
  160MOL    H4538523   4.077   4.772   2.079 -0.5176  1.2133 -0.4309
  160MOL    H4638524   4.141   4.935   2.076 -1.1147  0.0592  1.2427
  160MOL    H4738525   4.182   4.847   2.207 -0.9685  1.4874 -0.0284
  160MOL    H4838526   4.386   4.759   1.833 -0.4018 -0.1982 -0.9088
  160MOL    H4938527   4.278   4.892   1.853 -0.0716  0.1194 -0.0150
  160MOL    O5038528   4.225   4.570   1.795 -0.5239  0.0975  0.5003
  160MOL    C5138529   4.138   4.474   1.748  0.1621 -0.3772 -0.0544
  160MOL    C5238530   4.217   4.370   1.665 -0.3698 -0.7634  0.0913
  160MOL    C5338531   4.074   4.394   1.869 -0.7971  0.1908  0.0926
  160MOL    C5438532   3.974   4.471   1.939 -0.3130  0.1399  0.8720
  160MOL    O5538533   3.981   4.500   2.058 -0.1905  0.0632 -0.2234
  160MOL    H5638534   4.064   4.527   1.688  2.1459  1.8210 -0.6356
  160MOL    H5738535   4.144   4.295   1.636 -1.3588  0.3601 -0.3778
  160MOL    H5838536   4.307   4.336   1.717  0.5499 -0.6836 -1.3987
  160MOL    H5938537   4.257   4.400   1.568 -0.8034 -0.3989  0.0226
  160MOL    H6038538   4.148   4.356   1.939 -1.2166 -0.2089  0.3182
  160MOL    H6138539   4.023   4.304   1.835 -0.8831  0.7018 -1.1947
  160MOL    O6238540   3.876   4.513   1.858  0.7642  0.4842  0.4022
  160MOL    C6338541   3.762   4.573   1.915  0.4508 -0.1693  0.2724
  160MOL    C6438542   3.665   4.479   1.987  0.7113 -0.3652  0.1078
  160MOL    C6538543   3.778   4.720   1.973 -0.0581 -0.0465  0.4979
  160MOL    C6638544   3.698   4.831   1.899  0.2766  0.2549  0.5827
  160MOL    O6738545   3.577   4.830   1.902 -0.1359  0.2284 -0.1970
  160MOL    H6838546   3.710   4.588   1.821  1.0646 -3.9387 -0.7612
  160MOL    H6938547   3.560   4.505   1.977  1.2037  2.0667  0.9568
  160MOL    H7038548   3.692   4.484   2.092  0.2747  3.2851  0.0949
  160MOL    H7138549   3.661   4.374   1.957 -1.9965  0.2922 -2.0263
  160MOL    H7238550   3.880   4.757   1.962 -0.9732  2.5327  0.1538
  160MOL    H7338551   3.772   4.718   2.082 -0.6149 -2.4638  0.4400
  160MOL    O7438552   3.780   4.921   1.847  0.1605  0.1597  0.3575
  160MOL    C7538553   3.732   5.036   1.780 -0.5245 -0.1426  0.0494
  160MOL    C7638554   3.806   5.156   1.845  0.2528 -0.2753 -0.2060
  160MOL    C7738555   3.768   5.023   1.630 -0.3830  0.0347  0.0109
  160MOL    C7838556   3.699   5.130   1.537 -0.8475  0.0419 -0.0522
  160MOL    O7938557   3.767   5.187   1.453  0.0160  0.1052 -0.1926
  160MOL    H8038558   3.625   5.054   1.793 -0.5086  0.2518 -0.3513
  160MOL    H8138559   3.760   5.248   1.810 -2.3950 -1.4239  0.1274
  160MOL    H8238560   3.909   5.166   1.810  0.7286  0.7277  1.4490
  160MOL    H8338561   3.800   5.145   1.953 -1.1287  0.2271 -0.2167
  160MOL    H8438562   3.740   4.927   1.588 -1.5783  0.4781 -0.2314
  160MOL    H8538563   3.876   5.034   1.618 -0.6393  2.2486 -0.6140
  160MOL    O8638564   3.573   5.149   1.561  0.3645 -0.8950 -0.1299
  160MOL    C8738565   3.497   5.250   1.485  1.1520  0.6654  0.1596
  160MOL    C8838566   3.371   5.186   1.415 -0.0242  0.4475  0.3574
  160MOL    C8938567   3.467   5.364   1.585 -0.7722  0.5377  0.5728
  160MOL    C9038568   3.455   5.499   1.526 -0.3126  0.0881 -0.0770
  160MOL    O9138569   3.520   5.532   1.428 -0.5570  0.1319 -0.2114
  160MOL    H9238570   3.564   5.299   1.415  2.1504 -0.3254  0.4059
  160MOL    H9338571   3.291   5.163   1.486 -0.5667  0.0129 -0.3912
  160MOL    H9438572   3.412   5.096   1.369 -0.0759  0.7520 -0.2874
  160MOL    H9538573   3.330   5.244   1.333  0.8766  2.9482  1.6306
  160MOL    H9638574   3.560   5.379   1.640 -0.2276  1.8837 -0.6856
  160MOL    H9738575   3.381   5.334   1.644 -1.0531 -1.7354 -0.9337
  160MOL    O9838576   3.379   5.591   1.596 -0.3815 -0.5316 -0.4979
  160MOL    C9938577   3.372   5.722   1.554  0.3699 -0.0962  0.2828
  160MOL   C10038578   3.228   5.758   1.562  0.0898 -0.6408  0.0697
  160MOL   C10138579   3.463   5.818   1.644  0.3636  0.6688  0.7106
  160MOL   C10238580   3.612   5.802   1.633  0.4260  0.2083 -0.5532
  160MOL   O10338581   3.680   5.800   1.734  0.0600 -0.0823  1.1363
  160MOL   H10438582   3.399   5.741   1.451  1.6075 -1.1617  0.3968
  160MOL   H10538583   3.191   5.753   1.665  0.6945 -4.1693  0.1580
  160MOL   H10638584   3.155   5.706   1.500 -0.7542 -1.6633  1.8925
  160MOL   H10738585   3.217   5.859   1.523  0.6254 -0.9272 -0.8173
  160MOL   H10838586   3.440   5.829   1.749 -4.2021 -2.6893  0.2285
  160MOL   H10938587   3.459   5.915   1.595  3.8244  0.7341  0.4256
  160MOL   O11038588   3.662   5.807   1.512 -0.0188  0.6729 -0.1072
  160MOL   C11138589   3.806   5.807   1.495 -0.1793  0.0223  0.5931
  160MOL   C11238590   3.832   5.741   1.360 -0.0669  0.3154  0.0386
  160MOL   C11338591   3.853   5.960   1.498  0.4959  0.1444  0.3434
  160MOL   C11438592   3.996   5.986   1.484  0.3190  0.0064  0.4059
  160MOL   O11538593   4.044   6.044   1.391  0.2290 -0.6845  0.1472
  160MOL   H11638594   3.860   5.752   1.572 -1.9206 -0.0213  1.8070
  160MOL   H11738595   3.939   5.752   1.346 -0.0516 -0.2254 -0.2847
  160MOL   H11838596   3.781   5.797   1.281  2.1780  0.3037 -1.4616
  160MOL   H11938597   3.799   5.637   1.350 -0.4913  0.5197 -0.7659
  160MOL   H12038598   3.828   6.007   1.593 -1.4686 -0.0229 -0.0688
  160MOL   H12138599   3.796   6.017   1.425 -0.9946  0.4863  1.7336
  160MOL   O12238600   4.066   5.918   1.581 -0.7476  0.1159  0.3800
  160MOL   C12338601   4.208   5.893   1.567 -0.1356  0.0459 -0.9042
  160MOL   C12438602   4.280   6.000   1.655  0.4657 -0.0602  0.4499
  160MOL   C12538603   4.246   5.752   1.618 -0.0503  1.2070  0.3129
  160MOL   C12638604   4.390   5.715   1.580  0.5342  0.1853  0.2449
  160MOL   O12738605   4.419   5.709   1.463 -0.2522 -0.0175  0.1966
  160MOL   H12838606   4.237   5.901   1.462  0.9153 -0.3117 -0.6502
  160MOL   H12938607   4.388   5.987   1.657  0.5100  0.0560 -0.9873
  160MOL   H13038608   4.247   5.991   1.759  1.4281 -0.7393  0.6952
  160MOL   H13138609   4.246   6.099   1.625  0.5707  0.2961  1.4816
  160MOL   H13238610   4.186   5.679   1.564  0.6210  0.2379  0.8473
  160MOL   H13338611   4.222   5.732   1.723  0.3328  0.2298  0.2179
  160MOL   O13438612   4.475   5.720   1.681  0.9659  0.2613 -0.5695
  160MOL   C13538613   4.613   5.724   1.654  0.2678 -0.1259 -0.1318
  160MOL   C13638614   4.669   5.793   1.784  0.2317  0.0301  0.6294
  160MOL   C13738615   4.670   5.587   1.617  0.0743  0.3617 -0.1322
  160MOL   C13838616   4.687   5.478   1.725  0.2638 -0.4388 -0.2903
  160MOL   O13938617   4.596   5.424   1.784  0.7031  0.3510  0.0091
  160MOL   H14038618   4.629   5.793   1.571 -0.6553 -3.5337 -3.3047
  160MOL   H14138619   4.634   5.739   1.871  3.8705 -2.3370  0.7087
  160MOL   H14238620   4.647   5.900   1.792 -0.9881 -0.2818  1.6574
  160MOL   H14338621   4.778   5.787   1.789  0.3131  0.2502 -0.7014
  160MOL   H14438622   4.773   5.596   1.582  0.5664 -1.8256  0.6710
  160MOL   H14538623   4.606   5.545   1.540  0.6383  1.7612 -1.3871
  160MOL   O14638624   4.818   5.460   1.755  0.3449 -0.0693 -0.5277
  160MOL   C14738625   4.866   5.367   1.859  0.0833 -0.4947  1.4504
  160MOL   C14838626   4.896   5.229   1.781 -0.1951 -0.2364  0.2575
  160MOL   C14938627   4.991   5.429   1.912  0.0222  0.3013 -0.2959
  160MOL   C15038628   4.959   5.521   2.037  0.3782 -0.1607  0.1765
  160MOL   O15138629   4.865   5.595   2.046 -0.5552 -0.1675 -0.5295
  160MOL   H15238630   4.786   5.349   1.931 -1.5796 -0.6175 -0.3844
  160MOL   H15338631   4.966   5.166   1.837 -1.6289  0.0340  2.4317
  160MOL   H15438632   4.935   5.249   1.681 -0.2563 -1.0910  0.0570
  160MOL   H15538633   4.803   5.174   1.775 -0.7311  0.5603  1.0997
  160MOL   H15638634   5.052   5.475   1.834  0.9457  1.0900  0.8712
  160MOL   H15738635   5.065   5.359   1.950 -0.7339 -0.6025 -0.4727
  160MOL   O15838636   5.038   5.496   2.142  0.2152  0.2274  0.0829
  160MOL   C15938637   5.016   5.553   2.270  1.3083  0.3620  0.3438
  160MOL   C16038638   4.950   5.441   2.355 -0.0725 -0.0239  0.0902
  160MOL   C16138639   5.154   5.592   2.313  0.0611  0.1134  0.0369
  160MOL   C16238640   5.161   5.670   2.445  0.4287 -0.4231  0.4532
  160MOL   O16338641   5.171   5.601   2.545  0.4579 -0.1953  0.0131
  160MOL   H16438642   4.973   5.653   2.266 -1.6385 -0.9000 -0.1505
  160MOL   H16538643   4.944   5.460   2.462  1.0863 -0.8637  0.3075
  160MOL   H16638644   5.012   5.352   2.361 -0.4156 -0.1056  2.9923
  160MOL   H16738645   4.849   5.415   2.322 -0.2253 -0.8105  1.1724
  160MOL   H16838646   5.211   5.640   2.233  0.4484  0.4814  0.5289
  160MOL   H16938647   5.198   5.494   2.326 -3.1359 -1.4905 -0.7817
  160MOL   O17038648   5.190   5.802   2.431  0.1546  0.0608 -0.5692
  160MOL   C17138649   5.175   5.892   2.549 -0.9014 -0.0622  0.0108
  160MOL   C17238650   5.308   5.967   2.558 -0.2134 -0.4186  0.0309
  160MOL   C17338651   5.062   5.993   2.534  0.0104  0.3238  0.7961
  160MOL   C17438652   4.930   5.916   2.540  0.1772  0.1304  0.0526
  160MOL   O17538653   4.856   5.903   2.440 -0.7066 -0.3210 -0.1655
  160MOL   H17638654   5.158   5.833   2.639  0.5959  1.4742  1.3167
  160MOL   H17738655   5.388   5.897   2.583  0.5516 -0.4269 -2.2994
  160MOL   H17838656   5.302   6.042   2.636 -4.0797  0.5419 -1.0651
  160MOL   H17938657   5.342   6.021   2.469 -0.2251  1.5342  1.1994
  160MOL   H18038658   5.070   6.049   2.441 -0.1304 -2.5372 -1.0075
  160MOL   H18138659   5.072   6.071   2.609  1.2377  1.8463 -0.8863
  160MOL   O18238660   4.906   5.864   2.662  0.2340  0.0610  0.2936
  160MOL   C18338661   4.785   5.794   2.689  0.2007 -0.3399  0.0667
  160MOL   C18438662   4.811   5.654   2.744  0.2701  0.0194  0.6109
  160MOL   C18538663   4.707   5.877   2.789  0.0251 -0.0755  0.1825
  160MOL   C18638664   4.634   6.001   2.733  0.2319  0.7606  0.5888
  160MOL   O18738665   4.670   6.119   2.760  0.1724 -0.3280  0.0379
  160MOL   H18838666   4.728   5.770   2.599 -1.2834  0.9296  0.6412
  160MOL   H18938667   4.867   5.596   2.671 -1.7477 -0.2368 -0.7655
  160MOL   H19038668   4.720   5.602   2.774  0.6501 -2.3042 -2.0386
  160MOL   H19138669   4.875   5.667   2.832 -0.8869  2.6571  1.0907
  160MOL   H19238670   4.767   5.901   2.877  1.2601  0.3448 -0.7503
  160MOL   H19338671   4.623   5.815   2.821  0.3658  0.0482  1.3098
  160MOL   O19438672   4.524   5.972   2.661  0.4277 -0.1822 -0.5903
  160MOL   C19538673   4.451   6.074   2.603  0.5737 -1.0296 -0.2403
  160MOL   C19638674   4.478   6.062   2.456 -0.3773 -0.0518  0.1823
  160MOL   C19738675   4.301   6.065   2.641 -0.1330  0.9443 -0.0492
  160MOL   C19838676   4.230   5.939   2.591 -0.8525 -0.1817 -0.7957
  160MOL   O19938677   4.143   5.944   2.501  0.0801  0.5854  0.1082
  160MOL   H20038678   4.492   6.172   2.626 -2.1626 -0.2926  1.7013
  160MOL   H20138679   4.430   5.981   2.401 -0.6799 -0.2984  0.8134
  160MOL   H20238680   4.582   6.050   2.426 -1.0057 -4.2495 -0.6523
  160MOL   H20338681   4.455   6.151   2.397  0.7350 -0.2298 -0.5386
  160MOL   H20438682   4.246   6.151   2.602 -1.9735 -0.3309 -0.3232
  160MOL   H20538683   4.292   6.072   2.749  0.2211 -0.2332  0.0570
  160MOL   O20638684   4.266   5.827   2.656  0.4940  0.5559 -0.2350
  160MOL   C20738685   4.237   5.699   2.607  0.3318 -0.5551  0.0864
  160MOL   C20838686   4.366   5.629   2.594 -0.1076  0.6524  0.0972
  160MOL   C20938687   4.136   5.618   2.694 -0.6713 -0.3059  0.2098
  160MOL   C21038688   3.986   5.660   2.679  0.4326 -0.0606  0.1725
  160MOL   O21138689   3.908   5.586   2.623  0.3962  0.3139 -0.3704
  160MOL   H21238690   4.206   5.696   2.503  0.6322  1.3992 -0.0807
  160MOL   H21338691   4.345   5.540   2.534  0.6361  0.2759  0.3891
  160MOL   H21438692   4.417   5.615   2.690 -0.0529 -1.2427 -0.1953
  160MOL   H21538693   4.442   5.681   2.536  1.8816 -1.2058  0.9732
  160MOL   H21638694   4.166   5.631   2.798 -0.5286  1.8358 -0.0746
  160MOL   H21738695   4.145   5.509   2.693  1.3144 -0.1758  0.9352
  160MOL   O21838696   3.953   5.767   2.744 -0.4629 -0.1361 -0.2650
  160MOL   C21938697   3.832   5.835   2.730  0.7713  0.5562  0.1084
  160MOL   C22038698   3.737   5.805   2.853  0.2541 -0.0319  0.3615
  160MOL   C22138699   3.872   5.985   2.713  0.2682  0.2570  0.2271
  160MOL   C22238700   3.759   6.084   2.684  0.7197 -0.1234  0.2403
  160MOL   O22338701   3.723   6.167   2.765 -0.7230 -0.0634 -0.1661
  160MOL   H22438702   3.792   5.796   2.636 -0.6106 -0.3012  1.0341
  160MOL   H22538703   3.737   5.698   2.870  0.5114  0.3286  2.8038
  160MOL   H22638704   3.636   5.844   2.844 -0.9405 -2.6793  1.7277
  160MOL   H22738705   3.787   5.833   2.946 -0.9324  1.2246  0.6420
  160MOL   H22838706   3.951   6.005   2.640  1.7204  0.8175  1.9078
  160MOL   H22938707   3.915   6.023   2.806 -1.6049  1.8367  0.4696
  160MOL   O23038708   3.710   6.068   2.563 -0.0262  0.7089  0.0394
  160MOL   C23138709   3.597   6.134   2.516  0.1830 -0.7296 -0.5143
  160MOL   C23238710   3.644   6.228   2.404 -0.4136 -0.0767 -0.1679
  160MOL   C23338711   3.505   6.026   2.456  0.0177  0.3425  0.5437
  160MOL   C23438712   3.364   6.065   2.417 -0.3500 -0.0731 -0.0032
  160MOL   O23538713   3.317   6.175   2.442  0.0511  0.7453  0.7471
  160MOL   H23638714   3.539   6.189   2.590  1.0892  1.7842 -1.5915
  160MOL   H23738715   3.562   6.256   2.338 -2.3895 -0.2408  2.1249
  160MOL   H23838716   3.715   6.171   2.344 -1.2219 -1.9304  0.5831
  160MOL   H23938717   3.703   6.315   2.434  1.7419 -1.6389  0.2437
  160MOL   H24038718   3.505   5.939   2.522  0.5501 -0.4452 -0.4799
  160MOL   H24138719   3.547   5.986   2.364 -0.3868  0.4996  0.2891
  160MOL   H24238720   3.310   5.979   2.377  1.8202 -0.8271 -1.4487
  161MOL     O138721   7.911   5.972   2.737 -0.0040  0.0266 -0.7351
  161MOL     C238722   0.031   6.073   2.752  0.1645  0.7921  0.4691
  161MOL     C338723   7.977   6.195   2.674  0.8850 -1.2799  0.3084
  161MOL     C438724   0.038   6.104   2.897 -0.8986 -0.3299  0.1435
  161MOL     C538725   0.142   6.206   2.953 -0.1106  0.0538 -0.6338
  161MOL     O638726   0.195   6.177   3.061 -0.0582  0.2171  0.2629
  161MOL     H738727   0.121   6.027   2.711 -1.1065 -0.5004 -0.9317
  161MOL     H838728   7.906   6.261   2.724  0.3436 -2.3483  0.9630
  161MOL     H938729   7.917   6.166   2.588  0.4805  0.6919 -0.1000
  161MOL    H1038730   0.072   6.270   2.649  0.0898 -0.5293  0.1407
  161MOL    H1138731   0.058   6.016   2.958  1.6275 -0.1515 -0.3444
  161MOL    H1238732   7.921   6.145   2.925 -0.2004  0.4999  1.4634
  161MOL    H1338733   7.829   6.016   2.725  0.0031 -0.2304 -1.7908
  161MOL    O1438734   0.149   6.324   2.893 -0.1834  0.1631 -0.3143
  161MOL    C1538735   0.243   6.427   2.944  0.0785 -0.4970  0.5657
  161MOL    C1638736   0.284   6.507   2.817 -0.1587  0.0375  0.2213
  161MOL    C1738737   0.193   6.514   3.065  0.4858  0.1680  0.3947
  161MOL    C1838738   0.060   6.590   3.051  0.3835  0.9138  0.5176
  161MOL    O1938739   7.935   6.533   3.076  0.1205 -0.0847 -0.3074
  161MOL    H2038740   0.339   6.381   2.967 -0.3664 -0.9599  1.5054
  161MOL    H2138741   0.202   6.551   2.760  1.4812  2.3704 -0.4283
  161MOL    H2238742   0.320   6.434   2.744 -0.9776 -0.3239  0.1756
  161MOL    H2338743   0.357   6.587   2.831  0.1392 -0.3508  0.9319
  161MOL    H2438744   0.275   6.576   3.101  1.1267  0.2184 -1.0921
  161MOL    H2538745   0.180   6.443   3.147 -1.0492  1.6979  1.5242
  161MOL    O2638746   0.078   6.719   3.014  0.2730 -0.1224 -0.0520
  161MOL    C2738747   7.951   6.817   3.017 -0.6393 -0.5682  0.2536
  161MOL    C2838748   7.979   6.912   3.138  0.6028 -0.7304 -0.1191
  161MOL    C2938749   7.929   6.879   2.877 -0.1183 -0.1338 -0.5697
  161MOL    C3038750   0.067   6.939   2.807 -0.0347  0.0160  0.7620
  161MOL    O3138751   0.088   7.059   2.805  0.5078  0.0300  0.4489
  161MOL    H3238752   7.863   6.756   3.034  0.0405 -2.0714 -1.4410
  161MOL    H3338753   0.034   6.866   3.230  0.7988  0.6880  0.5204
  161MOL    H3438754   7.895   6.980   3.151  1.3583  0.2442 -0.2144
  161MOL    H3538755   0.084   6.975   3.110 -0.9234  1.3359 -0.2258
  161MOL    H3638756   7.849   6.953   2.866  0.7665  0.7551 -1.0873
  161MOL    H3738757   7.897   6.794   2.817 -0.5868 -0.0517 -0.4377
  161MOL    O3838758   0.150   6.845   2.742  0.2546  0.3466  0.2840
  161MOL    C3938759   0.278   6.890   2.685 -0.4766 -0.0175 -0.1388
  161MOL    C4038760   0.383   6.918   2.796 -0.8293  0.3233 -0.3634
  161MOL    C4138761   0.336   6.781   2.595 -0.0165  0.2378 -0.8779
  161MOL    C4238762   0.255   6.774   2.475 -0.3926  0.9911  0.8140
  161MOL    O4338763   0.273   6.855   2.383  0.0786  0.7335 -0.1195
  161MOL    H4438764   0.266   6.985   2.633 -0.2900  0.6395  0.9870
  161MOL    H4538765   0.331   6.962   2.881 -0.8266  2.1717 -1.3024
  161MOL    H4638766   0.462   6.985   2.763 -0.4569 -0.6032 -1.3886
  161MOL    H4738767   0.419   6.820   2.827  0.0853  0.8980  0.4292
  161MOL    H4838768   0.330   6.684   2.645  0.4542  0.0073 -1.2658
  161MOL    H4938769   0.437   6.803   2.560  0.6178  0.1601  0.8577
  161MOL    O5038770   0.156   6.681   2.470 -0.5229  0.0339 -0.4207
  161MOL    C5138771   0.084   6.648   2.355  0.3313 -0.5231  0.4565
  161MOL    C5238772   0.106   6.503   2.325 -0.2315  0.7163 -0.6897
  161MOL    C5338773   7.916   6.673   2.367  0.9425  0.0924 -0.1177
  161MOL    C5438774   7.876   6.820   2.393 -0.0327  0.6809 -0.1048
  161MOL    O5538775   7.826   6.856   2.500  0.4671 -0.0664  0.1441
  161MOL    H5638776   0.121   6.696   2.265  1.8207  0.6988  1.6961
  161MOL    H5738777   0.061   6.469   2.232  1.0035 -0.9632 -0.6975
  161MOL    H5838778   0.065   6.444   2.407  0.3547 -0.7279 -1.4101
  161MOL    H5938779   0.213   6.483   2.321 -0.6383 -2.0905  1.0341
  161MOL    H6038780   7.869   6.615   2.447 -0.6551  2.8449  1.0363
  161MOL    H6138781   7.868   6.657   2.270  0.7676  4.3166 -0.8332
  161MOL    O6238782   7.914   6.894   2.283 -0.5812 -0.0297 -0.3356
  161MOL    C6338783   7.905   7.035   2.294  0.2789  0.3858  0.2229
  161MOL    C6438784   0.040   7.112   2.367  0.2334  0.1330  0.0998
  161MOL    C6538785   7.878   7.086   2.153 -0.2483  1.0120 -0.2636
  161MOL    C6638786   0.020   7.093   2.056  0.6739  0.1268 -0.2918
  161MOL    O6738787   0.020   7.181   1.973  0.0291  0.2886  0.1701
  161MOL    H6838788   7.811   7.058   2.344 -1.2629 -0.5894 -2.1504
  161MOL    H6938789   0.030   7.219   2.351  1.8467  0.8205  3.3337
  161MOL    H7038790   0.129   7.059   2.331  1.4247  0.6594  2.2068
  161MOL    H7138791   0.044   7.089   2.473  3.6902  1.4178  0.3072
  161MOL    H7238792   7.828   7.183   2.155  0.3346  1.3703 -2.0648
  161MOL    H7338793   7.798   7.024   2.113 -1.2778  1.9108  0.3998
  161MOL    O7438794   0.115   6.995   2.062  0.1685 -0.4172  0.0077
  161MOL    C7538795   0.237   7.005   1.980  0.9069 -0.3718  0.0352
  161MOL    C7638796   0.346   7.056   2.075 -0.3383  0.0983  0.1823
  161MOL    C7738797   0.249   6.863   1.914 -0.2510 -0.1104  0.1413
  161MOL    C7838798   0.262   6.750   2.017  0.0806  0.9531 -0.0071
  161MOL    O7938799   0.172   6.668   2.034  0.5258 -0.3717  0.5030
  161MOL    H8038800   0.231   7.083   1.904 -0.5166 -1.0319 -0.5620
  161MOL    H8138801   0.347   6.996   2.166 -0.5180 -0.6475 -0.3000
  161MOL    H8238802   0.321   7.158   2.105 -0.1795  0.5307 -1.1070
  161MOL    H8338803   0.447   7.055   2.034 -1.3481 -0.6114 -2.4203
  161MOL    H8438804   0.336   6.860   1.848 -0.0407  0.0537  0.4132
  161MOL    H8538805   0.172   6.841   1.840 -0.6737  0.2603  0.4676
  161MOL    O8638806   0.384   6.736   2.054 -0.3372 -0.4829  0.1311
  161MOL    C8738807   0.416   6.641   2.154  0.6337 -0.1783 -0.6955
  161MOL    C8838808   0.447   6.499   2.091  0.2223 -0.7487 -0.1856
  161MOL    C8938809   0.545   6.696   2.225 -0.6111  0.8453  0.1496
  161MOL    C9038810   0.573   6.638   2.369  0.0469  0.7736  0.7898
  161MOL    O9138811   0.636   6.702   2.450 -0.5015  0.2309 -0.5806
  161MOL    H9238812   0.333   6.625   2.223  0.3060  1.6622 -0.6466
  161MOL    H9338813   0.544   6.480   2.044 -0.5402 -0.5043 -1.9016
  161MOL    H9438814   0.365   6.495   2.019  0.4916  0.5303 -0.5706
  161MOL    H9538815   0.429   6.421   2.165 -1.2955 -1.5955 -1.3882
  161MOL    H9638816   0.537   6.804   2.236 -0.8512  0.9372 -0.8647
  161MOL    H9738817   0.629   6.655   2.170 -1.6203  1.0494 -1.5705
  161MOL    O9838818   0.526   6.512   2.386  0.7136 -0.1100 -0.0725
  161MOL    C9938819   0.547   6.437   2.504 -0.7256 -0.8924 -0.0365
  161MOL   C10038820   0.439   6.321   2.492 -0.1381  0.4424 -0.2885
  161MOL   C10138821   0.693   6.373   2.502  0.3843  0.1897  0.6467
  161MOL   C10238822   0.717   6.277   2.621  0.8762 -0.0956 -0.7313
  161MOL   O10338823   0.639   6.250   2.710  0.5649  0.4339 -0.7655
  161MOL   H10438824   0.531   6.500   2.592  0.1002  0.5972 -0.9495
  161MOL   H10538825   0.416   6.276   2.588 -1.1495 -1.1644 -1.2694
  161MOL   H10638826   0.476   6.239   2.430  1.4931 -0.0068  1.2208
  161MOL   H10738827   0.337   6.353   2.474 -0.7355 -1.1552  0.1826
  161MOL   H10838828   0.759   6.459   2.514 -0.8586  1.1161  0.8362
  161MOL   H10938829   0.699   6.316   2.410 -1.1679  1.0964 -0.0335
  161MOL   O11038830   0.838   6.216   2.615 -0.3788 -0.4823 -0.1003
  161MOL   C11138831   0.897   6.146   2.723  0.0728  0.3337  0.1949
  161MOL   C11238832   0.921   6.000   2.672  0.2576 -0.1678 -0.4179
  161MOL   C11338833   1.023   6.226   2.766  0.3376  0.2084  0.3768
  161MOL   C11438834   1.105   6.167   2.883 -0.4009 -0.1536  1.5715
  161MOL   O11538835   1.231   6.155   2.879 -0.3447 -0.5102  0.0138
  161MOL   H11638836   0.824   6.144   2.804  0.2274  1.0331  0.3483
  161MOL   H11738837   0.974   5.993   2.578 -1.5350  1.5902 -1.5953
  161MOL   H11838838   0.830   5.941   2.664  0.6626 -0.6116 -1.8001
  161MOL   H11938839   0.970   5.943   2.751  1.8915  1.7588 -0.0022
  161MOL   H12038840   0.990   6.326   2.794  1.9085  1.2285 -1.2932
  161MOL   H12138841   1.083   6.239   2.677  1.8082  2.2218  1.6107
  161MOL   O12238842   1.033   6.155   2.989 -0.2939  0.0169  0.0409
  161MOL   C12338843   1.083   6.066   3.095  0.5591 -0.0473  0.5627
  161MOL   C12438844   1.170   6.148   3.194 -0.0230  0.8769  0.0671
  161MOL   C12538845   0.964   5.982   3.148 -0.1663  0.5238 -0.3725
  161MOL   C12638846   0.887   5.896   3.049 -0.3667 -0.1263 -0.1719
  161MOL   O12738847   0.931   5.812   2.978 -0.5874 -0.1755  0.4542
  161MOL   H12838848   1.138   5.986   3.046 -0.7682 -1.2133  0.9325
  161MOL   H12938849   1.258   6.183   3.141  1.4780 -1.1655  1.1458
  161MOL   H13038850   1.206   6.074   3.265 -0.0145 -0.7607 -1.5988
  161MOL   H13138851   1.112   6.230   3.235 -1.2113  0.8336 -1.4418
  161MOL   H13238852   0.894   6.054   3.190 -0.6661  1.2391 -2.3718
  161MOL   H13338853   0.993   5.932   3.240  0.2923  1.4624  0.0028
  161MOL   O13438854   0.759   5.924   3.059  0.5816 -0.0020 -0.3372
  161MOL   C13538855   0.661   5.883   2.964  0.4713 -0.3124 -0.3231
  161MOL   C13638856   0.599   5.747   2.996 -0.3306 -0.0814 -0.1580
  161MOL   C13738857   0.567   6.005   2.932 -0.6381  0.2511  0.0526
  161MOL   C13838858   0.481   6.011   2.802 -0.3109  0.0008  0.0603
  161MOL   O13938859   0.373   6.072   2.784 -0.2078 -0.1089 -0.1898
  161MOL   H14038860   0.709   5.871   2.867  0.5082  1.6016 -0.5538
  161MOL   H14138861   0.669   5.663   2.989 -0.7961 -0.4039 -1.0384
  161MOL   H14238862   0.527   5.721   2.919 -0.9221  0.3517  0.2523
  161MOL   H14338863   0.572   5.749   3.102  1.0586 -1.4324  0.2426
  161MOL   H14438864   0.623   6.098   2.939  1.1699 -0.8171  0.1376
  161MOL   H14538865   0.492   5.998   3.010  0.2404  1.2530  0.9974
  161MOL   O14638866   0.539   5.933   2.694 -0.5287 -0.5165 -0.4418
  161MOL   C14738867   0.480   5.942   2.568  0.4202 -0.7787  0.2042
  161MOL   C14838868   0.586   5.924   2.466  0.5870  0.3619 -0.4983
  161MOL   C14938869   0.382   5.827   2.557  0.3059  0.3872  0.2761
  161MOL   C15038870   0.294   5.831   2.433  0.4213  0.6045  0.9321
  161MOL   O15138871   0.279   5.728   2.364 -0.0297  0.1617 -0.4279
  161MOL   H15238872   0.442   6.042   2.543  0.8305 -1.0836 -1.7787
  161MOL   H15338873   0.637   5.830   2.487  0.2902  0.5597  1.1413
  161MOL   H15438874   0.657   6.007   2.462  1.0849 -0.0904 -1.1826
  161MOL   H15538875   0.545   5.940   2.366 -1.5610  1.7851  0.5741
  161MOL   H15638876   0.316   5.835   2.644  1.0844  1.3645  0.7842
  161MOL   H15738877   0.420   5.725   2.561  2.3942  1.2050  2.3659
  161MOL   O15838878   0.236   5.952   2.403 -0.0460 -0.1785  0.6356
  161MOL   C15938879   0.132   5.962   2.301 -0.1578  0.4281 -0.3190
  161MOL   C16038880   7.976   5.915   2.358 -0.4528  0.9287 -0.3879
  161MOL   C16138881   0.119   6.115   2.268  1.0220  0.5845  0.6510
  161MOL   C16238882   0.207   6.168   2.156 -0.5377  0.7489  0.5272
  161MOL   O16338883   0.167   6.233   2.062  0.2643 -0.0803  0.0929
  161MOL   H16438884   0.163   5.901   2.216 -2.6183 -0.3141 -0.7202
  161MOL   H16538885   7.895   5.898   2.287 -0.4995 -0.9432  0.0819
  161MOL   H16638886   7.931   5.987   2.427  0.0734  1.7592 -0.9054
  161MOL   H16738887   0.007   5.816   2.402  0.5397  1.4020  0.4719
  161MOL   H16838888   0.116   6.173   2.360 -0.1850  1.1107  0.2881
  161MOL   H16938889   0.024   6.121   2.216  1.6880  1.7107 -0.4811
  161MOL   O17038890   0.339   6.137   2.178 -0.1524  0.1523  0.0477
  161MOL   C17138891   0.429   6.145   2.060  0.3855 -0.0767 -0.3219
  161MOL   C17238892   0.577   6.167   2.117  0.0526 -0.1052  0.2960
  161MOL   C17338893   0.405   6.023   1.970  0.0326 -0.3654 -0.8152
  161MOL   C17438894   0.487   6.021   1.840  0.0315  0.3837  0.4293
  161MOL   O17538895   0.527   6.126   1.790  0.3108  0.1465 -0.0400
  161MOL   H17638896   0.417   6.236   2.001 -2.4562 -1.7103 -2.4090
  161MOL   H17738897   0.650   6.193   2.040  1.1216  0.5915  1.5227
  161MOL   H17838898   0.612   6.081   2.174 -3.4342 -2.8045 -1.4462
  161MOL   H17938899   0.580   6.241   2.196  2.5084 -0.2599  0.3999
  161MOL   H18038900   0.300   6.026   1.941 -0.4655  1.6427  1.0309
  161MOL   H18138901   0.415   5.929   2.024 -2.1095  0.0736  0.3933
  161MOL   O18238902   0.502   5.895   1.792 -0.5449 -0.3174 -0.1529
  161MOL   C18338903   0.598   5.872   1.695 -0.0868 -0.2326 -0.0516
  161MOL   C18438904   0.646   5.730   1.709  0.0883  0.2574  0.1562
  161MOL   C18538905   0.531   5.908   1.563 -0.6171  0.1143 -0.2142
  161MOL   C18638906   0.628   5.945   1.445  0.1965 -0.4019 -0.3534
  161MOL   O18738907   0.622   5.904   1.333  0.2025 -0.2801  0.2444
  161MOL   H18838908   0.676   5.944   1.720 -1.1191  1.3580 -1.2535
  161MOL   H18938909   0.658   5.704   1.814  0.0568 -0.1212  0.0653
  161MOL   H19038910   0.739   5.716   1.654 -0.4502  1.9719 -1.2566
  161MOL   H19138911   0.571   5.666   1.663  1.4447 -1.0812 -0.2392
  161MOL   H19238912   0.462   5.991   1.581 -0.7241 -0.3775  1.7614
  161MOL   H19338913   0.474   5.826   1.520  0.8670 -0.6431 -0.7938
  161MOL   O19438914   0.713   6.042   1.484  0.2564  0.3992  0.2101
  161MOL   C19538915   0.813   6.099   1.394  0.0684  0.0438 -1.2427
  161MOL   C19638916   0.751   6.199   1.300 -0.5174 -0.1955 -0.2106
  161MOL   C19738917   0.910   6.164   1.501  0.0152  0.6629 -0.8052
  161MOL   C19838918   1.046   6.195   1.447  0.5437  0.0054 -0.0543
  161MOL   O19938919   1.069   6.173   1.330  0.0205  0.3020  0.2532
  161MOL   H20038920   0.856   6.025   1.326 -0.0696 -1.1598 -0.0530
  161MOL   H20138921   0.821   6.259   1.243 -0.6328 -0.8213 -1.0189
  161MOL   H20238922   0.695   6.275   1.356  0.0886  0.5084 -0.5595
  161MOL   H20338923   0.678   6.153   1.233 -0.6018 -1.0797  0.4843
  161MOL   H20438924   0.928   6.080   1.569 -1.7368 -0.2619 -1.4571
  161MOL   H20538925   0.874   6.253   1.554  0.2235  0.1602  0.1966
  161MOL   O20638926   1.130   6.252   1.538 -0.2839 -0.0700  0.4537
  161MOL   C20738927   1.268   6.272   1.507  0.7337  0.4262 -0.2993
  161MOL   C20838928   1.312   6.410   1.573 -0.6797  0.2339 -0.2500
  161MOL   C20938929   1.345   6.143   1.549 -0.4780 -0.6206  0.2604
  161MOL   C21038930   1.497   6.151   1.528 -0.2151  0.3933 -0.3732
  161MOL   O21138931   1.541   6.216   1.432 -0.2357 -0.5309 -0.2275
  161MOL   H21238932   1.265   6.291   1.400  1.0075 -2.0246 -0.7724
  161MOL   H21338933   1.286   6.396   1.678 -1.9164  0.1375 -0.5604
  161MOL   H21438934   1.264   6.499   1.532  0.3090 -0.0524 -2.0628
  161MOL   H21538935   1.418   6.435   1.574 -0.4219 -0.8362  2.4909
  161MOL   H21638936   1.302   6.068   1.483  0.7811 -1.8060  0.7616
  161MOL   H21738937   1.319   6.115   1.651  0.0061 -1.8946  0.0411
  161MOL   O21838938   1.574   6.076   1.618 -0.3420  0.1010 -0.3924
  161MOL   C21938939   1.713   6.069   1.601  0.3800  0.3077 -0.3228
  161MOL   C22038940   1.770   6.104   1.743 -0.1905  0.3002 -0.1740
  161MOL   C22138941   1.747   5.927   1.543  0.3004 -0.6118  0.8688
  161MOL   C22238942   1.889   5.891   1.513  0.4627  0.2653  0.1365
  161MOL   O22338943   1.979   5.970   1.507 -0.2268 -0.0035 -0.2711
  161MOL   H22438944   1.752   6.149   1.540 -2.6504  1.4697 -0.8122
  161MOL   H22538945   1.878   6.093   1.748 -0.3792 -0.5467  3.5672
  161MOL   H22638946   1.725   6.053   1.828 -4.3485  3.6327 -0.1510
  161MOL   H22738947   1.766   6.212   1.760  1.4597  0.9527 -3.4392
  161MOL   H22838948   1.697   5.921   1.446  1.2795 -2.1217  0.4324
  161MOL   H22938949   1.701   5.853   1.608  0.8034 -1.8631 -0.1754
  161MOL   O23038950   1.907   5.770   1.473 -0.7103  0.3243  0.2789
  161MOL   C23138951   2.024   5.687   1.446 -0.1129  0.8806 -0.7648
  161MOL   C23238952   1.955   5.549   1.398 -0.1104 -0.1036  0.0372
  161MOL   C23338953   2.121   5.739   1.344  0.7001  0.0511 -0.1239
  161MOL   C23438954   2.243   5.811   1.409 -0.2287  0.2492  0.5153
  161MOL   O23538955   2.331   5.745   1.455 -0.2861 -0.0351 -0.5854
  161MOL   H23638956   2.078   5.660   1.537 -1.1874 -0.5036 -0.5261
  161MOL   H23738957   1.894   5.572   1.311  1.5228  1.5925 -0.6908
  161MOL   H23838958   1.902   5.501   1.480  0.4814 -0.3155  0.2971
  161MOL   H23938959   2.033   5.479   1.369 -1.9510 -1.8210 -0.8689
  161MOL   H24038960   2.067   5.809   1.279  1.8770 -0.2484 -1.4454
  161MOL   H24138961   2.159   5.650   1.293 -1.1764 -2.1200  2.0831
  161MOL   H24238962   2.242   5.920   1.415  3.6503  0.3990 -0.5853
  162MOL     O138963   4.603   5.717   5.385 -0.1461 -0.4949  0.1106
  162MOL     C238964   4.717   5.793   5.408  0.5760  0.8073  0.5960
  162MOL     C338965   4.737   5.795   5.569  0.0390  0.2489  0.1881
  162MOL     C438966   4.826   5.724   5.333 -0.0984  0.5332 -0.1065
  162MOL     C538967   4.957   5.796   5.320  0.4281  0.9474  0.3771
  162MOL     O638968   4.983   5.851   5.218 -0.0400 -0.2838  0.2229
  162MOL     H738969   4.699   5.895   5.374  2.2380  0.6037 -0.9471
  162MOL     H838970   4.830   5.838   5.604  0.3777 -1.7309  1.7667
  162MOL     H938971   4.749   5.694   5.607 -0.0047  0.0721 -0.2658
  162MOL    H1038972   4.646   5.824   5.622 -0.6305  0.3063 -0.9622
  162MOL    H1138973   4.799   5.710   5.229  0.5299 -0.6169 -0.1247
  162MOL    H1238974   4.837   5.625   5.378 -2.6167 -0.3161 -1.3108
  162MOL    H1338975   4.536   5.753   5.442  0.7787  0.1470  0.8268
  162MOL    O1438976   5.030   5.795   5.435 -0.0170  0.0323 -0.5069
  162MOL    C1538977   5.147   5.868   5.465  0.6270  0.1256 -0.3315
  162MOL    C1638978   5.095   5.993   5.538  0.4955  0.5850  0.2456
  162MOL    C1738979   5.242   5.780   5.550  0.1889  0.5193 -0.0630
  162MOL    C1838980   5.375   5.843   5.577  0.2226  0.4735  0.0082
  162MOL    O1938981   5.403   5.949   5.526  0.5885 -0.1538 -0.4047
  162MOL    H2038982   5.192   5.890   5.369  2.3264 -2.5871 -0.2114
  162MOL    H2138983   5.039   5.967   5.629 -0.9369  2.0985 -0.1663
  162MOL    H2238984   5.042   6.058   5.468 -0.0658 -2.4415 -2.2408
  162MOL    H2338985   5.175   6.061   5.565  0.9565  0.7145 -1.4288
  162MOL    H2438986   5.265   5.682   5.508  0.7655  1.4313 -1.9274
  162MOL    H2538987   5.205   5.750   5.648 -0.0419  1.0260  0.0039
  162MOL    O2638988   5.450   5.772   5.667  0.4073 -0.2070 -0.3330
  162MOL    C2738989   5.588   5.790   5.703 -0.4623 -0.7422 -0.9930
  162MOL    C2838990   5.597   5.868   5.830  0.4378  0.1823  0.3176
  162MOL    C2938991   5.677   5.666   5.688 -0.5900 -0.3581 -0.5258
  162MOL    C3038992   5.661   5.578   5.811  0.0213  0.1583  0.3854
  162MOL    O3138993   5.733   5.584   5.912 -0.0427 -0.2043 -0.3848
  162MOL    H3238994   5.622   5.853   5.620  1.9165  1.4021  1.5041
  162MOL    H3338995   5.698   5.875   5.870  1.0782  0.3739 -1.2801
  162MOL    H3438996   5.538   5.826   5.911  1.2494  2.0779  1.9430
  162MOL    H3538997   5.560   5.969   5.813 -2.4550 -1.3487 -3.0660
  162MOL    H3638998   5.782   5.694   5.675  0.0957 -1.4421  2.2418
  162MOL    H3738999   5.641   5.604   5.606  0.7772 -1.3018 -0.4372
  162MOL    O3839000   5.565   5.495   5.804  0.3734 -0.4337  0.2408
  162MOL    C3939001   5.498   5.434   5.922  0.7898  0.0143 -0.1040
  162MOL    C4039002   5.407   5.547   5.976  0.2622 -0.4713  0.2416
  162MOL    C4139003   5.427   5.309   5.875 -0.0954 -0.2557 -0.5492
  162MOL    C4239004   5.319   5.241   5.968 -0.0853  0.3367 -0.1637
  162MOL    O4339005   5.208   5.300   5.982  0.0645  0.1289  0.0585
  162MOL    H4439006   5.577   5.402   5.990  0.9027 -0.5551 -0.5070
  162MOL    H4539007   5.342   5.585   5.898  1.0374  0.0562 -0.1574
  162MOL    H4639008   5.456   5.637   6.014 -0.6703  0.8165 -1.5662
  162MOL    H4739009   5.348   5.516   6.062  1.5085 -1.7543  0.6687
  162MOL    H4839010   5.495   5.227   5.852 -0.4041 -0.7518  0.2994
  162MOL    H4939011   5.385   5.327   5.776  1.2211 -0.5960 -1.1913
  162MOL    O5039012   5.371   5.122   6.025  0.2321  0.0687 -0.0341
  162MOL    C5139013   5.289   5.037   6.106 -0.1582  0.4112  0.6072
  162MOL    C5239014   5.375   4.908   6.108 -0.1897 -0.9168 -0.2376
  162MOL    C5339015   5.265   5.106   6.243 -0.4616  0.1283 -0.6127
  162MOL    C5439016   5.154   5.026   6.314 -0.3673  0.4198 -0.1303
  162MOL    O5539017   5.048   5.077   6.340 -0.2239 -0.1649  0.0167
  162MOL    H5639018   5.194   5.002   6.066  0.0041  0.8053 -0.1338
  162MOL    H5739019   5.387   4.864   6.009 -3.8792 -2.5490 -0.0405
  162MOL    H5839020   5.319   4.835   6.167 -1.1635 -0.8021 -1.0004
  162MOL    H5939021   5.474   4.933   6.144 -1.7567  3.2914  1.4337
  162MOL    H6039022   5.250   5.214   6.241 -0.9667  0.1787  2.7666
  162MOL    H6139023   5.356   5.089   6.301 -0.4492  3.2530  0.3463
  162MOL    O6239024   5.185   4.900   6.347  1.1466 -0.0258  0.2746
  162MOL    C6339025   5.087   4.813   6.396  0.0102  0.5953  0.9308
  162MOL    C6439026   5.032   4.732   6.275  0.6565  0.1708  0.1162
  162MOL    C6539027   5.160   4.728   6.506 -0.4135  0.5245  0.3761
  162MOL    C6639028   5.067   4.624   6.565  0.4012  0.0591 -0.3305
  162MOL    O6739029   5.101   4.508   6.571 -0.2917 -0.2848 -0.5340
  162MOL    H6839030   5.002   4.865   6.441 -0.5016  1.6243 -1.1816
  162MOL    H6939031   5.111   4.678   6.224 -0.4117 -1.2260 -0.0832
  162MOL    H7039032   4.986   4.784   6.191  0.9172  0.6322  0.2546
  162MOL    H7139033   4.975   4.644   6.304 -0.9633  0.4837 -1.9832
  162MOL    H7239034   5.191   4.788   6.592  0.9968 -0.2241  0.4101
  162MOL    H7339035   5.252   4.689   6.462  0.1093  0.9299  1.0885
  162MOL    O7439036   4.945   4.674   6.611  0.0867 -0.3991 -0.1140
  162MOL    C7539037   4.851   4.598   6.680 -0.4354 -1.0253  1.2638
  162MOL    C7639038   4.808   4.692   6.798 -0.2263  0.4912  0.1507
  162MOL    C7739039   4.742   4.557   6.575 -0.9632 -1.5852 -0.5411
  162MOL    C7839040   4.645   4.660   6.528  0.0066  0.0104 -0.2300
  162MOL    O7939041   4.533   4.668   6.581 -0.4316  0.1064  0.0400
  162MOL    H8039042   4.898   4.508   6.719 -0.7835 -2.0662 -0.6380
  162MOL    H8139043   4.754   4.627   6.867 -0.5162 -3.1677 -3.3844
  162MOL    H8239044   4.741   4.776   6.778 -1.4355 -0.0428  1.8421
  162MOL    H8339045   4.900   4.726   6.845 -0.8611  1.4233  0.7439
  162MOL    H8439046   4.688   4.471   6.616 -0.8606 -1.6805 -0.6049
  162MOL    H8539047   4.770   4.513   6.479  0.2302 -1.0075 -0.4587
  162MOL    O8639048   4.701   4.740   6.430 -0.4668  0.7990 -0.4063
  162MOL    C8739049   4.622   4.840   6.367  0.0475  0.7243 -0.0612
  162MOL    C8839050   4.702   4.964   6.304 -1.0553  0.1785 -0.1496
  162MOL    C8939051   4.512   4.788   6.281 -0.6567 -0.0514  0.5403
  162MOL    C9039052   4.535   4.737   6.135  0.2760 -0.0339  0.3785
  162MOL    O9139053   4.638   4.690   6.092 -0.7957  0.1173 -0.7105
  162MOL    H9239054   4.580   4.890   6.454 -0.7366  0.1137 -0.0766
  162MOL    H9339055   4.785   4.936   6.239 -0.1719  3.3560 -0.4539
  162MOL    H9439056   4.752   5.023   6.381  2.0810 -1.1332 -1.0986
  162MOL    H9539057   4.630   5.029   6.255 -1.1421 -0.3043 -0.6720
  162MOL    H9639058   4.441   4.871   6.276 -0.2607  0.3407  1.3703
  162MOL    H9739059   4.454   4.712   6.334 -0.8046  0.8502  1.6956
  162MOL    O9839060   4.424   4.755   6.058 -0.1065 -0.0081 -0.5347
  162MOL    C9939061   4.425   4.706   5.923 -0.4905 -0.3388 -0.0707
  162MOL   C10039062   4.419   4.548   5.917  0.3833 -0.9950  0.3675
  162MOL   C10139063   4.334   4.781   5.826 -0.0465 -0.2310 -0.4123
  162MOL   C10239064   4.194   4.776   5.854  0.1413  0.0767 -0.5769
  162MOL   O10339065   4.126   4.877   5.859 -0.0650 -0.0331  0.5605
  162MOL   H10439066   4.525   4.739   5.896 -0.6321  1.6959  1.7439
  162MOL   H10539067   4.511   4.503   5.954  1.4784 -0.5028 -1.6809
  162MOL   H10639068   4.403   4.530   5.811 -2.6194  0.0187  0.5954
  162MOL   H10739069   4.337   4.506   5.975 -0.1583  0.9680  1.0627
  162MOL   H10839070   4.338   4.764   5.718 -0.8569  1.4241 -0.7299
  162MOL   H10939071   4.349   4.886   5.851  1.4194 -0.5585  0.1424
  162MOL   O11039072   4.146   4.649   5.867  0.7499  0.0658  0.0276
  162MOL   C11139073   4.011   4.621   5.900  0.0318  0.1493 -0.4676
  162MOL   C11239074   3.923   4.633   5.778  0.4013 -0.2308 -0.1030
  162MOL   C11339075   4.014   4.479   5.961  0.3603 -0.4269  0.0770
  162MOL   C11439076   3.872   4.416   5.990 -0.8665 -0.1584 -0.2113
  162MOL   O11539077   3.810   4.439   6.093 -0.0345 -0.1546 -0.1994
  162MOL   H11639078   3.981   4.694   5.975  0.0245  2.2239 -2.4438
  162MOL   H11739079   3.934   4.728   5.727 -0.2712 -0.0320  0.1261
  162MOL   H11839080   3.818   4.613   5.798  0.2311  0.2657 -0.5156
  162MOL   H11939081   3.966   4.562   5.707 -0.8344  0.1357 -1.2264
  162MOL   H12039082   4.072   4.479   6.053 -0.0342  3.5061  0.4422
  162MOL   H12139083   4.077   4.415   5.901  0.2265  1.9988 -2.7982
  162MOL   O12239084   3.832   4.326   5.894  0.4082 -0.1451  0.3384
  162MOL   C12339085   3.692   4.281   5.882 -0.4998 -0.2639  0.0737
  162MOL   C12439086   3.641   4.263   5.740 -0.0568 -0.5280 -0.0155
  162MOL   C12539087   3.683   4.139   5.943 -0.0490 -0.2970  0.0979
  162MOL   C12639088   3.668   4.146   6.101  0.1098 -0.6393  0.3643
  162MOL   O12739089   3.580   4.209   6.156 -0.6017  0.3338 -0.0552
  162MOL   H12839090   3.618   4.351   5.922 -2.5641 -1.5982 -1.3060
  162MOL   H12939091   3.704   4.208   5.670 -0.3056 -0.6527 -0.1417
  162MOL   H13039092   3.654   4.365   5.707  1.2801 -0.6026  0.2588
  162MOL   H13139093   3.535   4.243   5.721 -0.2601  0.5179 -0.0134
  162MOL   H13239094   3.771   4.076   5.927  0.6603  0.8372 -0.5660
  162MOL   H13339095   3.592   4.090   5.911  0.5807 -1.3336 -0.1244
  162MOL   O13439096   3.771   4.083   6.165 -0.1324 -0.4610  0.0196
  162MOL   C13539097   3.789   4.083   6.303  0.1217  0.4333  0.1150
  162MOL   C13639098   3.851   3.955   6.337 -0.4231  0.7087  0.6564
  162MOL   C13739099   3.869   4.204   6.349 -0.1176  0.0031  0.3226
  162MOL   C13839100   3.888   4.224   6.497 -0.5291  0.0987  0.3724
  162MOL   O13939101   4.003   4.211   6.542  0.0945  0.5395 -0.0772
  162MOL   H14039102   3.691   4.095   6.350 -1.1248 -0.1311 -2.2772
  162MOL   H14139103   3.872   3.942   6.443  0.6714 -1.3201  0.2202
  162MOL   H14239104   3.945   3.946   6.282 -0.1749  0.7840  1.0687
  162MOL   H14339105   3.795   3.868   6.303 -0.7019  1.0553  0.2273
  162MOL   H14439106   3.823   4.294   6.309  0.1698  0.9216  1.9934
  162MOL   H14539107   3.967   4.194   6.302 -0.7523  0.4166 -1.1096
  162MOL   O14639108   3.776   4.256   6.560 -0.4329 -0.5736 -1.4320
  162MOL   C14739109   3.773   4.284   6.706 -0.0767  1.5985 -0.5700
  162MOL   C14839110   3.720   4.425   6.728 -0.0566 -0.3517 -0.1507
  162MOL   C14939111   3.690   4.170   6.779  0.4391  0.1448 -0.3199
  162MOL   C15039112   3.668   4.176   6.931  1.4513  0.2210  0.1714
  162MOL   O15139113   3.714   4.083   6.994  0.4833 -0.3420 -0.1230
  162MOL   H15239114   3.876   4.270   6.737 -0.4397 -1.8142 -0.7124
  162MOL   H15339115   3.774   4.482   6.804  1.3270 -1.1368 -0.5365
  162MOL   H15439116   3.617   4.426   6.764 -0.0867  0.5816 -0.2386
  162MOL   H15539117   3.728   4.472   6.630 -1.5769 -0.3707 -0.3019
  162MOL   H15639118   3.731   4.070   6.764  0.0289 -0.6896  3.5792
  162MOL   H15739119   3.591   4.155   6.735  1.4552 -4.2714 -1.3671
  162MOL   O15839120   3.621   4.292   6.983 -0.2234  0.2906 -0.4126
  162MOL   C15939121   3.633   4.329   7.122  0.8842  0.7848 -0.9432
  162MOL   C16039122   3.638   4.482   7.141 -0.0443 -0.3345  0.4887
  162MOL   C16139123   3.508   4.265   7.198 -0.1359 -0.2087  0.0420
  162MOL   C16239124   3.518   4.117   7.226  0.1411  0.9263  0.0577
  162MOL   O16339125   3.601   4.072   7.309 -0.7269 -0.4710  0.3502
  162MOL   H16439126   3.728   4.296   7.165 -0.3423  1.0323  2.0706
  162MOL   H16539127   3.650   4.519   7.243 -2.4443  1.1000  0.2787
  162MOL   H16639128   3.544   4.528   7.111 -0.3921  0.0218  2.0553
  162MOL   H16739129   3.722   4.527   7.088  1.0455 -0.2734  2.2028
  162MOL   H16839130   3.423   4.285   7.132 -0.7731 -1.6297  0.4066
  162MOL   H16939131   3.486   4.310   7.295 -0.4256 -1.8151  0.7301
  162MOL   O17039132   3.413   4.052   7.168 -0.5854  0.6318 -0.3228
  162MOL   C17139133   3.403   3.911   7.188  0.0143 -0.2090  0.1132
  162MOL   C17239134   3.257   3.880   7.164 -0.2625  0.2287 -0.7674
  162MOL   C17339135   3.499   3.832   7.087 -0.5178 -0.4873  0.2648
  162MOL   C17439136   3.496   3.687   7.110 -0.2013  0.2221  0.3036
  162MOL   O17539137   3.581   3.624   7.176  0.1674 -0.3534  0.2854
  162MOL   H17639138   3.433   3.885   7.289 -1.1456  0.9301  0.7710
  162MOL   H17739139   3.245   3.774   7.189 -0.3706  0.4717  0.2572
  162MOL   H17839140   3.223   3.895   7.062  0.2084 -0.0484 -0.9649
  162MOL   H17939141   3.183   3.926   7.229 -0.0925 -0.4397 -0.0897
  162MOL   H18039142   3.598   3.871   7.109 -0.6282  0.9738 -1.6504
  162MOL   H18139143   3.474   3.859   6.984  0.0290  1.2661  0.5644
  162MOL   O18239144   3.399   3.630   7.039  0.1529  0.8095  0.7689
  162MOL   C18339145   3.378   3.486   7.044  0.0899  0.0148 -0.4432
  162MOL   C18439146   3.230   3.462   7.066 -0.5115  0.1515 -0.0585
  162MOL   C18539147   3.443   3.429   6.912 -0.5058  0.2673 -0.0521
  162MOL   C18639148   3.380   3.469   6.784  0.1981 -0.1606  0.6158
  162MOL   O18739149   3.437   3.560   6.712 -0.2171 -1.2409  0.0023
  162MOL   H18839150   3.422   3.441   7.132 -0.0132 -0.9349 -0.8778
  162MOL   H18939151   3.174   3.509   7.147 -0.1610  0.0999  0.2169
  162MOL   H19039152   3.208   3.356   7.069  0.3819 -0.0222  0.7651
  162MOL   H19139153   3.183   3.513   6.982 -0.0486  0.4672 -0.1304
  162MOL   H19239154   3.435   3.321   6.925 -1.7452  0.1168 -1.8914
  162MOL   H19339155   3.551   3.446   6.913 -0.3371 -0.7613  0.2250
  162MOL   O19439156   3.266   3.404   6.753 -0.3921  0.5720 -0.1154
  162MOL   C19539157   3.196   3.433   6.625 -0.3542  0.5227  1.1031
  162MOL   C19639158   3.258   3.342   6.524 -0.5281  0.3180 -0.1117
  162MOL   C19739159   3.049   3.385   6.658 -0.2158 -0.3496 -0.2406
  162MOL   C19839160   2.938   3.411   6.552 -0.0015  1.0231  0.2331
  162MOL   O19939161   2.835   3.468   6.592 -0.4850 -0.5775  0.3686
  162MOL   H20039162   3.200   3.537   6.591  4.1584 -0.4032 -1.6295
  162MOL   H20139163   3.211   3.335   6.426 -0.3020  0.0059 -0.1997
  162MOL   H20239164   3.257   3.238   6.556 -1.8639 -0.3423 -2.2333
  162MOL   H20339165   3.360   3.371   6.500  0.1339  0.5523  2.7054
  162MOL   H20439166   3.011   3.424   6.752  1.6035  0.4880  0.1560
  162MOL   H20539167   3.045   3.277   6.677 -2.4645 -0.5365 -1.6055
  162MOL   O20639168   2.947   3.349   6.425  0.3030 -0.4891  0.2206
  162MOL   C20739169   2.837   3.349   6.335  0.2092 -0.3552  0.3224
  162MOL   C20839170   2.845   3.452   6.216 -0.6501  0.5240 -0.2312
  162MOL   C20939171   2.827   3.200   6.291  0.0192  0.6214 -0.0088
  162MOL   C21039172   2.698   3.166   6.224  0.8124  0.1706 -0.2786
  162MOL   O21139173   2.674   3.184   6.109  0.1393 -0.7707 -0.0528
  162MOL   H21239174   2.746   3.371   6.392  1.2537  1.6130  1.2599
  162MOL   H21339175   2.940   3.436   6.165  0.9102 -0.1991  2.7525
  162MOL   H21439176   2.851   3.554   6.253 -1.6382 -0.1925  2.0078
  162MOL   H21539177   2.764   3.440   6.145 -0.6021 -0.3124 -0.1543
  162MOL   H21639178   2.842   3.134   6.377 -1.2745 -0.1659 -0.3727
  162MOL   H21739179   2.905   3.186   6.216  1.2325 -1.0164  1.4958
  162MOL   O21839180   2.613   3.102   6.317 -0.0081  0.1332 -0.1613
  162MOL   C21939181   2.505   3.032   6.253 -0.0186 -0.0544  0.0844
  162MOL   C22039182   2.548   2.886   6.221 -0.4308 -0.1009 -0.1296
  162MOL   C22139183   2.392   3.044   6.357  0.9852 -0.5024  0.7989
  162MOL   C22239184   2.257   3.081   6.283  0.2830 -0.0636 -0.2116
  162MOL   O22339185   2.233   3.033   6.170  0.3146  0.2380  0.7546
  162MOL   H22439186   2.480   3.082   6.159  0.6176 -0.2940 -0.2159
  162MOL   H22539187   2.646   2.876   6.174  0.3891  0.4037  1.4222
  162MOL   H22639188   2.484   2.839   6.147 -2.5067  0.2331  1.4017
  162MOL   H22739189   2.544   2.819   6.307 -0.4818 -0.0742 -0.1113
  162MOL   H22839190   2.405   3.131   6.421  1.5494  0.8429 -1.1209
  162MOL   H22939191   2.386   2.954   6.419  0.1231  0.0108  1.4778
  162MOL   O23039192   2.174   3.150   6.362  0.2738  0.3623  0.4449
  162MOL   C23139193   2.047   3.181   6.312  0.6842 -0.5803 -0.0721
  162MOL   C23239194   1.958   3.059   6.333 -0.0028 -0.2422 -0.1393
  162MOL   C23339195   2.005   3.312   6.385 -0.6630 -0.7960  0.3006
  162MOL   C23439196   1.887   3.371   6.307  0.0006  0.1116 -1.0260
  162MOL   O23539197   1.895   3.431   6.201  0.2592 -0.4970  0.2704
  162MOL   H23639198   2.046   3.195   6.204  0.3035 -1.5651 -0.1947
  162MOL   H23739199   1.937   3.026   6.435 -0.0275 -0.5667 -0.2475
  162MOL   H23839200   2.012   2.981   6.280  2.0956  2.0711 -1.4610
  162MOL   H23939201   1.861   3.057   6.284 -0.3958 -2.3383  0.6453
  162MOL   H24039202   2.079   3.392   6.380 -1.5247 -0.0257 -0.3277
  162MOL   H24139203   1.967   3.287   6.484 -0.3421 -1.0994  0.3463
  162MOL   H24239204   1.794   3.348   6.358  1.5188  0.3854  1.9342
  163MOL     O139205   7.795   2.997   1.021  0.2153 -0.3553  0.1779
  163MOL     C239206   7.908   3.051   0.961  0.4462  0.4341 -0.1336
  163MOL     C339207   0.034   2.941   0.981 -0.6189 -0.3209  0.0446
  163MOL     C439208   7.895   3.094   0.814 -0.0960  0.5713 -0.1591
  163MOL     C539209   0.039   3.177   0.761 -0.3980 -0.8844 -0.0528
  163MOL     O639210   0.138   3.119   0.710  0.0845  0.3580  0.1322
  163MOL     H739211   7.936   3.139   1.018 -0.0745 -1.0814  2.5631
  163MOL     H839212   0.006   2.842   0.946 -0.9844 -0.0745 -0.3757
  163MOL     H939213   0.057   2.933   1.087  0.0353  3.2693  0.2584
  163MOL    H1039214   0.128   2.962   0.931 -1.0859 -0.0147 -0.7129
  163MOL    H1139215   7.809   3.159   0.801 -1.6423 -1.2618  0.5157
  163MOL    H1239216   7.880   3.005   0.753  0.7576 -0.5675  1.2412
  163MOL    H1339217   7.789   3.036   1.107  0.7959  1.2768 -0.5112
  163MOL    O1439218   0.026   3.314   0.790 -0.1086  0.2809 -0.2091
  163MOL    C1539219   0.136   3.397   0.774 -0.4186 -0.1383 -0.1840
  163MOL    C1639220   0.090   3.540   0.749 -0.6661  0.4207 -0.2165
  163MOL    C1739221   0.221   3.376   0.898  0.2149 -0.7039  0.2058
  163MOL    C1839222   0.361   3.451   0.892  0.1884 -0.2505  0.9924
  163MOL    O1939223   0.436   3.450   0.796 -0.5254  0.4740  0.0038
  163MOL    H2039224   0.199   3.368   0.690 -1.1196  3.1576 -1.9324
  163MOL    H2139225   0.166   3.600   0.700  0.0809  0.8328  1.3948
  163MOL    H2239226   0.064   3.596   0.839 -0.8588 -1.0639  0.6864
  163MOL    H2339227   0.014   3.538   0.671 -0.8550 -0.4694 -0.0187
  163MOL    H2439228   0.236   3.270   0.920  1.5014 -0.4329  0.6510
  163MOL    H2539229   0.168   3.418   0.984  0.3409 -0.6501  0.2562
  163MOL    O2639230   0.388   3.511   1.007 -0.9362  0.1794 -0.3339
  163MOL    C2739231   0.505   3.603   1.014 -0.6634  0.1461  0.1632
  163MOL    C2839232   0.449   3.748   1.028  0.2305 -0.3618 -0.0793
  163MOL    C2939233   0.592   3.548   1.130 -0.4683 -0.3559  0.1954
  163MOL    C3039234   0.729   3.628   1.132  0.5843  0.1476  0.1949
  163MOL    O3139235   0.762   3.708   1.043 -0.1717  0.5502  0.0125
  163MOL    H3239236   0.567   3.602   0.924  1.4868 -3.0271  1.5775
  163MOL    H3339237   0.408   3.777   0.932  0.6964  0.5445 -0.0019
  163MOL    H3439238   0.509   3.828   1.069 -0.3640  0.3621 -0.6163
  163MOL    H3539239   0.372   3.745   1.106  0.4382 -0.0135  0.1368
  163MOL    H3639240   0.612   3.442   1.118 -2.4921 -0.5649 -1.8004
  163MOL    H3739241   0.537   3.567   1.222 -2.0535  0.8026 -0.9488
  163MOL    O3839242   0.817   3.588   1.229  0.1339  0.2085 -0.4123
  163MOL    C3939243   0.957   3.615   1.215 -0.1661  1.1291 -0.7967
  163MOL    C4039244   0.999   3.752   1.279 -0.1483  0.7631 -0.0856
  163MOL    C4139245   1.041   3.492   1.268  0.2431 -0.9140 -0.2573
  163MOL    C4239246   1.148   3.451   1.165  0.3015 -0.6526 -0.1484
  163MOL    O4339247   1.265   3.492   1.170  0.6251  0.7230 -0.0086
  163MOL    H4439248   0.977   3.619   1.108  1.3175  0.2417 -0.5672
  163MOL    H4539249   1.102   3.776   1.255 -0.0002 -0.6912 -0.9499
  163MOL    H4639250   0.974   3.752   1.385 -1.1308  1.3264 -0.3131
  163MOL    H4739251   0.930   3.827   1.239  0.5027  0.1030 -2.4843
  163MOL    H4839252   0.971   3.409   1.272 -1.2867  0.2763 -1.6104
  163MOL    H4939253   1.082   3.514   1.366 -0.4799 -1.2383  0.1185
  163MOL    O5039254   1.111   3.359   1.071 -0.0806  0.1347 -0.2085
  163MOL    C5139255   1.211   3.280   0.994  0.8616  0.5656 -0.1642
  163MOL    C5239256   1.151   3.152   0.937  0.1641  0.0427  0.0889
  163MOL    C5339257   1.274   3.370   0.883 -0.9012 -0.2807  0.5917
  163MOL    C5439258   1.424   3.362   0.866  0.7989 -0.2200  0.0817
  163MOL    O5539259   1.493   3.462   0.854  0.9183 -0.4435 -0.2606
  163MOL    H5639260   1.288   3.237   1.058 -0.1509  0.3712  0.9420
  163MOL    H5739261   1.059   3.190   0.893  0.0214  2.3126  2.2252
  163MOL    H5839262   1.123   3.069   1.002  1.8846 -2.8971 -2.8079
  163MOL    H5939263   1.221   3.101   0.872 -0.3058 -1.1225  0.4853
  163MOL    H6039264   1.267   3.474   0.916  1.2408 -0.0955  0.5721
  163MOL    H6139265   1.225   3.376   0.786  0.9193 -2.0096 -0.4882
  163MOL    O6239266   1.467   3.239   0.856  0.3149  0.3289  0.2539
  163MOL    C6339267   1.604   3.209   0.831 -0.1119 -0.2910 -0.2090
  163MOL    C6439268   1.678   3.206   0.965  0.9306  0.1699  0.1140
  163MOL    C6539269   1.602   3.083   0.744  0.0533 -0.1780 -0.1439
  163MOL    C6639270   1.736   3.025   0.700  0.0516 -0.1718  0.9777
  163MOL    O6739271   1.783   3.030   0.588  0.1882 -0.4878  0.1813
  163MOL    H6839272   1.654   3.294   0.784 -1.1192  1.5552  1.9920
  163MOL    H6939273   1.647   3.283   1.035 -1.4505 -0.1562 -0.5384
  163MOL    H7039274   1.785   3.213   0.945  1.1149  1.8169  1.5984
  163MOL    H7139275   1.658   3.112   1.018  1.1937 -0.5222 -0.9874
  163MOL    H7239276   1.535   3.098   0.660 -2.3713  0.3154  1.8088
  163MOL    H7339277   1.562   3.010   0.815  0.9703 -1.6768 -1.1150
  163MOL    O7439278   1.806   2.976   0.804 -0.3634  0.4251  0.2724
  163MOL    C7539279   1.925   2.893   0.782 -0.1483  0.3277  0.1649
  163MOL    C7639280   2.052   2.979   0.782 -0.0880  0.1595  0.4435
  163MOL    C7739281   1.940   2.782   0.895  0.2546  0.5794  0.8730
  163MOL    C7839282   1.861   2.663   0.858  0.4458 -1.0357 -0.5271
  163MOL    O7939283   1.915   2.572   0.797 -0.6467 -0.3112 -0.2690
  163MOL    H8039284   1.929   2.848   0.683  4.1679 -3.0304  1.7043
  163MOL    H8139285   2.138   2.916   0.757  1.6425  3.4877 -2.4835
  163MOL    H8239286   2.057   3.023   0.881  0.2506  0.5271  0.2633
  163MOL    H8339287   2.031   3.066   0.721 -0.2130 -0.0081  0.2456
  163MOL    H8439288   1.902   2.809   0.994 -0.2708  2.5418  0.1588
  163MOL    H8539289   2.040   2.740   0.906 -0.2390 -1.3724 -1.6782
  163MOL    O8639290   1.729   2.656   0.906  0.5634 -0.6171 -0.4653
  163MOL    C8739291   1.655   2.539   0.869 -0.3098 -0.0410  0.0160
  163MOL    C8839292   1.550   2.516   0.974 -0.1314 -0.0083  0.2303
  163MOL    C8939293   1.602   2.555   0.724  0.2088 -0.5733  0.2458
  163MOL    C9039294   1.509   2.441   0.675 -0.0890 -0.1522  0.3826
  163MOL    O9139295   1.406   2.405   0.732 -0.1312  0.6044 -0.0535
  163MOL    H9239296   1.720   2.452   0.882 -1.5328 -1.0161 -0.2951
  163MOL    H9339297   1.483   2.600   0.960 -0.0543  0.0208  0.0300
  163MOL    H9439298   1.574   2.524   1.080  1.4791 -3.0436  0.1531
  163MOL    H9539299   1.498   2.422   0.956  0.0045  0.2935 -1.8473
  163MOL    H9639300   1.687   2.555   0.656  0.3907  0.5195  0.4713
  163MOL    H9739301   1.551   2.651   0.713  1.3369 -0.0362 -0.4051
  163MOL    O9839302   1.548   2.397   0.561  0.0052  0.5056 -0.3763
  163MOL    C9939303   1.489   2.294   0.482  0.4459 -0.5211 -0.4324
  163MOL   C10039304   1.346   2.323   0.432 -0.3282  0.0090  0.4386
  163MOL   C10139305   1.586   2.252   0.367 -0.3054 -0.1395  0.1171
  163MOL   C10239306   1.578   2.102   0.325  0.0111 -0.0142  0.0734
  163MOL   O10339307   1.499   2.021   0.380 -0.1712 -0.0406 -0.0101
  163MOL   H10439308   1.470   2.205   0.542 -0.8133  1.7076  2.6188
  163MOL   H10539309   1.281   2.331   0.519 -0.4850  0.8161  0.2530
  163MOL   H10639310   1.313   2.241   0.369 -0.3832  0.8859 -0.6896
  163MOL   H10739311   1.334   2.417   0.378 -0.4205 -0.2744 -0.0296
  163MOL   H10839312   1.688   2.272   0.402  0.8581 -1.3861 -2.4745
  163MOL   H10939313   1.576   2.306   0.273 -3.6478 -1.3746 -0.2772
  163MOL   O11039314   1.665   2.081   0.228 -0.0588 -0.3159 -0.1149
  163MOL   C11139315   1.680   1.951   0.168  0.3726  0.0672  0.7180
  163MOL   C11239316   1.560   1.922   0.068 -0.1373  0.1106  0.1452
  163MOL   C11339317   1.815   1.961   0.099 -0.4411  0.1958  0.4398
  163MOL   C11439318   1.860   1.827   0.039 -0.0647  0.5281 -0.2854
  163MOL   O11539319   1.890   1.730   0.109  0.5392 -0.0387  0.2340
  163MOL   H11639320   1.678   1.876   0.247  2.3467 -0.4408  0.3005
  163MOL   H11739321   1.463   1.930   0.118 -0.4268  0.3198 -0.4471
  163MOL   H11839322   1.571   1.822   0.028 -2.2735  0.6507 -1.8860
  163MOL   H11939323   1.563   1.992   7.964  0.8253  0.3747  0.3970
  163MOL   H12039324   1.883   1.985   0.180 -1.4271  1.8923  0.7707
  163MOL   H12139325   1.808   2.038   0.022 -0.1494 -1.7104 -1.5476
  163MOL   O12239326   1.864   1.840   7.886  0.0525 -0.4239  0.4381
  163MOL   C12339327   1.901   1.729   7.807 -0.3588  0.4249  0.1283
  163MOL   C12439328   1.769   1.676   7.746 -0.3212  0.1021 -0.6228
  163MOL   C12539329   2.016   1.760   7.709  0.2698 -0.5598  0.0146
  163MOL   C12639330   2.067   1.643   7.624  0.6781  0.8632  0.0251
  163MOL   O12739331   2.041   1.626   7.505 -0.4576 -0.1847  0.0178
  163MOL   H12839332   1.937   1.647   7.868  0.2384 -0.2017 -1.0390
  163MOL   H12939333   1.797   1.591   7.685  3.1896 -1.0902  2.4832
  163MOL   H13039334   1.706   1.748   7.694 -0.9262  1.4279  1.8396
  163MOL   H13139335   1.710   1.623   7.821  0.9442 -0.4569 -0.0217
  163MOL   H13239336   2.096   1.821   7.750 -0.3710 -0.6964  1.5119
  163MOL   H13339337   1.975   1.839   7.647  0.1032  1.4584  2.6036
  163MOL   O13439338   2.134   1.554   7.700  0.1393  0.1633  0.2119
  163MOL   C13539339   2.168   1.426   7.650  0.6798 -0.2198 -0.0708
  163MOL   C13639340   2.315   1.417   7.623 -0.2495  0.3335  0.2171
  163MOL   C13739341   2.114   1.311   7.736 -0.7592  0.0733  0.1499
  163MOL   C13839342   2.170   1.309   7.875 -0.1143  0.3073  0.6266
  163MOL   O13939343   2.245   1.219   7.913 -0.1633 -0.1318  0.0166
  163MOL   H14039344   2.117   1.408   7.556 -0.9986  2.9633  0.1830
  163MOL   H14139345   2.332   1.318   7.582 -0.1246  1.2363 -1.9774
  163MOL   H14239346   2.375   1.437   7.713 -0.4713  1.5708  0.1027
  163MOL   H14339347   2.345   1.483   7.542  2.0297  2.2228  2.4828
  163MOL   H14439348   2.137   1.220   7.681  0.5353 -0.2845  1.2609
  163MOL   H14539349   2.007   1.310   7.753 -0.2142 -1.7659  4.0795
  163MOL   O14639350   2.126   1.416   7.950 -0.3934 -0.5850  0.0363
  163MOL   C14739351   2.199   1.457   0.090 -0.3883 -0.0248  0.7413
  163MOL   C14839352   2.270   1.587   0.051  0.3837 -0.0183 -0.8047
  163MOL   C14939353   2.093   1.464   0.206  0.0155 -0.1007 -0.3817
  163MOL   C15039354   2.154   1.420   0.341 -0.2370 -0.5125  0.2430
  163MOL   O15139355   2.151   1.309   0.380 -0.0829  0.1564  0.1790
  163MOL   H15239356   2.265   1.372   0.112 -0.9626 -1.1131 -1.6067
  163MOL   H15339357   2.334   1.628   0.130 -1.5500  2.1615 -0.2960
  163MOL   H15439358   2.205   1.672   0.027 -1.8939 -0.8127  2.1818
  163MOL   H15539359   2.333   1.575   7.943  0.6483 -1.6183 -0.3981
  163MOL   H15639360   2.011   1.393   0.192 -0.0883 -0.3825  1.4806
  163MOL   H15739361   2.048   1.562   0.211 -0.7896 -0.5347  1.4546
  163MOL   O15839362   2.207   1.521   0.415 -0.1310  0.0061 -0.3648
  163MOL   C15939363   2.232   1.496   0.551  0.5581  0.3839 -0.5566
  163MOL   C16039364   2.367   1.563   0.578  0.0180  0.1714 -0.7628
  163MOL   C16139365   2.116   1.549   0.638  0.3266  0.6566 -0.4452
  163MOL   C16239366   2.087   1.698   0.624 -0.5908  0.0439  0.1282
  163MOL   O16339367   2.153   1.782   0.685 -0.0702 -0.5345 -0.0050
  163MOL   H16439368   2.246   1.392   0.582 -0.6924  0.5709  0.6478
  163MOL   H16539369   2.376   1.664   0.536 -1.7635  0.5987 -0.1563
  163MOL   H16639370   2.444   1.517   0.516 -1.1853  1.8557 -3.6251
  163MOL   H16739371   2.394   1.565   0.684  0.9930  0.0094 -1.0056
  163MOL   H16839372   2.140   1.516   0.740 -0.2479  3.6112  0.6969
  163MOL   H16939373   2.025   1.500   0.603  0.1593  0.4285  0.2860
  163MOL   O17039374   1.986   1.725   0.554 -0.0786 -0.4888 -0.1013
  163MOL   C17139375   1.934   1.862   0.558 -0.7428  0.2160 -0.5915
  163MOL   C17239376   1.909   1.904   0.410 -0.3059  0.5418  0.4273
  163MOL   C17339377   1.818   1.864   0.652 -0.2654  0.5010  0.3693
  163MOL   C17439378   1.739   1.989   0.661  0.0804 -0.8365  0.5763
  163MOL   O17539379   1.755   2.088   0.597  0.9108 -0.0353  0.6814
  163MOL   H17639380   2.009   1.935   0.588  1.3663 -2.4486  0.6946
  163MOL   H17739381   1.885   2.009   0.396 -1.8897  0.2992  1.1798
  163MOL   H17839382   1.829   1.843   0.367 -1.8869  1.9414  1.2919
  163MOL   H17939383   1.997   1.885   0.349 -1.0407  0.7623 -0.7082
  163MOL   H18039384   1.845   1.834   0.754  0.1116 -0.8163 -0.1075
  163MOL   H18139385   1.753   1.788   0.610 -0.4271 -1.2907  3.6265
  163MOL   O18239386   1.654   1.984   0.770 -0.3920  0.6542 -0.4766
  163MOL   C18339387   1.585   2.093   0.832 -0.0342 -0.4634  0.9185
  163MOL   C18439388   1.435   2.084   0.814  0.4576 -0.1399  0.5537
  163MOL   C18539389   1.617   2.091   0.985 -0.1065 -0.5796 -0.1890
  163MOL   C18639390   1.758   2.138   1.022  0.7588  0.4100 -0.3013
  163MOL   O18739391   1.774   2.248   1.080  0.0982 -0.1400 -0.5769
  163MOL   H18839392   1.624   2.183   0.786  0.2891 -1.3754 -0.6091
  163MOL   H18939393   1.420   2.117   0.711 -2.4351 -0.6193  0.7680
  163MOL   H19039394   1.376   2.144   0.883 -3.9836 -1.5343 -1.8257
  163MOL   H19139395   1.396   1.984   0.827  0.3871 -0.2207 -0.2640
  163MOL   H19239396   1.596   1.995   1.032 -0.1081 -0.9049 -0.8549
  163MOL   H19339397   1.542   2.158   1.029 -0.4054 -0.4921 -0.8283
  163MOL   O19439398   1.855   2.047   1.006  0.1880 -0.3000  0.4751
  163MOL   C19539399   1.992   2.086   1.001 -0.2702  0.6227 -0.3618
  163MOL   C19639400   2.079   1.961   1.035  0.1480 -0.6612 -0.4226
  163MOL   C19739401   2.018   2.129   0.848 -0.8128  0.5573 -0.3753
  163MOL   C19839402   2.171   2.155   0.819 -0.3381  0.0624  0.3597
  163MOL   O19939403   2.236   2.234   0.884  0.5167 -0.3133  0.5509
  163MOL   H20039404   2.004   2.167   1.074  2.7448 -2.0159  2.2127
  163MOL   H20139405   2.066   1.883   0.959  1.1179 -0.5111 -0.7485
  163MOL   H20239406   2.044   1.925   1.131  1.5282 -0.2821  0.2349
  163MOL   H20339407   2.187   1.973   1.044  0.1420 -0.3706 -0.7140
  163MOL   H20439408   1.957   2.212   0.811 -2.0610  0.1963  0.8091
  163MOL   H20539409   1.990   2.049   0.780  1.4989  0.1090 -0.8329
  163MOL   O20639410   2.217   2.086   0.713  0.0888 -0.2823 -0.0676
  163MOL   C20739411   2.353   2.074   0.672 -0.2818 -0.0453  0.0456
  163MOL   C20839412   2.430   1.989   0.766  0.0480 -0.5676 -0.8299
  163MOL   C20939413   2.366   2.028   0.526 -0.2539  0.1616 -0.4910
  163MOL   C21039414   2.315   2.125   0.418  0.4270  0.3740 -1.1935
  163MOL   O21139415   2.351   2.241   0.421  0.3554 -0.1888  0.0996
  163MOL   H21239416   2.389   2.176   0.683  2.6029 -1.2956  2.8771
  163MOL   H21339417   2.391   1.887   0.759  1.1732 -1.0103 -0.7152
  163MOL   H21439418   2.412   2.023   0.868 -0.6693 -2.1769 -0.3913
  163MOL   H21539419   2.533   1.989   0.733  0.6814  2.3230  1.0002
  163MOL   H21639420   2.320   1.931   0.507  1.5168 -0.4674 -1.6521
  163MOL   H21739421   2.470   2.020   0.495 -0.5129 -3.4490 -0.5963
  163MOL   O21839422   2.224   2.076   0.329  0.0600  1.3189  0.9620
  163MOL   C21939423   2.211   2.128   0.196  0.1248  0.3014 -0.3310
  163MOL   C22039424   2.192   2.003   0.111 -0.4285  0.0085 -0.1171
  163MOL   C22139425   2.089   2.223   0.206  0.1789  0.1658  0.6773
  163MOL   C22239426   2.068   2.315   0.083  0.3513 -1.0334 -0.0868
  163MOL   O22339427   2.163   2.345   0.008 -0.4622  0.0295 -0.3375
  163MOL   H22439428   2.303   2.178   0.166 -0.7520  1.1796 -1.6040
  163MOL   H22539429   2.277   1.936   0.093  0.3795  0.8092  0.6941
  163MOL   H22639430   2.162   2.029   0.009  1.4295  1.7563 -0.2447
  163MOL   H22739431   2.118   1.939   0.158  2.2689 -1.3585  2.4112
  163MOL   H22839432   2.101   2.291   0.290 -0.7684  1.6920 -0.3974
  163MOL   H22939433   2.000   2.163   0.228  0.0734 -0.0334 -0.2540
  163MOL   O23039434   1.939   2.351   0.066  0.7339 -0.0719 -0.1078
  163MOL   C23139435   1.885   2.408   7.929  0.3080  0.6432  0.1317
  163MOL   C23239436   1.741   2.351   7.912 -0.0011  0.4114  0.1574
  163MOL   C23339437   1.888   2.562   7.935  0.7152 -0.1033  0.4099
  163MOL   C23439438   1.805   2.624   0.063 -0.7473  0.1192  0.3735
  163MOL   O23539439   1.859   2.659   0.167 -0.4561 -0.2862 -0.1574
  163MOL   H23639440   1.946   2.370   7.847  0.6654  2.5392 -0.5037
  163MOL   H23739441   1.671   2.366   0.014 -1.3989  0.9976 -1.1377
  163MOL   H23839442   1.742   2.252   7.866  2.3445  1.3738 -1.9535
  163MOL   H23939443   1.693   2.416   7.839  0.1646 -0.6942 -0.9540
  163MOL   H24039444   1.845   2.599   7.842  0.0549  0.5902  0.9819
  163MOL   H24139445   1.990   2.600   7.930  0.4087  0.5658 -1.2006
  163MOL   H24239446   1.701   2.653   0.051 -1.1924 -1.7856 -0.5306
  164MOL     O139447   4.683   7.374   3.008 -0.4129 -0.5884 -0.3786
  164MOL     C239448   4.703   7.235   2.965  0.8436 -0.5909 -0.6570
  164MOL     C339449   4.666   7.245   2.819  0.3557 -0.3108  0.1692
  164MOL     C439450   4.851   7.201   2.991 -0.0791  0.3637  0.3510
  164MOL     C539451   4.886   7.055   2.949 -0.2973  0.5070  0.2108
  164MOL     O639452   4.975   7.041   2.867 -0.3407  0.1299  0.3840
  164MOL     H739453   4.620   7.184   3.013 -0.3665  2.2383  0.4139
  164MOL     H839454   4.733   7.314   2.768 -1.6836  1.5895 -0.0073
  164MOL     H939455   4.562   7.279   2.818 -0.5294 -2.8580  1.3922
  164MOL    H1039456   4.658   7.147   2.772 -1.4112 -1.2380  2.2885
  164MOL    H1139457   4.857   7.206   3.100  3.2005 -1.8147  0.3272
  164MOL    H1239458   4.917   7.276   2.948 -0.4933  1.2981  1.3000
  164MOL    H1339459   4.590   7.390   3.004 -0.2362  2.1228  3.7830
  164MOL    O1439460   4.809   6.966   3.012  0.6827  0.7041  0.3016
  164MOL    C1539461   4.824   6.829   2.977  0.5879  0.1183 -0.0154
  164MOL    C1639462   4.912   6.763   3.078  0.2801  0.1838 -0.4990
  164MOL    C1739463   4.682   6.770   2.977 -0.3585 -0.3555  0.1438
  164MOL    C1839464   4.675   6.650   2.886 -0.1023 -0.3651  0.3148
  164MOL    O1939465   4.764   6.606   2.817 -0.0152 -0.1118  0.0803
  164MOL    H2039466   4.866   6.824   2.877  3.2284 -1.9348  1.1002
  164MOL    H2139467   4.927   6.664   3.036  0.5857  0.6053 -1.4104
  164MOL    H2239468   4.864   6.747   3.175  0.0455 -3.0828 -1.1051
  164MOL    H2339469   5.012   6.806   3.081  0.0767  0.6056  0.3711
  164MOL    H2439470   4.606   6.843   2.950  2.4499  2.8668  0.6713
  164MOL    H2539471   4.641   6.737   3.073 -3.8104  1.2694 -0.6838
  164MOL    O2639472   4.549   6.598   2.878  0.1748  0.1381  0.2369
  164MOL    C2739473   4.525   6.470   2.819 -0.1138 -0.0703  0.1535
  164MOL    C2839474   4.428   6.388   2.911  0.0206 -0.1413  0.0051
  164MOL    C2939475   4.466   6.482   2.670 -0.3466 -0.3992 -0.2607
  164MOL    C3039476   4.331   6.547   2.655 -0.0619  0.8325 -0.3476
  164MOL    O3139477   4.288   6.635   2.720  0.5048 -0.1727 -0.0339
  164MOL    H3239478   4.618   6.414   2.811  0.1207  0.3265  0.0400
  164MOL    H3339479   4.338   6.447   2.931 -0.7882 -1.4984  0.3832
  164MOL    H3439480   4.474   6.370   3.008  0.2302 -0.7541 -0.2110
  164MOL    H3539481   4.404   6.296   2.858 -1.2853  0.2921 -0.1686
  164MOL    H3639482   4.471   6.383   2.624 -0.4108 -0.5446  0.0489
  164MOL    H3739483   4.539   6.535   2.608 -1.1065 -0.6121 -1.3393
  164MOL    O3839484   4.255   6.474   2.571 -0.1149 -0.5875  0.5339
  164MOL    C3939485   4.107   6.494   2.562 -0.2590  0.8753 -0.0869
  164MOL    C4039486   4.071   6.544   2.428 -0.2258  0.3164 -0.0714
  164MOL    C4139487   4.024   6.372   2.604  0.0366 -0.7043 -0.1567
  164MOL    C4239488   4.036   6.322   2.745  0.3337  0.1621 -0.3469
  164MOL    O4339489   4.087   6.217   2.773 -0.2725  0.6030 -0.3505
  164MOL    H4439490   4.072   6.568   2.635  1.1919  1.0271  0.4736
  164MOL    H4539491   3.978   6.500   2.391 -0.5234 -0.7691  1.8879
  164MOL    H4639492   4.155   6.524   2.362 -0.2093 -2.0466  0.6160
  164MOL    H4739493   4.050   6.651   2.432 -1.1823  0.2199 -2.0722
  164MOL    H4839494   4.031   6.292   2.530 -0.4421  0.4355 -1.4602
  164MOL    H4939495   3.922   6.412   2.603 -0.3522 -1.6254 -2.6555
  164MOL    O5039496   3.982   6.403   2.839 -0.3821  0.3700  1.1608
  164MOL    C5139497   4.010   6.390   2.976  0.0977 -0.0681  0.4165
  164MOL    C5239498   4.022   6.530   3.023 -0.0624 -0.2558  0.0553
  164MOL    C5339499   3.894   6.316   3.039 -0.3365  0.2983 -0.2306
  164MOL    C5439500   3.899   6.318   3.191 -0.3192  0.0844  0.0868
  164MOL    O5539501   3.815   6.382   3.256 -0.1641  0.0866  0.5225
  164MOL    H5639502   4.108   6.342   2.985  1.3345  2.6149  1.8242
  164MOL    H5739503   4.049   6.525   3.128  1.2848 -0.9101 -0.3207
  164MOL    H5839504   3.928   6.583   3.006  0.3371 -0.2993 -2.6017
  164MOL    H5939505   4.095   6.584   2.963  0.0974  0.0495  0.5207
  164MOL    H6039506   3.899   6.213   3.004 -0.3975  0.6854 -1.3875
  164MOL    H6139507   3.797   6.357   3.012 -0.3741  0.7548  0.5697
  164MOL    O6239508   4.001   6.243   3.236  0.3590 -0.0701  0.4328
  164MOL    C6339509   4.019   6.228   3.377  0.5452 -0.0353  0.2075
  164MOL    C6439510   4.036   6.078   3.398 -0.1112  0.0001  0.0297
  164MOL    C6539511   4.127   6.319   3.432  0.4758  0.2904  0.4117
  164MOL    C6639512   4.259   6.313   3.360 -0.8100 -0.6900 -0.1637
  164MOL    O6739513   4.295   6.228   3.281  0.5559  0.1161 -0.2392
  164MOL    H6839514   3.927   6.250   3.431  0.0735 -0.9422 -0.2030
  164MOL    H6939515   4.118   6.036   3.340 -0.4220 -1.6636  0.7493
  164MOL    H7039516   3.957   6.024   3.346 -0.9211  1.8201 -0.6484
  164MOL    H7139517   4.050   6.038   3.499 -0.4067  1.3350  0.6046
  164MOL    H7239518   4.147   6.302   3.538  1.6695  0.1207  0.1628
  164MOL    H7339519   4.086   6.420   3.424  0.0296 -0.0602 -2.0983
  164MOL    O7439520   4.335   6.422   3.390 -0.1121  0.3045  0.0353
  164MOL    C7539521   4.450   6.451   3.316  0.3900  0.4306  0.2095
  164MOL    C7639522   4.408   6.582   3.244 -0.0546  0.7242  0.3885
  164MOL    C7739523   4.576   6.469   3.397 -0.8153  0.4381 -0.6853
  164MOL    C7839524   4.707   6.478   3.312 -0.1824  0.4533 -0.0301
  164MOL    O7939525   4.788   6.575   3.326 -0.2655  0.7986  0.5646
  164MOL    H8039526   4.478   6.385   3.234  2.0394  1.7128 -0.3033
  164MOL    H8139527   4.412   6.670   3.308  0.4665  1.3632 -0.4997
  164MOL    H8239528   4.307   6.577   3.204 -0.1889  0.6310  0.7403
  164MOL    H8339529   4.477   6.596   3.161  1.7613 -1.4171  1.4846
  164MOL    H8439530   4.588   6.376   3.453 -1.6475  1.0883  0.5979
  164MOL    H8539531   4.568   6.553   3.466  2.0706  1.2924 -1.3609
  164MOL    O8639532   4.727   6.364   3.225  0.2507 -0.1703 -0.1677
  164MOL    C8739533   4.854   6.351   3.152 -0.5270 -0.4971  0.1997
  164MOL    C8839534   4.960   6.276   3.236  0.5234 -0.0697  0.0010
  164MOL    C8939535   4.815   6.283   3.019  0.2054 -0.6818 -0.2217
  164MOL    C9039536   4.938   6.280   2.915 -0.1587  0.6652  0.4682
  164MOL    O9139537   4.949   6.188   2.833 -0.0214 -0.0344 -0.3877
  164MOL    H9239538   4.898   6.446   3.123  0.1418 -1.5572 -2.3377
  164MOL    H9339539   4.927   6.185   3.286 -1.5163 -0.5999 -2.2370
  164MOL    H9439540   4.990   6.334   3.324 -0.1339  0.5544 -0.1929
  164MOL    H9539541   5.045   6.241   3.177  0.0654  0.3538 -0.9063
  164MOL    H9639542   4.743   6.345   2.964  0.7191  1.6591  1.6565
  164MOL    H9739543   4.776   6.183   3.036 -1.0431 -0.1086  0.3021
  164MOL    O9839544   5.027   6.385   2.926 -0.7248 -0.6229  0.1890
  164MOL    C9939545   5.134   6.395   2.829  0.1424  1.1753  0.0251
  164MOL   C10039546   5.116   6.528   2.747 -0.2654  0.7021 -0.0180
  164MOL   C10139547   5.275   6.392   2.890  0.1102 -0.1220  0.4935
  164MOL   C10239548   5.317   6.267   2.965  0.2154 -0.1689 -0.0596
  164MOL   O10339549   5.288   6.157   2.926  0.1996  0.3306  0.1892
  164MOL   H10439550   5.112   6.315   2.757  2.0908  1.2435 -0.6668
  164MOL   H10539551   5.186   6.532   2.663 -3.1580  0.3222 -2.5441
  164MOL   H10639552   5.128   6.606   2.822 -2.5269  2.2838 -1.2279
  164MOL   H10739553   5.017   6.544   2.703 -0.5948  1.3972  0.9610
  164MOL   H10839554   5.284   6.487   2.942  0.8590  1.4042 -2.3356
  164MOL   H10939555   5.351   6.399   2.813 -2.6503  1.0372 -2.2222
  164MOL   O11039556   5.395   6.293   3.072 -0.1911  0.5419 -0.4812
  164MOL   C11139557   5.467   6.185   3.126  0.8110  0.1033  0.5080
  164MOL   C11239558   5.611   6.222   3.151  0.4508 -0.0047 -0.3870
  164MOL   C11339559   5.396   6.118   3.241  0.1487  0.0339 -0.6359
  164MOL   C11439560   5.395   6.201   3.363  0.3116  0.0654 -0.0988
  164MOL   O11539561   5.331   6.306   3.370 -0.7155  0.0281 -0.1478
  164MOL   H11639562   5.457   6.100   3.059  4.1098 -0.0859  0.1807
  164MOL   H11739563   5.672   6.245   3.064 -2.2930  0.6630 -2.1881
  164MOL   H11839564   5.659   6.153   3.221 -0.8902  0.9838  1.5293
  164MOL   H11939565   5.617   6.319   3.201 -0.9953 -0.4979  0.7733
  164MOL   H12039566   5.428   6.016   3.265 -0.7589  0.0210  0.5627
  164MOL   H12139567   5.291   6.108   3.214 -0.0630  0.9484 -0.1488
  164MOL   O12239568   5.487   6.168   3.461  0.7201 -0.3361  0.4924
  164MOL   C12339569   5.490   6.248   3.578 -0.8407  0.2183 -0.4859
  164MOL   C12439570   5.453   6.163   3.706  0.1915 -0.3136  0.1336
  164MOL   C12539571   5.624   6.326   3.588 -0.4511  0.1142  1.0265
  164MOL   C12639572   5.670   6.378   3.720  0.3429 -0.1371 -0.1714
  164MOL   O12739573   5.610   6.469   3.777 -0.7202  0.0814 -0.0267
  164MOL   H12839574   5.417   6.329   3.578 -1.4125 -0.2890 -1.2648
  164MOL   H12939575   5.535   6.095   3.728  1.7189  1.7786  1.0539
  164MOL   H13039576   5.365   6.103   3.684  0.0430 -0.3901  0.9220
  164MOL   H13139577   5.437   6.219   3.798  2.2817  0.5612 -0.0222
  164MOL   H13239578   5.624   6.410   3.519  4.2145 -0.1249  0.5352
  164MOL   H13339579   5.701   6.259   3.547  0.7424  0.4140  2.7353
  164MOL   O13439580   5.782   6.313   3.763  0.3791 -0.2049 -0.2376
  164MOL   C13539581   5.825   6.331   3.904  0.3408 -0.1747 -0.3444
  164MOL   C13639582   5.814   6.196   3.971 -0.0114  0.3732 -0.2824
  164MOL   C13739583   5.971   6.381   3.914  0.0733  0.0069  0.2358
  164MOL   C13839584   5.994   6.526   3.889 -0.3653 -0.2796 -0.2238
  164MOL   O13939585   6.010   6.564   3.772  0.5718  0.0657  0.7519
  164MOL   H14039586   5.756   6.387   3.966 -0.3114 -0.4844 -0.7865
  164MOL   H14139587   5.855   6.112   3.915 -1.7152 -0.0511 -0.9222
  164MOL   H14239588   5.708   6.182   3.989  0.6524 -1.5583  2.4730
  164MOL   H14339589   5.851   6.194   4.073  0.8086  0.0023 -0.5797
  164MOL   H14439590   6.046   6.320   3.863 -1.1385 -1.2805 -0.0634
  164MOL   H14539591   6.012   6.370   4.014  1.6906 -1.4172 -0.5563
  164MOL   O14639592   5.990   6.598   3.993 -0.1136 -0.7541  0.1488
  164MOL   C14739593   6.038   6.730   3.997  0.1076 -1.4330 -0.5683
  164MOL   C14839594   5.974   6.802   4.114 -1.0912 -0.4799  0.0530
  164MOL   C14939595   6.190   6.729   4.009  0.2755 -0.0646 -0.3176
  164MOL   C15039596   6.257   6.868   4.014  0.1612  0.0151  0.1085
  164MOL   O15139597   6.269   6.931   3.907 -0.2585 -0.0305 -0.7567
  164MOL   H15239598   5.992   6.779   3.912 -0.1729 -1.0966 -0.2216
  164MOL   H15339599   6.020   6.773   4.208  3.3414  0.7230 -1.6051
  164MOL   H15439600   5.868   6.774   4.115 -1.3447  0.3865 -1.4931
  164MOL   H15539601   6.005   6.904   4.097 -1.4274 -0.6078 -1.4259
  164MOL   H15639602   6.231   6.680   3.920 -0.8320 -0.2152 -0.7462
  164MOL   H15739603   6.221   6.657   4.085  1.7195 -1.6148 -2.3115
  164MOL   O15839604   6.289   6.907   4.143  0.1478 -0.4064 -0.4231
  164MOL   C15939605   6.346   7.037   4.169 -1.0640 -0.6562  0.2447
  164MOL   C16039606   6.233   7.126   4.225 -0.4983  0.3755 -0.7728
  164MOL   C16139607   6.472   7.017   4.257 -0.1302  0.1683 -0.5417
  164MOL   C16239608   6.554   7.148   4.264  0.7943 -0.3905  0.3946
  164MOL   O16339609   6.646   7.152   4.342 -0.3512  0.1154  0.3500
  164MOL   H16439610   6.371   7.074   4.069  1.7990  1.1318  1.5590
  164MOL   H16539611   6.181   7.093   4.315  1.7809  1.4370  0.9817
  164MOL   H16639612   6.148   7.118   4.156 -0.4419  0.3229 -0.8358
  164MOL   H16739613   6.258   7.231   4.242  4.1389 -0.9311  1.0938
  164MOL   H16839614   6.538   6.951   4.201 -2.7933 -2.0214 -1.1411
  164MOL   H16939615   6.443   6.969   4.351  4.5091  0.6452  1.3071
  164MOL   O17039616   6.515   7.247   4.179 -0.4089 -0.2314 -0.5731
  164MOL   C17139617   6.581   7.374   4.182 -0.2421  0.7184 -0.3538
  164MOL   C17239618   6.608   7.407   4.038  0.7262  0.5245  0.9771
  164MOL   C17339619   6.492   7.473   4.247 -0.2790 -0.0624 -0.0311
  164MOL   C17439620   6.502   7.471   4.398  0.8521  0.3561 -0.2681
  164MOL   O17539621   6.613   7.462   4.452 -0.4162 -0.0840  0.2579
  164MOL   H17639622   6.686   7.385   4.209 -0.1481  0.4978 -0.6186
  164MOL   H17739623   6.522   7.452   3.989  0.4321 -1.9286 -0.8806
  164MOL   H17839624   6.634   7.324   3.972 -2.0621  1.4118 -1.3633
  164MOL   H17939625   6.695   7.473   4.029  2.3874 -1.6782  0.5268
  164MOL   H18039626   6.389   7.452   4.219  0.1168 -2.4206  0.1559
  164MOL   H18139627   6.516   7.576   4.224 -0.8589  0.3233  1.0291
  164MOL   O18239628   6.383   7.479   4.454  0.0712  0.0716  0.2941
  164MOL   C18339629   6.369   7.480   4.596 -0.1681 -0.7859  0.6039
  164MOL   C18439630   6.297   7.615   4.627 -0.6411  0.7860  0.1337
  164MOL   C18539631   6.280   7.363   4.634 -0.0597 -0.6734  0.0282
  164MOL   C18639632   6.347   7.229   4.615  0.1120 -0.4771  0.0042
  164MOL   O18739633   6.323   7.161   4.513 -0.0189 -0.8170 -0.7614
  164MOL   H18839634   6.465   7.465   4.644 -0.3663  1.0477  1.5894
  164MOL   H18939635   6.189   7.607   4.615 -0.2986  0.6438 -3.2196
  164MOL   H19039636   6.341   7.695   4.567 -0.7703  1.1328  0.4960
  164MOL   H19139637   6.330   7.635   4.730  1.0463 -0.3777 -0.1575
  164MOL   H19239638   6.182   7.367   4.587 -1.1299 -0.8597  2.1968
  164MOL   H19339639   6.253   7.379   4.738  1.3446  0.4760  0.2373
  164MOL   O19439640   6.443   7.207   4.698 -0.3878  0.2050 -0.0798
  164MOL   C19539641   6.534   7.102   4.674  0.2154  0.6381  0.0186
  164MOL   C19639642   6.677   7.162   4.688  0.3571 -0.3273 -0.4468
  164MOL   C19739643   6.514   6.985   4.772 -0.7101  0.4510 -0.4614
  164MOL   C19839644   6.376   6.919   4.745  0.6238  0.2467  1.0026
  164MOL   O19939645   6.301   6.907   4.841 -0.3090  0.3041  0.4704
  164MOL   H20039646   6.521   7.063   4.573  0.8805 -1.9600  0.9106
  164MOL   H20139647   6.696   7.244   4.619 -1.6788  0.3100 -0.2819
  164MOL   H20239648   6.741   7.077   4.667  4.1111  2.1213  0.5075
  164MOL   H20339649   6.701   7.202   4.787 -2.2127 -0.3772  0.2098
  164MOL   H20439650   6.516   7.018   4.875  1.1417 -0.5415 -0.1642
  164MOL   H20539651   6.591   6.910   4.753  1.1715  2.4032 -0.6358
  164MOL   O20639652   6.360   6.857   4.627  0.9071  0.4736  0.1103
  164MOL   C20739653   6.239   6.785   4.594  0.4351  0.7834 -0.1410
  164MOL   C20839654   6.231   6.784   4.440  0.1407  0.1755 -0.5608
  164MOL   C20939655   6.242   6.644   4.654 -0.4548  0.9647 -0.2426
  164MOL   C21039656   6.131   6.546   4.615  0.1925 -0.2045 -0.0859
  164MOL   O21139657   6.024   6.552   4.674 -0.2218 -0.3986 -0.0570
  164MOL   H21239658   6.159   6.844   4.639 -0.6146  0.3295 -1.4038
  164MOL   H21339659   6.314   6.724   4.403  1.0537 -0.2115  2.0023
  164MOL   H21439660   6.230   6.886   4.403  0.1378 -0.9347 -3.8215
  164MOL   H21539661   6.141   6.733   4.407  0.8380  0.5393 -3.0896
  164MOL   H21639662   6.262   6.636   4.761  2.0940 -0.5143 -0.7771
  164MOL   H21739663   6.326   6.585   4.617 -0.8834 -0.3160  0.7775
  164MOL   O21839664   6.171   6.479   4.508  0.2790  0.7623  0.5104
  164MOL   C21939665   6.090   6.391   4.432 -0.1333 -0.3422 -0.1223
  164MOL   C22039666   6.078   6.458   4.297 -0.3506 -0.2421 -0.2546
  164MOL   C22139667   6.156   6.256   4.435  0.1858  0.2118  0.4008
  164MOL   C22239668   6.064   6.147   4.374 -0.6766 -0.6746  0.0665
  164MOL   O22339669   6.071   6.129   4.252 -0.0754  0.3655 -0.0104
  164MOL   H22439670   5.993   6.393   4.482  0.0460 -0.3751  0.2307
  164MOL   H22539671   6.038   6.559   4.290  1.6212  0.5102 -0.9769
  164MOL   H22639672   6.020   6.392   4.233  0.2845 -0.0186 -1.0665
  164MOL   H22739673   6.177   6.464   4.250 -0.7014 -3.4012 -1.5217
  164MOL   H22839674   6.173   6.235   4.540  0.7530  1.1203  0.4935
  164MOL   H22939675   6.248   6.257   4.376 -0.5717  1.1134 -0.7906
  164MOL   O23039676   5.983   6.088   4.464  0.2050  0.5772  0.7114
  164MOL   C23139677   5.866   6.015   4.416 -0.5739 -1.2660  0.1950
  164MOL   C23239678   5.851   5.869   4.441  0.3822 -0.0335  0.1330
  164MOL   C23339679   5.731   6.075   4.469  0.0127 -0.1691 -0.1971
  164MOL   C23439680   5.691   6.202   4.394 -0.0867  0.1142  0.0682
  164MOL   O23539681   5.761   6.260   4.316 -0.1639  0.4994  0.0959
  164MOL   H23639682   5.861   6.022   4.307  1.7443  3.1421  0.2657
  164MOL   H23739683   5.944   5.823   4.410 -0.4494 -1.5746 -0.0963
  164MOL   H23839684   5.768   5.820   4.390 -0.0193  0.1675  0.5885
  164MOL   H23939685   5.826   5.851   4.545  0.3885  0.7784  0.2773
  164MOL   H24039686   5.743   6.104   4.574 -1.5786  3.0465 -0.8306
  164MOL   H24139687   5.653   6.002   4.446  1.1605 -0.6918 -2.5813
  164MOL   H24239688   5.593   6.232   4.430 -0.5019 -1.9595  0.7140
  165MOL     O139689   5.680   4.878   1.178  0.2132 -0.0115 -0.4380
  165MOL     C239690   5.570   4.884   1.088  0.1102  0.4879 -0.0083
  165MOL     C339691   5.431   4.827   1.152 -0.7171 -0.3857  0.3664
  165MOL     C439692   5.545   5.033   1.038  0.1508 -0.2809 -0.3493
  165MOL     C539693   5.461   5.042   0.906 -0.9379 -0.3360 -0.1755
  165MOL     O639694   5.515   5.052   0.798 -0.2102 -0.4062  0.4657
  165MOL     H739695   5.597   4.817   1.007 -1.3067  0.5736 -0.5465
  165MOL     H839696   5.362   4.811   1.068 -0.8998  0.0953  0.4244
  165MOL     H939697   5.377   4.897   1.216  1.4295  0.5318  1.2297
  165MOL    H1039698   5.437   4.731   1.204  0.0014 -0.2520  0.5258
  165MOL    H1139699   5.642   5.076   1.012  0.1573  0.0839  0.2636
  165MOL    H1239700   5.502   5.088   1.122 -1.2053 -2.2082  0.2622
  165MOL    H1339701   5.664   4.797   1.224  1.5809 -0.0330  0.0093
  165MOL    O1439702   5.326   5.045   0.930  0.2573  0.1016  0.0809
  165MOL    C1539703   5.239   5.042   0.823  0.2282 -0.1638  0.1641
  165MOL    C1639704   5.197   4.892   0.804  0.7063 -0.5261  0.1219
  165MOL    C1739705   5.120   5.128   0.866 -0.2474 -0.0625 -1.1582
  165MOL    C1839706   5.146   5.278   0.860  0.1380 -0.0036  0.8496
  165MOL    O1939707   5.166   5.338   0.963 -0.2786 -0.6015  0.4487
  165MOL    H2039708   5.285   5.066   0.727  1.0803  2.8381  1.2712
  165MOL    H2139709   5.108   4.883   0.741 -0.1584 -1.2357  1.4170
  165MOL    H2239710   5.169   4.846   0.899 -0.8441 -1.3028 -0.6809
  165MOL    H2339711   5.276   4.831   0.761 -1.2955 -2.3810 -1.0982
  165MOL    H2439712   5.108   5.114   0.974 -2.4116  2.5895 -1.0079
  165MOL    H2539713   5.025   5.101   0.820 -1.3727  0.3950  0.8540
  165MOL    O2639714   5.142   5.327   0.733 -0.0286 -0.7873 -0.3197
  165MOL    C2739715   5.164   5.462   0.694  0.3312  0.3455  0.3130
  165MOL    C2839716   5.210   5.451   0.553  0.2135  0.2171  0.2788
  165MOL    C2939717   5.043   5.554   0.722 -0.0567  0.8984  0.1139
  165MOL    C3039718   5.061   5.704   0.693 -0.0300  0.3551  0.4101
  165MOL    O3139719   5.160   5.765   0.654 -0.1912  0.2024 -0.6850
  165MOL    H3239720   5.255   5.492   0.745 -0.5979 -0.1454  2.3001
  165MOL    H3339721   5.131   5.422   0.484 -0.2194  1.3531  0.2793
  165MOL    H3439722   5.292   5.381   0.537  0.8328  0.8142  0.7903
  165MOL    H3539723   5.253   5.544   0.515  2.7670 -1.3292 -0.7028
  165MOL    H3639724   5.018   5.546   0.828 -0.6336 -1.6741 -0.1935
  165MOL    H3739725   4.954   5.512   0.677 -0.7163 -0.9174  2.9513
  165MOL    O3839726   4.947   5.766   0.726  0.2600  0.0146 -0.0160
  165MOL    C3939727   4.923   5.907   0.723 -0.9877 -0.3984  0.3194
  165MOL    C4039728   4.895   5.948   0.576  0.2478  0.5777  0.2585
  165MOL    C4139729   4.813   5.927   0.825  0.4192  0.2522  0.5058
  165MOL    C4239730   4.765   6.069   0.823  0.2952  0.5378  0.1509
  165MOL    O4339731   4.827   6.170   0.845 -0.6492 -0.1488  0.4690
  165MOL    H4439732   5.012   5.963   0.750 -1.6986  0.5616  0.7079
  165MOL    H4539733   4.815   5.883   0.539 -1.4279  0.0271  4.5490
  165MOL    H4639734   4.980   5.924   0.512  0.3741 -1.0843  1.0149
  165MOL    H4739735   4.863   6.052   0.572 -1.3650  0.1238  1.0685
  165MOL    H4839736   4.855   5.904   0.923  2.4062  0.0402 -0.3716
  165MOL    H4939737   4.733   5.856   0.805  0.3727  0.5226 -0.2955
  165MOL    O5039738   4.640   6.061   0.791  0.1249  0.1644 -0.0974
  165MOL    C5139739   4.564   6.175   0.794 -0.4952  0.8609 -0.3888
  165MOL    C5239740   4.603   6.262   0.678  0.6182 -0.4713  0.1169
  165MOL    C5339741   4.416   6.136   0.767 -0.1559 -0.0746 -0.5324
  165MOL    C5439742   4.337   6.137   0.898 -0.5608  0.2941 -0.1723
  165MOL    O5539743   4.237   6.211   0.919  0.2125 -0.4735 -0.6454
  165MOL    H5639744   4.572   6.236   0.884 -0.2684 -0.7625  0.7068
  165MOL    H5739745   4.695   6.319   0.694 -0.3950  0.9886  0.8597
  165MOL    H5839746   4.527   6.339   0.663  1.7202  0.5580 -0.2953
  165MOL    H5939747   4.605   6.204   0.586 -0.4096  2.8893 -2.1331
  165MOL    H6039748   4.420   6.037   0.721 -2.3241 -1.0172  1.2162
  165MOL    H6139749   4.367   6.218   0.715  0.9397  0.3384 -0.9217
  165MOL    O6239750   4.377   6.041   0.984 -0.4706 -0.7356 -0.7201
  165MOL    C6339751   4.311   6.019   1.109  0.0133 -0.3943 -0.3332
  165MOL    C6439752   4.204   5.914   1.073  0.0610 -0.6089 -0.8190
  165MOL    C6539753   4.414   5.982   1.218  0.4489  0.2637  0.1696
  165MOL    C6639754   4.478   6.107   1.267  0.2278  0.0240  0.9688
  165MOL    O6739755   4.475   6.133   1.389 -0.7347  0.1388  0.2781
  165MOL    H6839756   4.257   6.107   1.143  0.1706 -0.0123 -1.0764
  165MOL    H6939757   4.145   5.960   0.993 -0.8454 -1.6111 -0.7219
  165MOL    H7039758   4.141   5.881   1.155  1.4522  3.1130  1.9397
  165MOL    H7139759   4.261   5.834   1.026 -0.0330 -1.2207  0.1144
  165MOL    H7239760   4.501   5.918   1.199  0.4829 -0.1520  1.6281
  165MOL    H7339761   4.349   5.940   1.295  1.0294  0.4319  0.7604
  165MOL    O7439762   4.538   6.181   1.181  0.1559  0.2356 -0.2479
  165MOL    C7539763   4.613   6.292   1.227  0.7076  0.1514  0.2030
  165MOL    C7639764   4.752   6.238   1.273  1.4069 -0.1413  0.4720
  165MOL    C7739765   4.636   6.398   1.121 -0.1145 -0.5243 -0.7396
  165MOL    C7839766   4.507   6.455   1.071 -0.7173 -0.4701  0.3551
  165MOL    O7939767   4.480   6.450   0.953  0.1345 -0.5925 -1.0750
  165MOL    H8039768   4.565   6.348   1.307  1.6759  1.1194  0.1243
  165MOL    H8139769   4.787   6.164   1.202 -1.1054 -0.0141 -0.9270
  165MOL    H8239770   4.741   6.191   1.371 -0.5160 -1.0673 -0.1654
  165MOL    H8339771   4.834   6.308   1.289  1.1010  0.1153  0.9471
  165MOL    H8439772   4.665   6.336   1.036 -0.4721  0.7156 -1.7875
  165MOL    H8539773   4.703   6.482   1.138  0.6482 -0.8915 -1.8463
  165MOL    O8639774   4.435   6.493   1.169 -0.1900 -0.0738  0.6614
  165MOL    C8739775   4.307   6.557   1.140  0.6941 -0.3622 -1.1984
  165MOL    C8839776   4.193   6.471   1.191 -0.7375  0.3851  0.2222
  165MOL    C8939777   4.308   6.700   1.183 -0.0575 -0.4737 -0.3136
  165MOL    C9039778   4.198   6.790   1.125  0.0073 -0.3476  0.4889
  165MOL    O9139779   4.224   6.877   1.044 -0.4794  0.3906  0.8001
  165MOL    H9239780   4.300   6.570   1.032 -0.5059 -1.6317 -1.2881
  165MOL    H9339781   4.219   6.367   1.212  0.0561 -0.0595 -2.6901
  165MOL    H9439782   4.111   6.468   1.120 -0.0205  0.3975 -0.6255
  165MOL    H9539783   4.147   6.510   1.281 -0.3015  2.6738 -0.5110
  165MOL    H9639784   4.401   6.737   1.141  0.3085  0.3940  1.2141
  165MOL    H9739785   4.309   6.705   1.292  0.9824  0.8857 -0.3710
  165MOL    O9839786   4.071   6.758   1.173  0.6132 -0.4097 -0.0054
  165MOL    C9939787   3.956   6.836   1.136  0.4646  0.2824  0.4004
  165MOL   C10039788   3.911   6.792   0.994  0.2666  0.2554 -0.4395
  165MOL   C10139789   3.849   6.836   1.251 -0.3282  0.3252  0.9373
  165MOL   C10239790   3.726   6.910   1.222  0.2805 -0.1463  0.3326
  165MOL   O10339791   3.643   6.884   1.137  0.8942 -0.0481  0.5429
  165MOL   H10439792   3.994   6.938   1.130  1.5664 -0.1833 -0.5368
  165MOL   H10539793   3.969   6.836   0.913 -0.6442 -0.0273 -1.2518
  165MOL   H10639794   3.816   6.842   0.978 -0.3094 -0.3089  1.0541
  165MOL   H10739795   3.898   6.686   0.973  0.7868 -0.0375  0.6632
  165MOL   H10839796   3.898   6.874   1.341  0.6504  1.4276 -0.0341
  165MOL   H10939797   3.813   6.736   1.272 -1.0530  0.4753  0.4285
  165MOL   O11039798   3.725   7.030   1.289  0.3833 -0.2936 -0.1435
  165MOL   C11139799   3.629   7.139   1.261 -0.1543  0.4352  0.2559
  165MOL   C11239800   3.511   7.134   1.356 -0.3869 -0.5447 -0.4927
  165MOL   C11339801   3.710   7.264   1.283  0.4071 -0.1666  0.1203
  165MOL   C11439802   3.672   7.381   1.200 -0.0628  0.0601 -0.6745
  165MOL   O11539803   3.574   7.379   1.123  0.2095  0.6304  0.1939
  165MOL   H11639804   3.582   7.137   1.162 -0.0193  0.0251  0.2020
  165MOL   H11739805   3.464   7.232   1.356  0.7907  0.0396  1.1073
  165MOL   H11839806   3.532   7.101   1.458 -0.5094  0.9803  0.0305
  165MOL   H11939807   3.436   7.064   1.319  0.6179 -1.3953 -0.9332
  165MOL   H12039808   3.812   7.244   1.251  1.3367  0.9608  2.3170
  165MOL   H12139809   3.704   7.290   1.389 -1.5384  0.8872 -0.2335
  165MOL   O12239810   3.753   7.488   1.227 -0.0856 -0.2307 -0.4416
  165MOL   C12339811   3.763   7.602   1.150  0.1871 -0.2208  0.5741
  165MOL   C12439812   3.669   7.707   1.202  0.1365  0.2803 -0.3338
  165MOL   C12539813   3.910   7.646   1.127  0.7772 -0.7959 -0.6654
  165MOL   C12639814   3.986   7.561   1.025 -0.0049  0.0891 -1.0362
  165MOL   O12739815   4.042   7.611   0.926 -0.7014  0.2290  0.2398
  165MOL   H12839816   3.721   7.573   1.054 -0.2359  2.2338 -0.0144
  165MOL   H12939817   3.567   7.672   1.216  0.1056  0.8695  0.9646
  165MOL   H13039818   3.657   7.789   1.131  0.9557 -0.2102 -1.0609
  165MOL   H13139819   3.700   7.754   1.295  0.3215 -1.2229  0.3805
  165MOL   H13239820   3.972   7.670   1.214 -2.2527 -1.9816  1.9263
  165MOL   H13339821   3.903   7.746   1.084  2.4347 -0.5837 -0.4532
  165MOL   O13439822   3.987   7.429   1.055 -0.1682  0.5495 -0.7739
  165MOL   C13539823   4.071   7.339   0.979 -0.1167 -0.0595 -0.8014
  165MOL   C13639824   4.217   7.338   1.025  0.0319 -0.0368  0.2147
  165MOL   C13739825   4.002   7.204   0.986  0.2946 -0.0183 -0.2418
  165MOL   C13839826   3.874   7.196   0.904 -0.0929  0.2322 -0.2786
  165MOL   O13939827   3.792   7.116   0.942 -0.1159  0.0487  0.1190
  165MOL   H14039828   4.081   7.378   0.878 -0.2424  2.8719  0.2576
  165MOL   H14139829   4.228   7.328   1.132  0.1030 -0.5719  0.1561
  165MOL   H14239830   4.251   7.437   0.995  0.0530 -0.4127 -1.0352
  165MOL   H14339831   4.260   7.250   0.976 -1.1213 -0.9263  0.7726
  165MOL   H14439832   3.979   7.193   1.092 -2.1461 -2.0951 -0.9415
  165MOL   H14539833   4.061   7.114   0.972  0.1582  0.0656 -1.3967
  165MOL   O14639834   3.879   7.259   0.791 -0.5738 -0.1649 -0.3399
  165MOL   C14739835   3.761   7.306   0.727  0.4442  0.1321  0.0123
  165MOL   C14839836   3.763   7.451   0.767  0.0490  0.1273  0.2880
  165MOL   C14939837   3.774   7.275   0.577 -0.1984 -0.0187 -0.5670
  165MOL   C15039838   3.763   7.127   0.544  0.4482 -0.4731 -0.3462
  165MOL   O15139839   3.652   7.072   0.549 -0.3506 -0.0828  0.2063
  165MOL   H15239840   3.676   7.247   0.759  0.8556 -0.5816 -0.1986
  165MOL   H15339841   3.695   7.513   0.708 -0.4908  0.6810  1.4889
  165MOL   H15439842   3.858   7.499   0.741  1.3572 -1.5449  1.8682
  165MOL   H15539843   3.741   7.481   0.869  2.4396 -1.1308  1.1941
  165MOL   H15639844   3.870   7.306   0.534  2.2749 -2.1400  3.0825
  165MOL   H15739845   3.692   7.321   0.522 -0.4412 -1.0453 -1.0762
  165MOL   O15839846   3.882   7.071   0.508  0.1069 -0.2919  0.1703
  165MOL   C15939847   3.893   6.939   0.457 -0.2609  0.5109  0.0967
  165MOL   C16039848   3.976   6.951   0.332 -0.3678  0.6904  0.0676
  165MOL   C16139849   3.942   6.852   0.571 -0.0774 -0.4431  0.8444
  165MOL   C16239850   3.963   6.702   0.548  0.4334  0.3769  0.6559
  165MOL   O16339851   3.933   6.636   0.450 -0.4118  0.1481 -0.0651
  165MOL   H16439852   3.796   6.916   0.411  0.7047  0.4496 -1.9450
  165MOL   H16539853   3.976   6.857   0.277 -1.8081  0.4148  0.5090
  165MOL   H16639854   4.076   6.988   0.355  0.0655 -1.5986  2.0667
  165MOL   H16739855   3.927   7.024   0.268  0.6532 -0.0276 -1.5624
  165MOL   H16839856   3.871   6.857   0.654 -0.3760 -1.8706  0.6816
  165MOL   H16939857   4.033   6.895   0.615  0.3093  1.1611 -1.4189
  165MOL   O17039858   4.031   6.659   0.652  0.1710  0.5347 -0.1373
  165MOL   C17139859   4.052   6.520   0.677 -0.6393 -0.0501  0.2075
  165MOL   C17239860   4.176   6.527   0.770 -0.3975  0.0764  0.6247
  165MOL   C17339861   3.926   6.464   0.760  0.3752 -0.2654  0.2932
  165MOL   C17439862   3.935   6.317   0.791  0.2492  0.0315  0.6899
  165MOL   O17539863   3.964   6.234   0.697  0.2507  0.5163  0.6025
  165MOL   H17639864   4.063   6.470   0.581  0.5094  0.1811  0.2116
  165MOL   H17739865   4.156   6.595   0.852 -2.2461 -1.4271  1.4777
  165MOL   H17839866   4.255   6.572   0.710 -1.8354  0.7012 -0.8282
  165MOL   H17939867   4.209   6.427   0.799  1.2996  0.3809 -0.1900
  165MOL   H18039868   3.834   6.486   0.706  0.8967  0.1961 -0.4262
  165MOL   H18139869   3.917   6.513   0.857  1.1152  1.8322 -0.6687
  165MOL   O18239870   3.913   6.290   0.927  0.7051 -0.4282  0.0751
  165MOL   C18339871   3.919   6.152   0.966  0.7227 -0.1599 -0.0900
  165MOL   C18439872   3.954   6.149   1.117  0.3942 -0.3426 -0.4241
  165MOL   C18539873   3.816   6.048   0.927  0.0186  0.5552  0.3236
  165MOL   C18639874   3.682   6.074   0.993  1.2913 -0.0033  0.0479
  165MOL   O18739875   3.612   6.177   0.969 -0.3197  0.0035 -0.0784
  165MOL   H18839876   4.007   6.110   0.918 -1.4911 -3.4596 -1.4495
  165MOL   H18939877   3.963   6.045   1.147  0.5441  0.3165  1.9034
  165MOL   H19039878   3.871   6.189   1.176  1.1332 -0.9349  1.0628
  165MOL   H19139879   4.050   6.188   1.151  0.5094 -0.2195 -0.8919
  165MOL   H19239880   3.843   5.947   0.959 -1.3429  0.3204  0.7783
  165MOL   H19339881   3.808   6.037   0.819 -0.0559 -1.8499  0.5310
  165MOL   O19439882   3.647   5.973   1.078  0.0416  0.5156  0.7458
  165MOL   C19539883   3.518   5.982   1.133 -0.0252  0.3434 -0.3242
  165MOL   C19639884   3.469   5.841   1.156 -0.1300 -0.2030 -0.0256
  165MOL   C19739885   3.532   6.060   1.266 -1.0836 -0.0356  0.0042
  165MOL   C19839886   3.402   6.128   1.294 -0.4833 -0.0868  0.6890
  165MOL   O19939887   3.316   6.075   1.365  0.8066  0.2229  0.0116
  165MOL   H20039888   3.456   6.045   1.069  0.3853  0.1181 -0.9544
  165MOL   H20139889   3.533   5.792   1.230  0.9285 -0.7291 -1.2702
  165MOL   H20239890   3.478   5.785   1.064 -0.8775 -1.3733  0.6071
  165MOL   H20339891   3.370   5.829   1.200 -1.4211 -2.5490 -3.4235
  165MOL   H20439892   3.620   6.124   1.276 -1.2992  0.2872 -0.1322
  165MOL   H20539893   3.535   5.986   1.346 -1.5232  0.4789  0.5040
  165MOL   O20639894   3.375   6.250   1.233  0.4803 -0.0745 -0.0205
  165MOL   C20739895   3.250   6.318   1.233  0.0375 -0.0392 -0.2611
  165MOL   C20839896   3.244   6.424   1.343 -0.6904 -0.3619 -0.2734
  165MOL   C20939897   3.234   6.384   1.087 -0.0413  0.4496 -0.6525
  165MOL   C21039898   3.326   6.507   1.054  0.1757 -0.0213 -0.5457
  165MOL   O21139899   3.273   6.613   1.024 -0.3518  0.2375  0.8868
  165MOL   H21239900   3.170   6.245   1.238 -0.2040  0.2020 -0.5761
  165MOL   H21339901   3.271   6.394   1.444 -0.7653 -0.2371 -0.2169
  165MOL   H21439902   3.145   6.470   1.344 -1.0943 -1.1012 -2.7572
  165MOL   H21539903   3.306   6.512   1.323 -1.1121  0.4760  2.0524
  165MOL   H21639904   3.130   6.414   1.072  0.4848  3.3847  1.1651
  165MOL   H21739905   3.244   6.299   1.020 -2.0994  0.7467 -1.3811
  165MOL   O21839906   3.453   6.479   1.081  0.0449 -0.0701  0.0625
  165MOL   C21939907   3.553   6.563   1.044  0.3131  0.8484 -0.0316
  165MOL   C22039908   3.666   6.520   1.141  0.1802 -0.4787 -0.8278
  165MOL   C22139909   3.593   6.554   0.898 -0.2095 -0.2482 -0.8966
  165MOL   C22239910   3.603   6.693   0.834  0.6982 -0.8934 -0.5667
  165MOL   O22339911   3.701   6.713   0.764 -0.2777  0.2003 -0.0666
  165MOL   H22439912   3.531   6.667   1.071  0.5038  0.6910  0.7162
  165MOL   H22539913   3.757   6.564   1.100 -0.7674  0.7741 -1.6030
  165MOL   H22639914   3.675   6.412   1.131  2.3742 -0.1650 -2.7816
  165MOL   H22739915   3.644   6.551   1.243 -1.0857 -0.6475 -1.0421
  165MOL   H22839916   3.520   6.491   0.848  1.3133 -4.2241  1.6880
  165MOL   H22939917   3.681   6.495   0.872  1.0125  0.9661  0.3770
  165MOL   O23039918   3.495   6.770   0.845  0.7252 -0.3878  0.1628
  165MOL   C23139919   3.486   6.891   0.771  0.0098 -0.1368 -0.8087
  165MOL   C23239920   3.359   6.883   0.684 -0.0078 -0.7396  0.0306
  165MOL   C23339921   3.472   7.003   0.881 -0.7576  0.4593  0.4716
  165MOL   C23439922   3.326   7.007   0.925 -0.1149  0.2657 -0.8907
  165MOL   O23539923   3.255   7.105   0.892 -0.4852  0.3316 -0.2346
  165MOL   H23639924   3.578   6.919   0.720  0.3106  0.3563 -0.0113
  165MOL   H23739925   3.280   6.828   0.735  0.4945 -2.0377 -0.5632
  165MOL   H23839926   3.368   6.824   0.593  0.0499 -0.5382 -0.0937
  165MOL   H23939927   3.329   6.984   0.656  0.7326 -0.5193  0.0320
  165MOL   H24039928   3.506   7.097   0.838  0.6581 -0.6803 -0.9935
  165MOL   H24139929   3.539   6.987   0.965  0.6298 -2.8223 -1.1571
  165MOL   H24239930   3.282   6.929   0.987 -2.8993 -0.1380 -3.2250
  166MOL     O139931   5.788   3.330   4.908  0.2930  0.3627  0.2459
  166MOL     C239932   5.647   3.334   4.936 -0.0452 -0.4218 -0.5470
  166MOL     C339933   5.608   3.184   4.975  0.2133  0.3484  0.0861
  166MOL     C439934   5.603   3.419   5.049 -1.1276 -0.3713 -0.3649
  166MOL     C539935   5.459   3.461   5.039  0.1432  0.5719 -0.0935
  166MOL     O639936   5.427   3.557   4.968  0.5884  0.5600  0.1014
  166MOL     H739937   5.606   3.358   4.837  1.0016  0.4009 -0.7830
  166MOL     H839938   5.599   3.116   4.890 -1.1384 -0.5001  0.8803
  166MOL     H939939   5.507   3.162   5.011  0.5126 -1.3600 -0.0746
  166MOL    H1039940   5.671   3.140   5.053 -2.0903 -1.8075  0.8162
  166MOL    H1139941   5.664   3.509   5.058  0.5138 -1.3868 -1.0812
  166MOL    H1239942   5.624   3.369   5.144  2.5056  1.6280 -0.0068
  166MOL    H1339943   5.826   3.415   4.890  0.1644  0.2745 -0.4588
  166MOL    O1439944   5.369   3.382   5.107  0.5753  0.0482  0.4291
  166MOL    C1539945   5.233   3.416   5.112  0.1281 -0.2928  1.0739
  166MOL    C1639946   5.168   3.351   4.987 -0.0647 -0.3120  0.2291
  166MOL    C1739947   5.162   3.346   5.234 -0.2062 -1.0076  0.2085
  166MOL    C1839948   5.201   3.393   5.376 -0.4092  0.3647 -0.5647
  166MOL    O1939949   5.315   3.434   5.395 -0.2391 -0.3029 -0.1490
  166MOL    H2039950   5.225   3.525   5.114  1.2882 -0.1185 -1.5254
  166MOL    H2139951   5.220   3.268   4.938 -0.1728  0.0116 -0.4455
  166MOL    H2239952   5.175   3.423   4.905 -1.2928  1.3176  1.5388
  166MOL    H2339953   5.063   3.330   5.004 -0.4183  0.2479 -1.1870
  166MOL    H2439954   5.198   3.243   5.231 -1.2365 -1.3517 -1.2418
  166MOL    H2539955   5.055   3.363   5.229 -0.3460 -0.9051  3.0017
  166MOL    O2639956   5.104   3.375   5.467 -0.7439 -0.6149 -0.3755
  166MOL    C2739957   5.142   3.373   5.606  0.2853  0.4205  0.2849
  166MOL    C2839958   5.159   3.512   5.661 -1.0379 -0.4874  0.7582
  166MOL    C2939959   5.057   3.295   5.708 -0.2435 -0.0872  0.2783
  166MOL    C3039960   5.013   3.150   5.672  0.5507 -0.3019 -0.3617
  166MOL    O3139961   5.067   3.088   5.580  0.1985 -0.1709 -0.1239
  166MOL    H3239962   5.237   3.320   5.606  0.3458  0.4454 -2.2007
  166MOL    H3339963   5.235   3.565   5.604 -0.6532  0.5792  2.2249
  166MOL    H3439964   5.175   3.526   5.768 -1.4212  4.8119  0.2954
  166MOL    H3539965   5.058   3.546   5.637 -0.1876  0.8633 -1.0415
  166MOL    H3639966   4.964   3.351   5.712 -0.5682 -0.7354  2.3607
  166MOL    H3739967   5.102   3.313   5.805 -1.3849  0.4410  0.7209
  166MOL    O3839968   4.899   3.103   5.741  0.3529 -0.6195 -0.0736
  166MOL    C3939969   4.838   2.980   5.701  0.1662 -0.2400  0.4487
  166MOL    C4039970   4.874   2.875   5.803 -0.0967 -0.2904  0.3645
  166MOL    C4139971   4.686   3.008   5.702 -0.4705 -0.2262  1.0203
  166MOL    C4239972   4.641   3.111   5.595  0.2475  0.5586  0.3367
  166MOL    O4339973   4.586   3.215   5.629 -0.7451  0.3067 -0.6232
  166MOL    H4439974   4.866   2.944   5.602 -1.7139 -0.1752 -0.1317
  166MOL    H4539975   4.837   2.908   5.900 -2.3679  1.4109 -1.0398
  166MOL    H4639976   4.981   2.851   5.807  0.0641  0.5175  1.0498
  166MOL    H4739977   4.820   2.783   5.784  0.5274 -0.4303 -0.7504
  166MOL    H4839978   4.662   3.047   5.801  0.5046 -0.9131  1.5324
  166MOL    H4939979   4.630   2.916   5.690 -1.3340  0.3524  0.5989
  166MOL    O5039980   4.663   3.070   5.470  0.2812  0.1017  0.0380
  166MOL    C5139981   4.612   3.142   5.353  0.9490  0.0465 -0.2826
  166MOL    C5239982   4.721   3.171   5.247  0.0870 -0.0930  0.3534
  166MOL    C5339983   4.487   3.074   5.298 -0.1389  0.0755  0.1914
  166MOL    C5439984   4.415   3.158   5.199 -0.3236  0.0753 -0.1968
  166MOL    O5539985   4.401   3.125   5.077 -0.1088 -0.0327 -0.0132
  166MOL    H5639986   4.585   3.243   5.383  1.6568 -0.2764  1.4741
  166MOL    H5739987   4.677   3.228   5.165  0.3703  0.7302  0.7726
  166MOL    H5839988   4.763   3.075   5.218 -0.3044  0.1580 -1.1412
  166MOL    H5939989   4.802   3.226   5.294  2.5141 -1.3860 -2.1339
  166MOL    H6039990   4.412   3.059   5.376  0.1197 -2.9488 -0.0910
  166MOL    H6139991   4.501   2.972   5.263 -2.0311  0.0714 -0.6566
  166MOL    O6239992   4.371   3.271   5.255 -0.5647  0.4104  0.1299
  166MOL    C6339993   4.306   3.376   5.179  0.1468 -0.2810  0.2747
  166MOL    C6439994   4.205   3.447   5.281 -0.4098  0.4219  0.1532
  166MOL    C6539995   4.404   3.476   5.115  0.3829  0.0730  0.3176
  166MOL    C6639996   4.481   3.569   5.211  0.0936 -0.8181  0.0416
  166MOL    O6739997   4.461   3.693   5.211 -0.1945  0.1854  0.0917
  166MOL    H6839998   4.247   3.329   5.100  0.5084  1.6216 -1.1765
  166MOL    H6939999   4.126   3.380   5.314  0.1511 -0.4841 -0.3058
  166MOL    H7040000   4.151   3.530   5.237 -0.6895 -0.4372 -1.1504
  166MOL    H7140001   4.259   3.494   5.363  2.5775 -0.6041 -1.1376
  166MOL    H7240002   4.358   3.538   5.038  2.5096  1.4974  0.1771
  166MOL    H7340003   4.481   3.414   5.070 -0.2531 -0.3364 -0.2244
  166MOL    O7440004   4.586   3.509   5.268  0.4741  0.4627  0.0278
  166MOL    C7540005   4.689   3.577   5.341 -0.1086  0.2420  0.1019
  166MOL    C7640006   4.672   3.523   5.487  0.5536 -0.6991 -0.4042
  166MOL    C7740007   4.831   3.543   5.286  0.6491  0.1695  0.2546
  166MOL    C7840008   4.838   3.561   5.135  1.0280 -0.3575 -0.2141
  166MOL    O7940009   4.876   3.471   5.060 -0.6332  0.1688  0.3015
  166MOL    H8040010   4.687   3.686   5.344 -2.1377  0.2757 -1.4799
  166MOL    H8140011   4.658   3.416   5.498 -1.5992 -0.3698  0.2995
  166MOL    H8240012   4.579   3.562   5.529  1.7853  0.6155  1.1362
  166MOL    H8340013   4.762   3.545   5.545 -0.2373 -0.5945  0.8075
  166MOL    H8440014   4.857   3.440   5.311  0.6379  0.2107  0.4357
  166MOL    H8540015   4.903   3.606   5.338  0.2928  0.4080  0.4596
  166MOL    O8640016   4.789   3.684   5.101 -0.4028 -0.0850  0.2186
  166MOL    C8740017   4.779   3.722   4.970  0.1103 -0.0232  0.9832
  166MOL    C8840018   4.653   3.805   4.951  0.3795  0.0270 -0.3320
  166MOL    C8940019   4.910   3.788   4.927  0.0604  0.2321 -0.7198
  166MOL    C9040020   4.943   3.926   4.990  0.2698 -0.7309  0.3901
  166MOL    O9140021   4.880   3.976   5.077  0.1270  0.2513 -0.0877
  166MOL    H9240022   4.761   3.642   4.899  1.3075  0.9713 -0.4754
  166MOL    H9340023   4.569   3.752   4.998  2.7632 -1.4948  2.3695
  166MOL    H9440024   4.638   3.825   4.845  0.6616 -0.4433 -0.4607
  166MOL    H9540025   4.654   3.902   5.001  0.9611  0.6931 -1.6178
  166MOL    H9640026   4.905   3.804   4.819 -0.9482  0.2579 -0.6786
  166MOL    H9740027   4.989   3.715   4.940  1.1770  0.9970 -2.8937
  166MOL    O9840028   5.059   3.984   4.929  0.0596  0.3172  0.1191
  166MOL    C9940029   5.106   4.111   4.974 -0.8063 -0.0237 -0.2592
  166MOL   C10040030   5.250   4.085   5.033  0.9887  0.2719 -0.8613
  166MOL   C10140031   5.096   4.226   4.871  0.5890  0.2916  0.2288
  166MOL   C10240032   5.143   4.359   4.933 -0.9424  0.6603 -0.2459
  166MOL   O10340033   5.256   4.395   4.905  0.9454 -0.1983 -0.1732
  166MOL   H10440034   5.043   4.152   5.054  2.9173  3.5813  1.0036
  166MOL   H10540035   5.310   4.168   5.071  0.5027  0.0633  0.3751
  166MOL   H10640036   5.311   4.045   4.952  2.6434 -0.0408  0.5196
  166MOL   H10740037   5.229   4.004   5.103  1.0933 -0.0479 -1.1928
  166MOL   H10840038   4.999   4.225   4.821  0.8953  1.4148 -0.4049
  166MOL   H10940039   5.169   4.201   4.794 -1.4276 -1.8237 -1.0704
  166MOL   O11040040   5.060   4.420   5.020 -0.8575 -0.7640  0.2182
  166MOL   C11140041   5.088   4.542   5.077 -0.1755  0.6473  0.3263
  166MOL   C11240042   4.957   4.635   5.078  0.1622 -0.7657  0.1865
  166MOL   C11340043   5.148   4.534   5.222  0.2769  0.2648  0.0669
  166MOL   C11440044   5.041   4.496   5.324 -0.0968  0.3717 -0.3468
  166MOL   O11540045   4.979   4.578   5.394 -0.0223  0.4539 -0.6411
  166MOL   H11640046   5.167   4.592   5.021 -0.9538 -1.9852 -3.3182
  166MOL   H11740047   4.934   4.662   4.975  2.8125 -2.6391 -0.9294
  166MOL   H11840048   4.971   4.724   5.140  2.1724 -1.6240  1.0067
  166MOL   H11940049   4.867   4.579   5.106 -0.4757  0.3680  0.4724
  166MOL   H12040050   5.205   4.623   5.245 -0.8164  0.8533  0.5014
  166MOL   H12140051   5.217   4.450   5.212  0.0592  0.1792 -0.7933
  166MOL   O12240052   5.024   4.365   5.331  0.7219  0.3176 -0.5264
  166MOL   C12340053   4.922   4.299   5.412  0.2454 -0.0112  0.0732
  166MOL   C12440054   4.810   4.247   5.319  0.1773  0.0554 -0.4072
  166MOL   C12540055   4.997   4.182   5.490  0.8642 -0.0167 -0.3580
  166MOL   C12640056   5.091   4.229   5.602  0.5522 -0.3746 -1.2343
  166MOL   O12740057   5.052   4.219   5.723  0.1817  0.1945 -0.2659
  166MOL   H12840058   4.875   4.364   5.486  1.9894  0.2948  0.9355
  166MOL   H12940059   4.771   4.332   5.263  1.1864  1.0157  0.3324
  166MOL   H13040060   4.727   4.203   5.375 -1.5171  1.7397 -1.5321
  166MOL   H13140061   4.852   4.181   5.244 -3.1963 -0.9684 -1.5109
  166MOL   H13240062   5.047   4.120   5.415  1.4578 -0.8263  0.6966
  166MOL   H13340063   4.917   4.123   5.536  0.6534 -0.2474 -1.0072
  166MOL   O13440064   5.204   4.290   5.561  0.1392  0.5120 -0.2474
  166MOL   C13540065   5.298   4.319   5.666 -0.3852 -0.1642  0.2959
  166MOL   C13640066   5.389   4.203   5.713 -0.1622  0.0303  0.3264
  166MOL   C13740067   5.365   4.448   5.604 -0.4339  0.4109 -0.0757
  166MOL   C13840068   5.495   4.423   5.524  0.1466  0.0369  0.5012
  166MOL   O13940069   5.602   4.474   5.557 -0.0857 -0.0423  0.2924
  166MOL   H14040070   5.244   4.364   5.749 -1.1160  1.8130 -1.1985
  166MOL   H14140071   5.407   4.127   5.638 -2.8051 -0.4514  0.1375
  166MOL   H14240072   5.346   4.153   5.800  1.2998  1.0232  1.6459
  166MOL   H14340073   5.485   4.238   5.750 -0.4993  0.4135  0.8530
  166MOL   H14440074   5.391   4.517   5.684 -2.0383  0.3923  0.4653
  166MOL   H14540075   5.296   4.502   5.540 -1.0359  0.2145  0.4050
  166MOL   O14640076   5.460   4.357   5.413  0.5240 -0.0560  0.0303
  166MOL   C14740077   5.559   4.336   5.309  0.0071  0.4282 -0.1847
  166MOL   C14840078   5.589   4.194   5.292 -0.1432  1.2113 -0.6317
  166MOL   C14940079   5.514   4.396   5.176  0.4190 -0.1282  0.1648
  166MOL   C15040080   5.550   4.547   5.167 -0.1083  0.1419  0.1343
  166MOL   O15140081   5.660   4.582   5.122  0.5853  0.1845  0.4642
  166MOL   H15240082   5.653   4.384   5.338  0.8583 -1.3824  0.0781
  166MOL   H15340083   5.517   4.145   5.227  0.7196  0.7520 -1.2563
  166MOL   H15440084   5.593   4.149   5.391 -0.5506 -0.8254 -1.5137
  166MOL   H15540085   5.685   4.192   5.239  1.2530 -0.1862  1.8563
  166MOL   H15640086   5.405   4.392   5.170  0.5517 -1.0882 -2.4700
  166MOL   H15740087   5.556   4.361   5.081  1.9840 -0.2787  0.9022
  166MOL   O15840088   5.452   4.630   5.212  0.1280 -0.1689  0.3314
  166MOL   C15940089   5.464   4.774   5.196  0.2346 -0.5847 -0.3281
  166MOL   C16040090   5.343   4.833   5.137 -0.2263 -0.1287  0.7306
  166MOL   C16140091   5.497   4.846   5.328  0.3481  0.1883 -1.2454
  166MOL   C16240092   5.389   4.833   5.442 -0.0594 -0.3580 -0.1538
  166MOL   O16340093   5.362   4.728   5.488 -0.2497  0.3879 -0.0373
  166MOL   H16440094   5.543   4.807   5.129 -0.3482 -0.6314 -1.0385
  166MOL   H16540095   5.364   4.940   5.130 -0.3596 -0.0609  1.3967
  166MOL   H16640096   5.243   4.824   5.179 -1.2088  0.2862 -1.4361
  166MOL   H16740097   5.324   4.807   5.033  0.1156  0.9448  0.3932
  166MOL   H16840098   5.514   4.953   5.315 -1.4945  0.4541 -1.5560
  166MOL   H16940099   5.590   4.805   5.368 -0.3275 -0.6018 -0.4536
  166MOL   O17040100   5.310   4.944   5.467  0.4000  0.1934  0.1354
  166MOL   C17140101   5.198   4.933   5.554 -0.1873  0.7435 -0.0701
  166MOL   C17240102   5.174   5.065   5.626 -0.9167 -0.1912  0.6423
  166MOL   C17340103   5.078   4.875   5.478 -0.0294 -0.0341  0.3603
  166MOL   C17440104   5.010   4.977   5.387 -1.2212  0.0808 -0.4362
  166MOL   O17540105   4.899   5.016   5.416 -0.0126  0.1914 -0.5583
  166MOL   H17640106   5.217   4.861   5.634  0.0323  3.4510  2.4128
  166MOL   H17740107   5.250   5.079   5.702 -0.2103 -0.5739  0.0108
  166MOL   H17840108   5.082   5.065   5.686 -0.5842 -0.6959  1.1532
  166MOL   H17940109   5.172   5.151   5.560  3.5956 -0.8120 -0.4509
  166MOL   H18040110   4.998   4.839   5.542 -1.1466 -2.0427 -2.1028
  166MOL   H18140111   5.116   4.787   5.427  0.1445 -1.8869  3.5486
  166MOL   O18240112   5.087   5.017   5.281  0.2857  0.2507  0.2390
  166MOL   C18340113   5.028   5.110   5.187  0.3597  0.5170 -0.2974
  166MOL   C18440114   5.138   5.188   5.117 -0.0040  0.6805 -0.1467
  166MOL   C18540115   4.933   5.043   5.087  0.3151 -0.1794  0.1902
  166MOL   C18640116   4.869   5.147   4.997  0.1059  0.1383 -0.4423
  166MOL   O18740117   4.910   5.163   4.883  0.2596 -0.1941  0.2778
  166MOL   H18840118   4.978   5.190   5.243 -1.0186 -1.5906  1.5549
  166MOL   H18940119   5.098   5.279   5.070 -0.1994  0.7233  0.1024
  166MOL   H19040120   5.167   5.134   5.027  3.2394  2.5656 -0.3218
  166MOL   H19140121   5.225   5.221   5.173  0.2529  0.8989 -0.6630
  166MOL   H19240122   4.858   4.979   5.134 -0.2599  0.1782 -0.2405
  166MOL   H19340123   4.990   4.981   5.018 -0.3201 -0.6161  0.0537
  166MOL   O19440124   4.762   5.210   5.057  0.2252  0.1812  0.1681
  166MOL   C19540125   4.696   5.320   4.991  0.5894  0.2251 -0.2134
  166MOL   C19640126   4.550   5.316   5.050 -0.3718 -0.2002  0.2443
  166MOL   C19740127   4.772   5.453   5.003  0.4069  0.4289 -0.2249
  166MOL   C19840128   4.709   5.565   4.920  0.7862  0.0852  0.2895
  166MOL   O19940129   4.686   5.546   4.802  0.2116 -0.4909  0.2462
  166MOL   H20040130   4.680   5.304   4.884  3.4305 -1.1685 -0.4547
  166MOL   H20140131   4.485   5.387   4.999 -1.0738 -1.3216 -0.4332
  166MOL   H20240132   4.548   5.334   5.157  0.0693 -0.2761  0.2687
  166MOL   H20340133   4.497   5.224   5.025 -0.3177  0.1206 -1.1226
  166MOL   H20440134   4.873   5.443   4.964  1.4794  0.1606  2.5414
  166MOL   H20540135   4.777   5.490   5.106  1.1032 -0.0575 -0.0883
  166MOL   O20640136   4.677   5.670   5.001  0.4795 -0.5831  0.1922
  166MOL   C20740137   4.637   5.798   4.951  0.5815 -0.7573  1.5340
  166MOL   C20840138   4.487   5.804   4.966 -1.4144 -0.2636 -0.1076
  166MOL   C20940139   4.701   5.915   5.028 -0.5985 -0.0382  0.3329
  166MOL   C21040140   4.813   5.984   4.950 -0.3906 -0.4601 -0.1053
  166MOL   O21140141   4.877   5.935   4.858  0.8509 -0.4182 -0.3910
  166MOL   H21240142   4.666   5.805   4.846 -2.3816 -1.9720  0.6064
  166MOL   H21340143   4.457   5.797   5.071 -0.4242 -0.8302  0.1447
  166MOL   H21440144   4.446   5.729   4.899 -0.8008 -1.4033  0.7854
  166MOL   H21540145   4.450   5.903   4.941 -1.6427  0.1386  1.7377
  166MOL   H21640146   4.738   5.887   5.127 -0.8365 -2.5647 -0.2539
  166MOL   H21740147   4.633   5.997   5.053  1.0305  2.1361 -2.1091
  166MOL   O21840148   4.819   6.112   4.991 -0.1329 -0.3246  0.2998
  166MOL   C21940149   4.911   6.201   4.938 -0.3843 -0.0556  0.2292
  166MOL   C22040150   4.831   6.282   4.836  0.0973  0.5329 -0.5360
  166MOL   C22140151   4.974   6.295   5.042  0.1188 -0.0698 -0.4768
  166MOL   C22240152   5.061   6.231   5.150 -0.5224  0.2136  0.0787
  166MOL   O22340153   5.041   6.259   5.266 -0.0706  0.3602 -0.5598
  166MOL   H22440154   4.986   6.140   4.888 -2.1341 -1.9882 -0.1401
  166MOL   H22540155   4.787   6.228   4.752  0.1351  0.4748 -0.5185
  166MOL   H22640156   4.894   6.352   4.781  0.6805  0.4075 -0.0410
  166MOL   H22740157   4.747   6.335   4.880  0.1179  0.3403 -0.2670
  166MOL   H22840158   4.878   6.330   5.079 -0.3607  0.4130 -2.1719
  166MOL   H22940159   5.021   6.380   4.992  1.5237 -1.8015 -2.1894
  166MOL   O23040160   5.176   6.158   5.106 -0.2834 -0.4886  0.1967
  166MOL   C23140161   5.286   6.139   5.192 -0.0978 -0.0637  0.8014
  166MOL   C23240162   5.338   5.997   5.168 -0.3451 -0.1166 -0.0206
  166MOL   C23340163   5.379   6.255   5.153 -0.1430 -0.1074  0.6723
  166MOL   C23440164   5.517   6.263   5.209 -0.1088 -0.0692  0.3311
  166MOL   O23540165   5.607   6.198   5.166 -0.1692  0.2714 -0.2240
  166MOL   H23640166   5.245   6.152   5.293  2.0883  1.9882  1.4614
  166MOL   H23740167   5.262   5.919   5.171 -0.0963 -0.3179  1.2942
  166MOL   H23840168   5.420   5.978   5.237 -1.4451 -1.9446  0.8196
  166MOL   H23940169   5.389   5.991   5.072  0.6467 -0.5020  0.5261
  166MOL   H24040170   5.322   6.345   5.176  2.1871  1.7245 -0.4944
  166MOL   H24140171   5.384   6.248   5.044 -0.1848 -0.2165  0.6765
  166MOL   H24240172   5.529   6.338   5.288 -1.5973  0.8956 -0.3485
  167MOL     O140173   5.925   3.991   2.979 -0.2928 -0.2742  0.2247
  167MOL     C240174   5.948   3.856   2.937  0.5732 -0.3753 -0.0447
  167MOL     C340175   5.822   3.796   2.994 -0.9869 -0.4404  0.3956
  167MOL     C440176   5.965   3.828   2.789 -0.9681  0.9580  0.4925
  167MOL     C540177   6.110   3.832   2.731  0.0545  0.5378 -0.2335
  167MOL     O640178   6.135   3.881   2.618 -0.3990  0.2913 -0.0169
  167MOL     H740179   6.039   3.829   2.991  0.9879 -0.4404 -0.7830
  167MOL     H840180   5.827   3.688   2.977 -0.3256 -0.5254  1.1006
  167MOL     H940181   5.738   3.849   2.950 -1.3718  0.8863  2.6505
  167MOL    H1040182   5.824   3.808   3.102  0.7675 -1.2982  0.4796
  167MOL    H1140183   5.900   3.895   2.732  1.6497  0.5855 -3.0633
  167MOL    H1240184   5.947   3.723   2.766  2.7451  0.2197  0.6824
  167MOL    H1340185   5.977   4.005   3.056 -1.3451  1.2162  0.6819
  167MOL    O1440186   6.204   3.783   2.813  0.2464  0.5343 -0.4000
  167MOL    C1540187   6.342   3.816   2.804  0.4739  0.5115 -0.0127
  167MOL    C1640188   6.390   3.881   2.938  0.2687 -0.1618 -0.0652
  167MOL    C1740189   6.417   3.682   2.759 -0.2353 -0.0532 -0.2667
  167MOL    C1840190   6.562   3.674   2.708  0.0535  0.2552  0.1743
  167MOL    O1940191   6.627   3.776   2.682 -0.2739 -0.5780 -0.7902
  167MOL    H2040192   6.365   3.885   2.723 -0.3049  1.8337  0.8647
  167MOL    H2140193   6.328   3.967   2.963 -0.8197 -0.9653  0.0371
  167MOL    H2240194   6.495   3.910   2.940  0.1244  0.3001  2.2586
  167MOL    H2340195   6.372   3.801   3.010 -1.5695  1.4663  1.3428
  167MOL    H2440196   6.361   3.633   2.678 -0.5447 -0.9321  0.4670
  167MOL    H2540197   6.402   3.610   2.840 -1.9688  2.2443  1.5140
  167MOL    O2640198   6.603   3.547   2.693 -0.1895 -0.5887 -0.0203
  167MOL    C2740199   6.747   3.529   2.650  0.1444 -0.6750  0.2154
  167MOL    C2840200   6.800   3.415   2.736  0.4123  0.5511  0.2128
  167MOL    C2940201   6.724   3.505   2.498  0.0146 -0.2557 -0.7422
  167MOL    C3040202   6.868   3.497   2.431  0.2489  0.0632  0.2801
  167MOL    O3140203   6.919   3.393   2.399  0.2900 -0.3436 -0.4985
  167MOL    H3240204   6.803   3.618   2.679  2.3213 -1.0615 -2.5918
  167MOL    H3340205   6.742   3.323   2.744 -0.4068  0.8732 -1.7975
  167MOL    H3440206   6.826   3.460   2.832 -0.6783  1.1752  0.2215
  167MOL    H3540207   6.897   3.390   2.692 -0.6366 -1.3131 -1.1053
  167MOL    H3640208   6.676   3.597   2.466 -2.0070 -0.5989  1.1347
  167MOL    H3740209   6.671   3.417   2.463  0.4568 -0.6593 -0.4005
  167MOL    O3840210   6.925   3.616   2.416  0.2286  0.1993  0.0154
  167MOL    C3940211   7.061   3.630   2.360 -0.4492 -0.2401 -0.8157
  167MOL    C4040212   7.062   3.624   2.210  0.7615 -0.0305  0.5231
  167MOL    C4140213   7.128   3.755   2.411  0.2795 -0.4239  0.1271
  167MOL    C4240214   7.269   3.730   2.452 -0.0654 -0.1004 -1.1476
  167MOL    O4340215   7.298   3.707   2.567 -1.1596 -0.3896 -0.0032
  167MOL    H4440216   7.123   3.544   2.388 -0.7509 -0.6001 -1.2464
  167MOL    H4540217   7.157   3.604   2.160 -0.6876 -0.5778 -2.0926
  167MOL    H4640218   7.012   3.709   2.164  1.4653  0.9913  1.6224
  167MOL    H4740219   7.010   3.533   2.181  1.6907 -0.7232  1.0275
  167MOL    H4840220   7.071   3.777   2.501 -1.2622  1.4107 -1.2477
  167MOL    H4940221   7.112   3.843   2.348  0.5453  1.6390  2.8718
  167MOL    O5040222   7.358   3.745   2.347  0.2394  0.4579  0.0478
  167MOL    C5140223   7.499   3.736   2.367 -0.7437 -0.2827 -0.1103
  167MOL    C5240224   7.541   3.652   2.243  0.5412 -0.5476 -0.5963
  167MOL    C5340225   7.580   3.874   2.377 -0.0455 -0.3298 -0.1120
  167MOL    C5440226   7.572   3.924   2.518 -0.3229  0.0997 -0.2257
  167MOL    O5540227   7.486   3.994   2.566  0.1840  0.1642  0.1172
  167MOL    H5640228   7.521   3.670   2.452 -1.4400 -2.4262 -1.5587
  167MOL    H5740229   7.647   3.631   2.258  0.6403 -0.4871 -1.2081
  167MOL    H5840230   7.533   3.720   2.158 -2.5813  1.1578  0.9725
  167MOL    H5940231   7.483   3.565   2.214 -0.9592  0.2057  0.0652
  167MOL    H6040232   7.535   3.952   2.314 -0.5080  0.8309  1.6196
  167MOL    H6140233   7.683   3.857   2.348  0.1597  0.6824 -0.0006
  167MOL    O6240234   7.685   3.893   2.584 -0.2985 -0.1678 -0.3681
  167MOL    C6340235   7.711   3.937   2.719  0.2332  0.0025 -0.1372
  167MOL    C6440236   7.745   3.808   2.792 -0.1046  0.8801  0.5878
  167MOL    C6540237   7.826   4.043   2.733  0.0029 -0.5793 -0.0741
  167MOL    C6640238   7.783   4.180   2.701 -0.2819  0.1222 -0.5842
  167MOL    O6740239   7.801   4.273   2.779 -0.5915  0.3047 -0.5047
  167MOL    H6840240   7.623   3.972   2.771  0.8225  1.9115 -0.4031
  167MOL    H6940241   7.730   3.819   2.900  3.2259 -0.6750  1.2579
  167MOL    H7040242   7.842   3.768   2.765 -1.0939 -2.0630  1.1675
  167MOL    H7140243   7.670   3.734   2.765  0.9130 -1.1758  3.2102
  167MOL    H7240244   7.905   4.021   2.661  0.1502 -0.6483  0.1062
  167MOL    H7340245   7.870   4.035   2.833  1.0049  0.2014 -0.4413
  167MOL    O7440246   7.738   4.192   2.578 -0.5124  0.3255 -0.0910
  167MOL    C7540247   7.692   4.317   2.529 -0.2218  0.1630  0.3416
  167MOL    C7640248   7.814   4.385   2.462  0.4390  0.2373  0.4852
  167MOL    C7740249   7.583   4.301   2.416 -0.5952  0.1198 -0.0884
  167MOL    C7840250   7.489   4.421   2.390 -0.1686  0.1159  0.4440
  167MOL    O7940251   7.501   4.526   2.459 -0.3027  0.3348  0.3814
  167MOL    H8040252   7.656   4.373   2.616  2.5192  2.0322  0.3469
  167MOL    H8140253   7.888   4.430   2.528  1.1534 -2.4046  1.5309
  167MOL    H8240254   7.770   4.457   2.392  0.9644 -0.3740 -0.4711
  167MOL    H8340255   7.862   4.314   2.396  0.3165  0.6887 -0.0957
  167MOL    H8440256   7.522   4.213   2.437  0.3747  0.0065  2.4751
  167MOL    H8540257   7.637   4.289   2.322  0.5125  1.6596  0.3309
  167MOL    O8640258   7.401   4.391   2.290 -0.4633  0.0576 -0.0767
  167MOL    C8740259   7.303   4.484   2.254  0.0807  0.4319  0.1557
  167MOL    C8840260   7.315   4.500   2.103  0.4936 -0.6771 -0.1546
  167MOL    C8940261   7.162   4.450   2.301 -0.3514  0.6835  0.3168
  167MOL    C9040262   7.116   4.305   2.286  0.1803  0.0254  0.6785
  167MOL    O9140263   7.048   4.249   2.374 -1.6449  0.3588  0.2185
  167MOL    H9240264   7.340   4.573   2.305  0.2784 -0.2819  1.2654
  167MOL    H9340265   7.313   4.404   2.051  0.7412 -1.4470  1.2307
  167MOL    H9440266   7.409   4.538   2.063 -1.2015  0.6907 -3.0093
  167MOL    H9540267   7.228   4.548   2.059  0.3985 -0.0701  0.6768
  167MOL    H9640268   7.092   4.529   2.275 -1.7237 -0.6724 -0.1830
  167MOL    H9740269   7.162   4.460   2.410  0.8552  2.3667  0.1806
  167MOL    O9840270   7.156   4.241   2.164  0.3976  0.0852  0.4115
  167MOL    C9940271   7.110   4.112   2.130 -0.1042 -0.7036  0.2431
  167MOL   C10040272   7.043   4.116   1.987  0.3947  0.2442 -0.8731
  167MOL   C10140273   7.233   4.021   2.143 -0.2444  0.2144 -0.0575
  167MOL   C10240274   7.332   4.027   2.032 -0.7090 -0.5117 -0.5730
  167MOL   O10340275   7.347   3.934   1.949  0.1478 -0.0596  0.2820
  167MOL   H10440276   7.040   4.066   2.200 -0.0538 -0.6277  0.3436
  167MOL   H10540277   6.984   4.029   1.961 -1.1807  1.1827 -0.5165
  167MOL   H10640278   7.111   4.132   1.903  0.6993 -1.4017 -0.9607
  167MOL   H10740279   6.977   4.202   1.975 -0.1737 -0.1760 -0.7314
  167MOL   H10840280   7.194   3.920   2.152  1.0886 -0.3552 -0.6244
  167MOL   H10940281   7.292   4.033   2.234  1.8105 -1.0796 -1.1895
  167MOL   O11040282   7.404   4.148   2.029 -0.3498  0.3042  0.6517
  167MOL   C11140283   7.519   4.157   1.946  0.6551 -0.0040  0.7151
  167MOL   C11240284   7.487   4.238   1.823  0.6077 -0.7959  0.3275
  167MOL   C11340285   7.644   4.206   2.026 -0.2622  0.3197 -0.6588
  167MOL   C11440286   7.729   4.088   2.081  0.4962 -0.1556  0.3738
  167MOL   O11540287   7.705   3.969   2.040  0.5028 -0.4021 -0.1235
  167MOL   H11640288   7.541   4.058   1.904 -2.4092  0.2238 -1.5741
  167MOL   H11740289   7.402   4.190   1.775  0.7112 -0.2284 -0.4306
  167MOL   H11840290   7.571   4.255   1.756 -1.5931  0.5494 -2.1928
  167MOL   H11940291   7.457   4.339   1.853 -0.9433 -0.5311 -1.9829
  167MOL   H12040292   7.614   4.255   2.118 -1.0123  0.8886 -1.1984
  167MOL   H12140293   7.703   4.276   1.967 -1.1225  1.0291 -0.6840
  167MOL   O12240294   7.825   4.129   2.170 -0.1860 -0.3533 -0.0460
  167MOL   C12340295   7.927   4.040   2.208 -0.5705  0.7479 -0.4185
  167MOL   C12440296   0.067   4.115   2.153 -0.2099 -0.3961  1.0186
  167MOL   C12540297   7.928   4.029   2.360 -0.1357  0.4948 -0.3780
  167MOL   C12640298   0.051   3.925   2.403 -1.0163  0.2770 -0.1190
  167MOL   O12740299   0.158   3.951   2.453 -0.1999  0.3549  0.0464
  167MOL   H12840300   7.905   3.946   2.157  0.1668 -0.0646  0.7118
  167MOL   H12940301   0.082   4.209   2.207  0.2165  0.2629 -0.2220
  167MOL   H13040302   0.052   4.144   2.049  0.8459  1.0341  1.2450
  167MOL   H13140303   0.156   4.053   2.156  0.0083 -0.1584 -0.0681
  167MOL   H13240304   7.840   3.998   2.415  0.0313 -0.8863 -0.8725
  167MOL   H13340305   7.942   4.132   2.394 -0.9360 -0.0909  1.8016
  167MOL   O13440306   0.008   3.802   2.377 -0.2289 -0.6494  0.4533
  167MOL   C13540307   0.077   3.683   2.418 -0.2416  0.4337 -0.1000
  167MOL   C13640308   0.007   3.638   2.548  0.2974 -0.2472  0.1271
  167MOL   C13740309   0.067   3.571   2.314  0.3115  0.3832  0.5237
  167MOL   C13840310   0.163   3.454   2.333 -0.5367  0.4783  0.3879
  167MOL   O13940311   0.268   3.450   2.271 -0.3079 -0.2525  0.1943
  167MOL   H14040312   0.181   3.708   2.435  1.0503 -3.5492 -1.5539
  167MOL   H14140313   0.011   3.726   2.612 -2.7584  0.2971 -0.3572
  167MOL   H14240314   0.064   3.559   2.598  1.6643 -0.7388 -2.1449
  167MOL   H14340315   7.881   3.611   2.538  0.3439 -0.9718  1.3979
  167MOL   H14440316   0.074   3.615   2.214 -1.4252 -0.8007 -0.1546
  167MOL   H14540317   7.950   3.521   2.314 -0.8415  2.5234  0.2590
  167MOL   O14640318   0.118   3.358   2.415  0.7514 -0.3994 -0.4667
  167MOL   C14740319   0.209   3.254   2.460 -0.2649  0.1759  0.1094
  167MOL   C14840320   0.222   3.262   2.607 -0.2456  0.0987  0.9164
  167MOL   C14940321   0.159   3.115   2.421 -0.0012  0.3374 -0.1959
  167MOL   C15040322   0.163   3.087   2.272 -0.1165 -0.6550 -0.2596
  167MOL   O15140323   0.062   3.037   2.224  0.3571  0.4084  0.5934
  167MOL   H15240324   0.307   3.265   2.414  0.4466 -1.2150  1.2614
  167MOL   H15340325   0.127   3.236   2.655 -1.2741 -0.4466 -1.3479
  167MOL   H15440326   0.250   3.366   2.625 -1.5604  0.4151  1.1826
  167MOL   H15540327   0.294   3.190   2.646  0.6514  0.0061 -0.8917
  167MOL   H15640328   0.058   3.099   2.459 -0.4205  0.3072 -1.3061
  167MOL   H15740329   0.224   3.038   2.462  0.4115  0.9425  0.2943
  167MOL   O15840330   0.280   3.096   2.210 -0.0045 -0.6690 -0.2215
  167MOL   C15940331   0.299   3.086   2.072  0.2876  1.5826  0.2667
  167MOL   C16040332   0.412   3.178   2.018  0.2821  0.1467 -0.7384
  167MOL   C16140333   0.318   2.937   2.036 -0.9451  0.0043  0.9044
  167MOL   C16240334   0.315   2.905   1.879  0.8422 -0.0022 -0.3920
  167MOL   O16340335   0.291   2.995   1.793  0.2714 -0.3033 -0.1949
  167MOL   H16440336   0.214   3.115   2.012  0.9609 -1.9615 -2.5751
  167MOL   H16540337   0.420   3.190   1.910  0.1353  1.0191 -0.6571
  167MOL   H16640338   0.501   3.134   2.061 -0.7531 -0.5824  0.7079
  167MOL   H16740339   0.401   3.276   2.066 -1.1863 -0.9285  1.2379
  167MOL   H16840340   0.230   2.883   2.070 -0.2590 -2.0273 -0.4518
  167MOL   H16940341   0.413   2.894   2.066  1.0865  2.5381 -1.5736
  167MOL   O17040342   0.332   2.772   1.851  0.3710 -0.3145  0.4836
  167MOL   C17140343   0.334   2.723   1.725 -0.2238  1.0190  0.0837
  167MOL   C17240344   0.480   2.692   1.693  0.0532 -0.7726  0.0321
  167MOL   C17340345   0.254   2.595   1.697 -0.1395 -0.3943  0.1780
  167MOL   C17440346   0.104   2.621   1.677  0.4068  0.1470  0.2796
  167MOL   O17540347   0.057   2.584   1.571  0.4780 -0.2753  0.0009
  167MOL   H17640348   0.300   2.795   1.650 -0.2781 -0.8950 -1.7859
  167MOL   H17740349   0.512   2.598   1.738  0.1076 -0.0070  1.6570
  167MOL   H17840350   0.547   2.763   1.741  0.3629 -1.3377  0.4334
  167MOL   H17940351   0.497   2.694   1.586 -1.8629  0.3027 -0.2702
  167MOL   H18040352   0.262   2.520   1.776 -1.7392  1.5775  2.2626
  167MOL   H18140353   0.291   2.545   1.608  0.0401 -2.0062  1.1376
  167MOL   O18240354   0.042   2.660   1.794  0.1551 -0.2688 -0.1687
  167MOL   C18340355   7.878   2.680   1.803 -0.2660 -0.1851  0.0715
  167MOL   C18440356   7.800   2.569   1.882  0.1327 -0.0655 -0.1862
  167MOL   C18540357   7.846   2.822   1.857  0.4974  0.3265  0.1503
  167MOL   C18640358   7.913   2.940   1.779 -0.4269 -0.6565  0.1681
  167MOL   O18740359   0.022   3.013   1.826 -0.7886 -0.0446  0.2299
  167MOL   H18840360   7.839   2.675   1.701 -1.1077  0.9757  0.3367
  167MOL   H18940361   7.831   2.473   1.842  0.2680  0.3636 -1.1080
  167MOL   H19040362   7.693   2.584   1.866  0.2407  1.6977  0.5958
  167MOL   H19140363   7.830   2.573   1.987 -0.1656 -0.6812 -0.0722
  167MOL   H19240364   7.885   2.831   1.959 -0.3044  1.1361  0.3858
  167MOL   H19340365   7.741   2.836   1.833  0.4815 -2.8968 -1.9910
  167MOL   O19440366   7.865   2.958   1.655 -0.0533 -0.4704  0.2490
  167MOL   C19540367   7.932   3.038   1.558  0.5206  0.2703 -0.0787
  167MOL   C19640368   7.971   2.939   1.442  0.0576  0.4082 -0.2274
  167MOL   C19740369   7.841   3.157   1.517 -0.7094 -0.6207 -0.3173
  167MOL   C19840370   7.909   3.241   1.414 -0.7161  0.4376 -0.1525
  167MOL   O19940371   7.871   3.245   1.298 -0.2650  0.0859 -0.0183
  167MOL   H20040372   0.039   3.088   1.602  0.6779 -1.1842  1.3162
  167MOL   H20140373   0.065   2.865   1.475 -0.0209 -0.0007 -0.9583
  167MOL   H20240374   0.034   2.987   1.354  2.4594  1.8220  1.6350
  167MOL   H20340375   7.878   2.891   1.411 -0.8097  1.7961  0.2182
  167MOL   H20440376   7.807   3.208   1.607  0.8101 -0.6003  0.2636
  167MOL   H20540377   7.748   3.129   1.468 -2.3392  0.7380  1.9499
  167MOL   O20640378   0.028   3.317   1.465 -0.1276 -0.1693  0.4768
  167MOL   C20740379   0.098   3.416   1.385 -0.0556 -0.1326  0.4714
  167MOL   C20840380   0.161   3.512   1.480  0.5474 -0.7166  0.3169
  167MOL   C20940381   0.189   3.367   1.268  0.3554  0.4094 -0.4784
  167MOL   C21040382   0.322   3.311   1.302  0.4083  0.2579  0.4436
  167MOL   O21140383   0.405   3.384   1.360 -0.2316  0.1707  0.3059
  167MOL   H21240384   0.024   3.474   1.331  1.8834  0.0518 -2.1356
  167MOL   H21340385   0.220   3.589   1.431 -0.2935  0.8588  1.6931
  167MOL   H21440386   0.241   3.462   1.535 -1.6629 -3.4475  1.2086
  167MOL   H21540387   0.102   3.566   1.554  1.3651 -0.9924  1.1789
  167MOL   H21640388   0.208   3.457   1.210 -1.4975  1.5580  0.6702
  167MOL   H21740389   0.125   3.298   1.212 -1.3355 -0.7212  2.6818
  167MOL   O21840390   0.337   3.184   1.267  0.4769  0.3874  0.1728
  167MOL   C21940391   0.456   3.113   1.297 -0.2222  0.2029  0.1380
  167MOL   C22040392   0.447   3.062   1.440 -0.6628  0.2307 -0.1453
  167MOL   C22140393   0.470   3.003   1.184  0.0673  0.7861  0.5122
  167MOL   C22240394   0.485   3.056   1.039  0.1047  0.5839 -0.3262
  167MOL   O22340395   0.501   3.175   1.023  0.4123 -0.1516  0.4687
  167MOL   H22440396   0.536   3.186   1.285 -0.9369  1.0790  0.6375
  167MOL   H22540397   0.548   3.028   1.465 -0.4331  1.8655  1.2017
  167MOL   H22640398   0.383   2.974   1.446 -0.0946 -0.3090 -1.5722
  167MOL   H22740399   0.400   3.142   1.497 -0.8358  0.4220 -0.5560
  167MOL   H22840400   0.370   2.960   1.178 -0.9246  2.9187  1.0973
  167MOL   H22940401   0.525   2.913   1.210  1.9077  1.5051 -0.7072
  167MOL   O23040402   0.489   2.960   0.942  0.1366 -0.1993  0.2418
  167MOL   C23140403   0.529   2.981   0.806 -0.2272  0.6585  0.5754
  167MOL   C23240404   0.609   2.855   0.758  0.2234  0.1471 -0.0097
  167MOL   C23340405   0.401   3.005   0.717  0.4611  0.1532 -0.4529
  167MOL   C23440406   0.440   3.036   0.576  0.5284 -0.5853 -0.2914
  167MOL   O23540407   0.442   2.949   0.489  0.2271 -0.1419  0.3346
  167MOL   H23640408   0.592   3.068   0.796  0.0750  0.5089  1.1899
  167MOL   H23740409   0.554   2.762   0.744 -0.4417  0.3816  0.9568
  167MOL   H23840410   0.692   2.825   0.822 -0.5850 -2.8265 -0.2738
  167MOL   H23940411   0.650   2.880   0.661 -1.7702  0.1261 -0.8910
  167MOL   H24040412   0.354   3.094   0.760 -1.5346 -0.0712 -2.1302
  167MOL   H24140413   0.325   2.927   0.716 -0.9271  1.3682  2.4677
  167MOL   H24240414   0.473   3.137   0.554  0.4451 -0.6384 -0.6764
  168MOL     O140415   3.150   4.131   1.712  0.9496 -0.7084 -0.5333
  168MOL     C240416   3.097   4.169   1.589 -0.2566  0.3718  0.3080
  168MOL     C340417   3.040   4.320   1.607 -0.4503  0.5108  0.1352
  168MOL     C440418   3.207   4.154   1.481  0.1998 -0.4745  0.0623
  168MOL     C540419   3.152   4.161   1.337  0.3253 -0.0694  0.3155
  168MOL     O640420   3.149   4.270   1.280 -0.6176  0.5086  0.0540
  168MOL     H740421   3.014   4.102   1.569 -0.3057  0.8174 -0.9971
  168MOL     H840422   2.957   4.316   1.677 -1.0298  2.6370 -0.4086
  168MOL     H940423   3.002   4.360   1.514 -1.4439 -1.4906 -0.3637
  168MOL    H1040424   3.122   4.383   1.642 -0.2544  0.0982  0.4370
  168MOL    H1140425   3.256   4.057   1.487 -1.2793 -1.1828  1.0379
  168MOL    H1240426   3.289   4.225   1.496  1.1622 -1.6913  0.6038
  168MOL    H1340427   3.212   4.198   1.735 -0.6334  0.5050  0.3573
  168MOL    O1440428   3.104   4.038   1.297 -0.3106 -0.7151 -0.0073
  168MOL    C1540429   3.027   4.022   1.180  0.1411 -0.3449  0.1842
  168MOL    C1640430   3.111   3.978   1.065  0.0627 -0.0031  0.3616
  168MOL    C1740431   2.904   3.926   1.200 -0.9890 -0.8030 -0.7477
  168MOL    C1840432   2.945   3.782   1.207  0.1294  0.1470 -0.1539
  168MOL    O1940433   3.045   3.748   1.262  0.1690 -0.2683  0.1752
  168MOL    H2040434   2.978   4.114   1.148 -0.3419 -0.3414  0.9270
  168MOL    H2140435   3.199   4.040   1.048 -0.5170  0.4372 -1.1383
  168MOL    H2240436   3.055   3.973   0.971  0.1060 -1.7920  0.4061
  168MOL    H2340437   3.147   3.877   1.084  0.1633  0.1960  1.2103
  168MOL    H2440438   2.820   3.943   1.133  0.3645  0.9272 -2.0522
  168MOL    H2540439   2.872   3.952   1.301  0.2931  1.2669 -0.8572
  168MOL    O2640440   2.839   3.700   1.162 -0.2233 -0.1593 -0.4106
  168MOL    C2740441   2.856   3.558   1.166 -0.3041 -0.1653 -0.1527
  168MOL    C2840442   2.796   3.502   1.295  0.1151 -0.0309  0.3017
  168MOL    C2940443   2.785   3.491   1.047 -0.3184 -0.4404 -0.3619
  168MOL    C3040444   2.862   3.506   0.923  0.6588 -0.2154 -0.3994
  168MOL    O3140445   2.883   3.618   0.872 -0.5647 -0.0215  0.1464
  168MOL    H3240446   2.962   3.535   1.168 -0.5394 -1.2240  0.8818
  168MOL    H3340447   2.689   3.516   1.309  0.1570 -1.0160  1.7081
  168MOL    H3440448   2.834   3.560   1.379 -1.9108  0.8717  0.6228
  168MOL    H3540449   2.822   3.396   1.300  1.2034  0.2115 -0.1206
  168MOL    H3640450   2.682   3.518   1.022  0.1845 -0.0976 -2.1232
  168MOL    H3740451   2.787   3.385   1.072 -0.6848  0.2033  2.5387
  168MOL    O3840452   2.886   3.388   0.871 -0.1911 -0.3380 -0.1475
  168MOL    C3940453   2.956   3.368   0.753 -0.1895  0.3895 -0.5558
  168MOL    C4040454   2.991   3.213   0.740  1.0622  0.1434  0.3197
  168MOL    C4140455   2.866   3.422   0.633 -0.1892  0.1983  0.4233
  168MOL    C4240456   2.938   3.443   0.499 -0.2424  0.6826  0.2377
  168MOL    O4340457   3.036   3.376   0.462  0.4904 -0.2063 -0.0826
  168MOL    H4440458   3.050   3.424   0.754 -0.0306  0.1512 -1.8063
  168MOL    H4540459   3.051   3.187   0.652 -2.5861 -2.3896 -1.5410
  168MOL    H4640460   2.896   3.164   0.718  1.5757 -0.9492  0.4962
  168MOL    H4740461   3.038   3.177   0.832 -1.0576  1.0487  1.7954
  168MOL    H4840462   2.819   3.517   0.658  1.5867  0.9252  1.1321
  168MOL    H4940463   2.785   3.350   0.624 -0.3242  0.1488  1.8158
  168MOL    O5040464   2.880   3.547   0.428  0.0904  0.0698 -0.3331
  168MOL    C5140465   2.946   3.611   0.319  0.1924  0.2330  0.5375
  168MOL    C5240466   2.833   3.624   0.213  0.4850 -0.2378 -0.1065
  168MOL    C5340467   3.006   3.754   0.348  0.3208  0.4978 -0.0454
  168MOL    C5440468   3.143   3.742   0.419  0.7652  0.3377  0.2952
  168MOL    O5540469   3.246   3.755   0.354  0.9357 -0.3649  0.2635
  168MOL    H5640470   3.019   3.547   0.270 -1.5350 -0.4706 -1.1814
  168MOL    H5740471   2.857   3.682   0.124  0.9538  1.3134  0.9956
  168MOL    H5840472   2.738   3.656   0.256  0.8413  2.2707 -1.0848
  168MOL    H5940473   2.817   3.524   0.173  0.8350  0.8110 -3.0114
  168MOL    H6040474   2.932   3.812   0.403 -0.9289 -1.6877  0.6300
  168MOL    H6140475   3.020   3.809   0.254  1.7711 -1.3747 -0.9583
  168MOL    O6240476   3.133   3.713   0.551 -0.1845  0.1803  0.4467
  168MOL    C6340477   3.251   3.706   0.633 -0.7195  0.0524  0.3547
  168MOL    C6440478   3.213   3.758   0.766  0.1825  0.1547 -0.0214
  168MOL    C6540479   3.312   3.566   0.636  0.7711 -0.2623  0.5022
  168MOL    C6640480   3.451   3.556   0.685 -0.4115 -0.4186  0.2827
  168MOL    O6740481   3.527   3.652   0.681 -0.3737 -0.4078  0.4712
  168MOL    H6840482   3.318   3.779   0.588  2.9691 -2.2149  1.9628
  168MOL    H6940483   3.126   3.823   0.778  1.1493  1.4167  0.2644
  168MOL    H7040484   3.300   3.799   0.818 -1.6242 -0.2600  3.4547
  168MOL    H7140485   3.177   3.676   0.829  2.6704 -1.9241 -1.2414
  168MOL    H7240486   3.313   3.530   0.533 -1.1919  0.3142  0.2529
  168MOL    H7340487   3.261   3.481   0.683  0.2001 -1.2840 -1.8947
  168MOL    O7440488   3.498   3.432   0.732 -0.2778 -0.4565  0.1034
  168MOL    C7540489   3.628   3.415   0.769 -0.1198  0.1046  0.1291
  168MOL    C7640490   3.662   3.467   0.907 -0.1167  0.2360 -0.6374
  168MOL    C7740491   3.668   3.272   0.751  0.0661 -0.0235 -0.3111
  168MOL    C7840492   3.686   3.225   0.612 -0.0486 -0.0317  0.1348
  168MOL    O7940493   3.615   3.139   0.556  0.1207  0.5145 -0.4454
  168MOL    H8040494   3.673   3.479   0.694 -0.9682 -0.6373 -1.0301
  168MOL    H8140495   3.614   3.399   0.978  0.2989 -0.3834 -0.9421
  168MOL    H8240496   3.620   3.567   0.918  0.1406  0.5199 -2.1163
  168MOL    H8340497   3.766   3.466   0.941 -0.6491  0.6684  1.0598
  168MOL    H8440498   3.614   3.203   0.816 -0.4518 -0.1319 -0.8436
  168MOL    H8540499   3.767   3.248   0.789  0.5083  1.0162 -0.7836
  168MOL    O8640500   3.802   3.270   0.550 -0.1114  0.2834  0.0599
  168MOL    C8740501   3.855   3.222   0.427  0.1136  0.4114 -0.0196
  168MOL    C8840502   3.919   3.330   0.344 -0.3696  0.1853  0.4779
  168MOL    C8940503   3.937   3.098   0.462  0.3894 -1.2696  0.2902
  168MOL    C9040504   4.063   3.113   0.548 -1.2977  0.4530 -0.0417
  168MOL    O9140505   4.063   3.095   0.670 -0.7375 -0.2314 -0.2469
  168MOL    H9240506   3.772   3.181   0.370  0.3992  0.7038 -0.6558
  168MOL    H9340507   3.851   3.401   0.297  0.3650  1.0606  0.7291
  168MOL    H9440508   3.996   3.290   0.278  0.3645  2.5044 -0.1139
  168MOL    H9540509   3.988   3.391   0.402  0.4476 -0.1103 -0.1834
  168MOL    H9640510   3.960   3.041   0.372  0.1649 -1.1476  0.1554
  168MOL    H9740511   3.874   3.025   0.513  1.7504 -2.1931  0.7085
  168MOL    O9840512   4.167   3.126   0.473 -0.7451 -0.5838 -0.3271
  168MOL    C9940513   4.303   3.132   0.524  0.5428  0.2968 -0.0986
  168MOL   C10040514   4.393   3.092   0.404  0.3722 -0.7769 -0.1861
  168MOL   C10140515   4.334   3.273   0.576 -0.9302  0.3022 -0.2832
  168MOL   C10240516   4.475   3.279   0.633 -0.0532  0.1043  0.0377
  168MOL   O10340517   4.503   3.205   0.731 -0.0092  0.1301  0.4080
  168MOL   H10440518   4.311   3.068   0.611 -1.9395 -2.4745 -1.8223
  168MOL   H10540519   4.386   3.159   0.318 -0.5847  2.2148  2.1158
  168MOL   H10640520   4.365   2.990   0.382  0.9133 -0.9794  0.0541
  168MOL   H10740521   4.498   3.097   0.432  0.5155 -3.6972 -0.1309
  168MOL   H10840522   4.270   3.305   0.658  0.2606  1.4763  0.2179
  168MOL   H10940523   4.330   3.343   0.492 -1.4931  2.4178  1.4672
  168MOL   O11040524   4.559   3.370   0.569  0.0226 -0.0988 -0.1096
  168MOL   C11140525   4.684   3.398   0.628 -0.1404  0.0323  0.4218
  168MOL   C11240526   4.790   3.407   0.517  0.4219 -0.0435  0.0916
  168MOL   C11340527   4.675   3.530   0.707  0.3943 -0.0142 -0.1705
  168MOL   C11440528   4.775   3.542   0.819  1.0100 -0.0270 -0.7900
  168MOL   O11540529   4.856   3.459   0.840 -0.1179 -0.0696  0.4491
  168MOL   H11640530   4.716   3.311   0.685  0.0227 -0.2238 -0.0575
  168MOL   H11740531   4.788   3.316   0.458 -0.8518  0.9877 -1.4919
  168MOL   H11840532   4.895   3.408   0.546  0.0753  0.9475  1.3646
  168MOL   H11940533   4.772   3.490   0.448  0.6103 -0.9409 -1.0502
  168MOL   H12040534   4.579   3.538   0.757 -0.2378  0.5825 -1.4550
  168MOL   H12140535   4.700   3.616   0.645 -0.4773  0.9018  0.7176
  168MOL   O12240536   4.763   3.663   0.886  0.5909 -0.0008 -0.2871
  168MOL   C12340537   4.869   3.707   0.974  0.0093 -0.2726  0.3889
  168MOL   C12440538   4.895   3.851   0.939  0.2623  0.1214  0.3302
  168MOL   C12540539   4.835   3.689   1.119 -0.2033  0.1386 -0.0659
  168MOL   C12640540   4.842   3.549   1.168  0.2635  0.5174  0.3250
  168MOL   O12740541   4.737   3.498   1.214  0.1324  0.5688 -0.1407
  168MOL   H12840542   4.965   3.665   0.948  0.7056  0.3683  1.8799
  168MOL   H12940543   4.956   3.890   1.021 -1.8954  0.1868  1.9488
  168MOL   H13040544   4.806   3.915   0.941 -0.1571 -0.4825  0.9923
  168MOL   H13140545   4.957   3.869   0.851 -2.1667  0.8110 -1.2975
  168MOL   H13240546   4.733   3.728   1.127 -0.5140 -0.5271 -0.6736
  168MOL   H13340547   4.906   3.747   1.177  0.2469  0.1281 -0.6027
  168MOL   O13440548   4.972   3.504   1.173 -0.4279 -0.4551  0.2857
  168MOL   C13540549   5.015   3.378   1.220 -0.0593 -0.0408  0.7520
  168MOL   C13640550   5.032   3.277   1.101  0.3112  0.1703 -0.2176
  168MOL   C13740551   5.146   3.398   1.293 -0.6657  0.0621  0.1852
  168MOL   C13840552   5.216   3.276   1.367 -0.6644  0.0919 -0.1015
  168MOL   O13940553   5.316   3.228   1.314  0.0754  0.0686  0.0447
  168MOL   H14040554   4.943   3.335   1.290  0.8670 -1.2851  0.9626
  168MOL   H14140555   4.939   3.269   1.046 -0.4079 -0.5362  1.0921
  168MOL   H14240556   5.059   3.177   1.135 -2.5492 -0.1101  1.3559
  168MOL   H14340557   5.110   3.304   1.029 -0.1881 -4.1926 -2.5639
  168MOL   H14440558   5.143   3.479   1.365 -2.6386  1.4838 -1.4412
  168MOL   H14540559   5.216   3.446   1.225  1.0961 -0.5278  1.5352
  168MOL   O14640560   5.152   3.236   1.482  0.2625  0.1501 -0.2156
  168MOL   C14740561   5.193   3.118   1.560  0.7488  0.1392  0.0710
  168MOL   C14840562   5.208   3.173   1.703 -0.0309  0.5679  0.5499
  168MOL   C14940563   5.100   3.002   1.543  0.1384 -0.0991  0.1111
  168MOL   C15040564   5.105   2.939   1.403  0.0863  0.5027  0.0818
  168MOL   O15140565   5.042   2.992   1.308 -0.2164  0.6181  0.3651
  168MOL   H15240566   5.292   3.085   1.526  0.3795 -0.9704  0.0608
  168MOL   H15340567   5.271   3.262   1.713 -0.8310  1.1372  0.6019
  168MOL   H15440568   5.266   3.103   1.762 -0.1646 -0.7283 -0.8459
  168MOL   H15540569   5.118   3.201   1.759  1.0214 -1.0450  3.1388
  168MOL   H15640570   4.998   3.032   1.567  0.4300  0.8700  0.1239
  168MOL   H15740571   5.119   2.925   1.618 -1.9455 -1.1763 -0.3938
  168MOL   O15840572   5.190   2.835   1.384  0.2903 -0.0313  0.3643
  168MOL   C15940573   5.190   2.773   1.256 -0.6127 -0.3602 -0.0763
  168MOL   C16040574   5.307   2.825   1.171 -0.2338 -0.4964  0.1785
  168MOL   C16140575   5.176   2.620   1.266  0.3336  0.5302 -0.2740
  168MOL   C16240576   5.040   2.567   1.290  0.3252  0.2490  0.2552
  168MOL   O16340577   5.002   2.453   1.253  0.0925  0.2764  0.2717
  168MOL   H16440578   5.102   2.797   1.196  0.5624 -0.4391 -1.8708
  168MOL   H16540579   5.286   2.800   1.066  0.0129 -0.7566  0.1892
  168MOL   H16640580   5.405   2.789   1.202 -0.9458 -0.2038  2.8016
  168MOL   H16740581   5.313   2.933   1.179  0.3048 -0.2589 -2.7251
  168MOL   H16840582   5.235   2.571   1.343 -0.8816  1.4026  1.2408
  168MOL   H16940583   5.213   2.591   1.168  2.0885  0.3137  0.4365
  168MOL   O17040584   4.958   2.651   1.365  0.0685  0.0705  0.0040
  168MOL   C17140585   4.824   2.611   1.391  0.4602  0.3190  0.3172
  168MOL   C17240586   4.820   2.516   1.510 -0.1489  0.0779 -0.1413
  168MOL   C17340587   4.748   2.740   1.414 -0.3641  0.1654  0.7450
  168MOL   C17440588   4.682   2.782   1.283 -0.5023  0.4304 -0.2019
  168MOL   O17540589   4.567   2.751   1.257 -0.1183 -0.0615 -0.6095
  168MOL   H17640590   4.779   2.556   1.309  0.8816  1.8891 -0.9969
  168MOL   H17740591   4.896   2.438   1.501  0.0134  0.4719 -2.3486
  168MOL   H17840592   4.724   2.466   1.505  0.8721 -2.0325  0.5522
  168MOL   H17940593   4.841   2.563   1.607  0.5914  0.3553 -0.4298
  168MOL   H18040594   4.814   2.822   1.441 -1.0126  0.5041  1.2917
  168MOL   H18140595   4.667   2.721   1.484 -0.5772 -1.4498  0.0922
  168MOL   O18240596   4.769   2.859   1.208 -0.1044 -0.0791  0.0834
  168MOL   C18340597   4.730   2.911   1.081 -0.1757 -0.3649 -0.6269
  168MOL   C18440598   4.665   3.049   1.100 -0.2902  0.9615  0.3543
  168MOL   C18540599   4.861   2.917   0.992  0.9277  0.2109 -0.5094
  168MOL   C18640600   4.917   2.780   0.959  0.0546 -0.2497  0.1906
  168MOL   O18740601   5.037   2.761   0.952 -0.1418 -0.0370 -0.2030
  168MOL   H18840602   4.672   2.830   1.038  1.5379 -1.3423 -1.1305
  168MOL   H18940603   4.621   3.080   1.006 -0.7559  1.9185  0.8789
  168MOL   H19040604   4.744   3.120   1.125  1.9900 -1.2859 -0.2648
  168MOL   H19140605   4.582   3.043   1.170 -0.0171 -0.9241  0.5393
  168MOL   H19240606   4.935   2.976   1.046  3.4834 -2.4878 -0.9432
  168MOL   H19340607   4.833   2.974   0.904  1.0587 -0.4171 -0.9594
  168MOL   O19440608   4.825   2.690   0.923 -0.0614  0.1507 -0.0869
  168MOL   C19540609   4.848   2.557   0.932 -0.1088  0.4596  0.1424
  168MOL   C19640610   4.706   2.510   0.977  0.3322  0.1153 -0.2820
  168MOL   C19740611   4.882   2.503   0.793 -0.3952  0.4326 -0.4109
  168MOL   C19840612   4.934   2.359   0.798 -0.4539  0.4741  0.3114
  168MOL   O19940613   5.053   2.334   0.831  0.6025 -0.0255 -0.0816
  168MOL   H20040614   4.927   2.522   0.999  0.2631  1.4697  0.2390
  168MOL   H20140615   4.687   2.561   1.072  0.1865 -1.2067  0.4133
  168MOL   H20240616   4.701   2.406   1.009  0.4166  0.4742  0.9065
  168MOL   H20340617   4.637   2.527   0.894 -0.8234 -0.8582  0.4559
  168MOL   H20440618   4.969   2.549   0.747 -0.0613 -0.5399 -0.7785
  168MOL   H20540619   4.803   2.519   0.720  0.8809 -0.1711 -1.9477
  168MOL   O20640620   4.842   2.262   0.777 -0.1281 -0.2706 -0.4058
  168MOL   C20740621   4.883   2.126   0.747  0.0870 -0.0897  0.1381
  168MOL   C20840622   4.911   2.041   0.869 -0.3875  0.3348 -0.3492
  168MOL   C20940623   4.774   2.059   0.663  0.1861  0.3427 -0.4344
  168MOL   C21040624   4.777   2.105   0.520  0.3323 -0.0028 -0.2521
  168MOL   O21140625   4.847   2.197   0.482 -0.2391 -0.1264  0.2965
  168MOL   H21240626   4.976   2.118   0.691  1.6587 -2.8744  2.9422
  168MOL   H21340627   4.919   1.935   0.848  0.9275  0.6869 -1.6996
  168MOL   H21440628   4.829   2.061   0.939  0.6309  0.1258  0.9193
  168MOL   H21540629   5.004   2.068   0.920 -0.9904  0.6305  0.6238
  168MOL   H21640630   4.678   2.095   0.701  0.4138  2.0123 -1.3835
  168MOL   H21740631   4.770   1.950   0.657 -1.8346  0.4428 -1.4525
  168MOL   O21840632   4.680   2.040   0.453 -0.5147 -0.1501 -0.4462
  168MOL   C21940633   4.651   2.083   0.319 -0.0528 -0.3739  0.1699
  168MOL   C22040634   4.735   1.996   0.225 -0.6728 -0.9439 -0.7208
  168MOL   C22140635   4.502   2.067   0.301  0.7908 -0.3248  0.1693
  168MOL   C22240636   4.437   2.129   0.174 -0.5029 -0.6987  0.5321
  168MOL   O22340637   4.511   2.153   0.071  0.1225 -0.6268 -0.8438
  168MOL   H22440638   4.672   2.189   0.305 -1.1925 -0.3572 -1.6815
  168MOL   H22540639   4.680   1.909   0.192 -1.7221 -1.1326  1.4881
  168MOL   H22640640   4.838   1.984   0.260 -0.6495 -2.8802 -1.4253
  168MOL   H22740641   4.752   2.050   0.131 -2.3726  0.0288 -0.4907
  168MOL   H22840642   4.462   2.110   0.392 -0.6365  0.3902 -0.7746
  168MOL   H22940643   4.455   1.969   0.314 -0.6487  0.4717  1.1097
  168MOL   O23040644   4.307   2.143   0.185  0.2084  0.5319  0.1128
  168MOL   C23140645   4.236   2.176   0.066  0.5713 -0.1345 -0.4774
  168MOL   C23240646   4.187   2.036   0.015 -0.7357  0.3958  0.2393
  168MOL   C23340647   4.121   2.268   0.122 -0.0025 -0.2832 -0.0508
  168MOL   C23440648   4.034   2.334   0.014  0.3017  0.7623  0.6348
  168MOL   O23540649   4.078   2.387   7.887 -0.0528 -0.3394  0.0016
  168MOL   H23640650   4.296   2.224   7.969 -1.5230  3.5398  0.0431
  168MOL   H23740651   4.103   2.037   7.925 -0.7509  0.9840  0.2711
  168MOL   H23840652   4.150   1.976   0.098  1.5534 -1.0633  0.2624
  168MOL   H23940653   4.273   1.978   7.962 -0.2422  0.7080  0.9814
  168MOL   H24040654   4.173   2.346   0.178 -0.1901 -1.3875  1.6723
  168MOL   H24140655   4.055   2.217   0.191  0.0285  1.4845  1.2983
  168MOL   H24240656   3.928   2.326   0.037 -0.4641  3.2489 -1.7682
  169MOL     O140657   0.458   0.101   3.500 -0.2152  0.1417 -0.6066
  169MOL     C240658   0.477   0.001   3.606 -0.0008  1.0952  0.0898
  169MOL     C340659   0.598   7.886   3.570 -0.3462 -0.5075  0.2025
  169MOL     C440660   0.498   0.067   3.746  0.2901  0.4520 -0.6741
  169MOL     C540661   0.518   7.954   3.864  0.0645 -0.4868 -0.1492
  169MOL     O640662   0.446   7.862   3.889 -0.5812 -0.0521  0.6251
  169MOL     H740663   0.385   7.923   3.608  1.1782 -1.0300 -2.8632
  169MOL     H840664   0.691   7.942   3.558 -0.4984 -0.0779  1.0199
  169MOL     H940665   0.571   7.835   3.477 -0.0502  1.3404 -0.9419
  169MOL    H1040666   0.616   7.812   3.647 -2.3171 -0.7987  0.4116
  169MOL    H1140667   0.410   0.124   3.777  0.5666  0.5094  0.0230
  169MOL    H1240668   0.583   0.133   3.733  0.3859  0.5302  0.2968
  169MOL    H1340669   0.448   0.063   3.414 -0.7749  0.5394 -0.7192
  169MOL    O1440670   0.618   0.018   3.936  0.2692  0.0686 -0.0057
  169MOL    C1540671   0.681   7.919   4.041  0.5064  0.0515 -0.3812
  169MOL    C1640672   0.834   7.944   4.034 -0.1753 -0.1591 -0.5146
  169MOL    C1740673   0.622   7.944   4.188 -0.1263 -0.4705 -0.0916
  169MOL    C1840674   0.690   7.858   4.294 -0.2690  0.4206  0.8718
  169MOL    O1940675   0.788   7.893   4.354  0.7546 -0.4311 -0.3027
  169MOL    H2040676   0.673   7.811   4.033 -0.2180 -0.0042  0.9884
  169MOL    H2140677   0.856   0.066   4.067 -0.1944 -0.2917 -0.0945
  169MOL    H2240678   0.876   7.936   3.933 -0.3039 -0.7656 -0.5203
  169MOL    H2340679   0.874   7.864   4.097 -2.0822 -1.0396 -0.3931
  169MOL    H2440680   0.518   7.914   4.200 -0.3815  1.0166  1.5818
  169MOL    H2540681   0.615   0.069   4.217  3.8230 -0.2315  0.1985
  169MOL    O2640682   0.619   7.736   4.331 -0.1529 -0.0462 -0.5627
  169MOL    C2740683   0.673   7.658   4.444  0.7373  0.1985 -0.7993
  169MOL    C2840684   0.558   7.635   4.538  0.8657 -1.3083 -0.6525
  169MOL    C2940685   0.740   7.527   4.407  0.8917 -0.9836 -0.1705
  169MOL    C3040686   0.869   7.548   4.332  0.6347 -0.3824 -0.2739
  169MOL    O3140687   0.865   7.571   4.213 -0.4361 -0.1069  0.0024
  169MOL    H3240688   0.756   7.712   4.490  0.8660 -1.1017  0.5345
  169MOL    H3340689   0.498   7.726   4.547  2.5698 -0.2582  0.4082
  169MOL    H3440690   0.600   7.611   4.636  0.1489  2.0423  0.5464
  169MOL    H3540691   0.499   7.552   4.501 -1.2169  0.5288 -1.5444
  169MOL    H3640692   0.678   7.457   4.352  0.7541 -1.4258  0.5421
  169MOL    H3740693   0.774   7.485   4.502  1.8361 -0.7256 -0.3901
  169MOL    O3840694   0.974   7.531   4.408  0.1391 -0.2231  1.5325
  169MOL    C3940695   1.101   7.545   4.348 -0.5440  0.4762 -0.2782
  169MOL    C4040696   1.195   7.574   4.470  0.6222 -0.2156  0.2084
  169MOL    C4140697   1.159   7.422   4.269  0.4571 -0.0279 -0.1955
  169MOL    C4240698   1.138   7.287   4.333  0.5245 -0.2505  0.1551
  169MOL    O4340699   1.226   7.227   4.393 -0.2956 -0.0963  0.0698
  169MOL    H4440700   1.099   7.638   4.292 -0.3532  1.4496  1.3141
  169MOL    H4540701   1.301   7.563   4.449  0.5173 -0.9647  0.0498
  169MOL    H4640702   1.183   7.504   4.553 -3.6242 -2.7143 -2.3168
  169MOL    H4740703   1.182   7.669   4.522  1.7843 -0.0620  0.2285
  169MOL    H4840704   1.266   7.422   4.250  0.4769 -4.5470 -0.6989
  169MOL    H4940705   1.108   7.413   4.173  1.8131 -1.6011 -0.7779
  169MOL    O5040706   1.012   7.240   4.304  0.0455  0.4520 -0.3978
  169MOL    C5140707   0.956   7.128   4.371 -0.4154 -0.2785  0.0109
  169MOL    C5240708   0.844   7.180   4.469  0.0573 -0.5508 -0.6209
  169MOL    C5340709   0.904   7.036   4.261 -0.1451  0.2110 -0.4669
  169MOL    C5440710   0.871   6.897   4.316 -0.4148  0.2564  0.4658
  169MOL    O5540711   0.776   6.878   4.388 -0.0829 -0.1640 -0.6628
  169MOL    H5640712   1.036   7.081   4.428  0.7959  3.5644  1.6559
  169MOL    H5740713   0.862   7.283   4.499  0.9341 -1.2275  1.2715
  169MOL    H5840714   0.824   7.124   4.561 -1.4362  1.0066  0.0271
  169MOL    H5940715   0.746   7.174   4.423  0.1919 -0.4161 -0.9227
  169MOL    H6040716   0.985   7.029   4.188 -0.7092 -0.3544 -1.0493
  169MOL    H6140717   0.818   7.076   4.207  0.0650  1.8756  0.4060
  169MOL    O6240718   0.962   6.807   4.280  0.4926 -0.2031 -0.1225
  169MOL    C6340719   0.979   6.679   4.328 -0.3042  0.1945 -0.0006
  169MOL    C6440720   0.995   6.584   4.213  0.3901  0.1811 -0.7413
  169MOL    C6540721   1.098   6.652   4.431  0.1757 -0.1198 -0.5384
  169MOL    C6640722   1.067   6.687   4.572 -0.1712 -0.1311  0.2122
  169MOL    O6740723   1.133   6.636   4.657 -0.0183  0.1690 -0.2069
  169MOL    H6840724   0.896   6.641   4.387  1.9090 -4.3562  0.3848
  169MOL    H6940725   0.909   6.600   4.147 -0.6900  1.2422  0.8779
  169MOL    H7040726   1.003   6.481   4.247  0.0022 -0.1124 -1.5247
  169MOL    H7140727   1.080   6.617   4.153  0.5524 -0.8513 -1.0830
  169MOL    H7240728   1.189   6.703   4.397 -1.0273  1.6250 -1.2232
  169MOL    H7340729   1.128   6.547   4.435 -1.1098 -0.4779 -0.0615
  169MOL    O7440730   0.968   6.783   4.595 -0.0379  0.2564  0.3240
  169MOL    C7540731   0.933   6.807   4.729 -0.3010  0.0193 -0.1761
  169MOL    C7640732   1.019   6.918   4.786  0.6805  0.8223 -0.2929
  169MOL    C7740733   0.787   6.859   4.733 -0.4616 -0.0588 -0.7343
  169MOL    C7840734   0.677   6.748   4.702  0.0382 -0.4624 -0.0058
  169MOL    O7940735   0.695   6.625   4.714  0.4116 -0.1273  0.4389
  169MOL    H8040736   0.930   6.717   4.792 -0.9724 -0.5887 -1.0718
  169MOL    H8140737   1.014   7.006   4.721  0.6581 -0.5585 -2.1760
  169MOL    H8240738   1.125   6.896   4.800  0.6067  0.8139  0.2672
  169MOL    H8340739   0.992   6.955   4.886  1.3311 -0.7382  0.4709
  169MOL    H8440740   0.781   6.938   4.659 -0.4231 -1.3969 -2.1923
  169MOL    H8540741   0.747   6.910   4.821 -0.7883 -0.3661 -0.7031
  169MOL    O8640742   0.574   6.805   4.638  0.3467 -0.2258 -0.0070
  169MOL    C8740743   0.460   6.724   4.605  0.6019 -0.5560 -0.1154
  169MOL    C8840744   0.333   6.779   4.664  0.9004  0.2488 -0.0207
  169MOL    C8940745   0.453   6.706   4.452 -0.1335  0.2097 -0.1015
  169MOL    C9040746   0.532   6.593   4.385 -0.0317  0.0364  0.2308
  169MOL    O9140747   0.603   6.622   4.283  0.3236 -0.2353 -0.6447
  169MOL    H9240748   0.471   6.626   4.653  0.6291 -1.2391 -1.4961
  169MOL    H9340749   0.329   6.765   4.772 -1.1602 -0.0638 -0.1088
  169MOL    H9440750   0.253   6.716   4.625  0.1688  0.4320  1.1597
  169MOL    H9540751   0.313   6.884   4.641 -0.4694  0.2401  1.0650
  169MOL    H9640752   0.460   6.803   4.403 -2.1996  1.0078  1.0893
  169MOL    H9740753   0.350   6.677   4.435 -0.8159  3.0663 -1.1687
  169MOL    O9840754   0.515   6.462   4.435  0.1509  0.1166  0.0192
  169MOL    C9940755   0.590   6.356   4.376  0.3637  0.4774 -0.4311
  169MOL   C10040756   0.718   6.312   4.452 -0.8958  0.0112  0.3012
  169MOL   C10140757   0.495   6.240   4.363  0.6313  0.0479  0.4532
  169MOL   C10240758   0.403   6.244   4.239  0.0061  0.7227  0.0057
  169MOL   O10340759   0.384   6.146   4.169 -0.1773  0.1967 -0.1872
  169MOL   H10440760   0.623   6.381   4.276 -0.4452  2.3250 -0.2443
  169MOL   H10540761   0.773   6.228   4.411 -0.6641 -0.1437  0.9173
  169MOL   H10640762   0.684   6.284   4.552  0.0127 -2.3873 -0.0358
  169MOL   H10740763   0.775   6.405   4.452 -1.7595  0.6057  2.8161
  169MOL   H10840764   0.435   6.232   4.453  0.3990  1.0463  0.3909
  169MOL   H10940765   0.553   6.149   4.347 -1.0453 -1.1761  1.2489
  169MOL   O11040766   0.345   6.363   4.217 -0.0458 -0.0473  0.7243
  169MOL   C11140767   0.287   6.402   4.098 -0.3155 -0.1515 -0.3295
  169MOL   C11240768   0.188   6.507   4.143  0.4772 -0.1402 -0.3380
  169MOL   C11340769   0.402   6.465   4.016 -0.0562 -0.7291  0.1281
  169MOL   C11440770   0.357   6.543   3.885 -0.4168 -0.0904  1.0796
  169MOL   O11540771   0.383   6.661   3.867  0.0149 -0.9273 -0.0670
  169MOL   H11640772   0.241   6.319   4.045  1.0306 -0.5280 -0.9131
  169MOL   H11740773   0.111   6.458   4.202  0.8565  0.4020  0.6328
  169MOL   H11840774   0.130   6.546   4.060 -1.6788 -0.6717  0.8870
  169MOL   H11940775   0.235   6.588   4.201 -1.3584 -0.6324  1.9046
  169MOL   H12040776   0.481   6.403   3.975  0.6976 -0.1531  0.7016
  169MOL   H12140777   0.446   6.540   4.083  3.0168 -1.8654 -0.5611
  169MOL   O12240778   0.284   6.466   3.800 -0.1631 -0.1710 -0.5688
  169MOL   C12340779   0.254   6.503   3.674  0.5235 -0.2397  1.0867
  169MOL   C12440780   0.250   6.381   3.590  0.6379  0.5305  0.1645
  169MOL   C12540781   0.124   6.595   3.671 -0.6130 -0.7913  0.1465
  169MOL   C12640782   0.069   6.608   3.537 -0.1352 -0.0568  1.0264
  169MOL   O12740783   0.138   6.634   3.442  0.1622  0.3032 -0.0550
  169MOL   H12840784   0.341   6.556   3.637 -0.3392 -0.1307 -0.8683
  169MOL   H12940785   0.341   6.325   3.610  1.4192  1.6383 -0.3010
  169MOL   H13040786   0.253   6.404   3.484  0.8663 -1.3441 -0.2451
  169MOL   H13140787   0.164   6.317   3.612  0.8072 -0.4133 -1.8458
  169MOL   H13240788   0.152   6.688   3.721  0.4109 -0.3688 -1.1794
  169MOL   H13340789   0.044   6.542   3.723 -1.3234  0.0963 -0.0298
  169MOL   O13440790   7.914   6.590   3.545 -0.3493  0.4475 -0.1852
  169MOL   C13540791   7.829   6.604   3.428 -0.4389 -0.0207 -0.8669
  169MOL   C13640792   7.762   6.469   3.412 -0.0094  0.8643 -0.1299
  169MOL   C13740793   7.725   6.721   3.439 -0.5098 -0.0674  0.3278
  169MOL   C13840794   7.772   6.866   3.421 -0.4276  0.2020 -0.4148
  169MOL   O13940795   7.709   6.941   3.341  0.6676 -0.8485 -0.1144
  169MOL   H14040796   7.895   6.624   3.344  1.4828  0.6941  0.7595
  169MOL   H14140797   7.828   6.390   3.376 -0.2282 -0.3744  2.0965
  169MOL   H14240798   7.679   6.478   3.342 -1.7279 -0.3149  1.6702
  169MOL   H14340799   7.730   6.435   3.511  1.0194 -1.3117 -0.5185
  169MOL   H14440800   7.681   6.730   3.538  1.5653  2.7686  1.0340
  169MOL   H14540801   7.649   6.711   3.361 -0.6010  0.4040  0.3517
  169MOL   O14640802   7.881   6.898   3.491  0.8898  0.0522 -0.1529
  169MOL   C14740803   7.909   7.033   3.519  0.3863 -0.0373  0.3394
  169MOL   C14840804   7.875   7.063   3.667 -0.3919 -1.0193  0.2104
  169MOL   C14940805   0.071   7.067   3.468  0.0785 -0.0910  0.3446
  169MOL   C15040806   0.098   7.216   3.449  0.0982  0.5912  0.1597
  169MOL   O15140807   0.120   7.256   3.331 -0.4243  0.6087 -0.3390
  169MOL   H15240808   7.852   7.092   3.449  1.3367  0.8992  0.3408
  169MOL   H15340809   7.782   7.017   3.700 -0.5989 -1.1310 -0.5275
  169MOL   H15440810   7.865   7.172   3.674 -0.9787 -0.9711 -1.2596
  169MOL   H15540811   7.953   7.025   3.732  1.3235  0.4496 -0.9506
  169MOL   H15640812   0.061   7.021   3.369  2.4932 -1.9064  0.8979
  169MOL   H15740813   0.148   7.016   3.525 -0.5554 -0.7249  0.6441
  169MOL   O15840814   0.099   7.288   3.564 -0.1666  0.0917  0.9898
  169MOL   C15940815   0.107   7.427   3.560  0.5355  0.8332 -0.2988
  169MOL   C16040816   0.044   7.485   3.690  0.5079 -0.6859 -0.9208
  169MOL   C16140817   0.251   7.469   3.565 -0.3927 -0.1978  0.3510
  169MOL   C16240818   0.276   7.615   3.516 -0.9203  0.4131 -0.5562
  169MOL   O16340819   0.372   7.681   3.556 -0.5158 -0.0549 -0.3752
  169MOL   H16440820   0.055   7.477   3.479  0.0260  0.8843  0.0630
  169MOL   H16540821   0.030   7.593   3.693 -1.1866 -0.9188 -0.1941
  169MOL   H16640822   0.089   7.453   3.784  3.3777  0.8243 -1.7055
  169MOL   H16740823   7.920   7.452   3.693  0.7333 -1.3967 -0.7805
  169MOL   H16840824   0.311   7.411   3.495 -1.0892 -1.5343  0.8399
  169MOL   H16940825   0.301   7.460   3.661  0.4829  1.4815  0.0890
  169MOL   O17040826   0.189   7.650   3.416 -0.0405  0.0169  0.6766
  169MOL   C17140827   0.194   7.777   3.347 -0.2137  0.6871 -0.4528
  169MOL   C17240828   0.226   7.749   3.196 -0.2095 -0.0320  0.6706
  169MOL   C17340829   0.060   7.838   3.381 -0.0283 -0.1384 -0.1163
  169MOL   C17440830   0.046   0.004   3.335  0.0643 -0.4486  0.4540
  169MOL   O17540831   0.057   0.036   3.212 -0.1816 -0.7959  0.2918
  169MOL   H17640832   0.268   7.847   3.385  0.3500 -0.4236  0.5373
  169MOL   H17740833   0.145   7.691   3.151 -0.2388 -0.0215  0.7104
  169MOL   H17840834   0.305   7.676   3.180  0.8775  0.5561  3.1861
  169MOL   H17940835   0.238   7.838   3.134 -2.4622 -0.3337 -0.2323
  169MOL   H18040836   0.038   7.833   3.488  1.4028  1.0671  0.2626
  169MOL   H18140837   7.960   7.787   3.328  0.4160  0.5457 -1.4568
  169MOL   O18240838   0.020   0.086   3.432 -0.5645 -0.3210 -0.1620
  169MOL   C18340839   7.976   0.222   3.405 -0.9147  0.2029  0.7205
  169MOL   C18440840   7.856   0.250   3.488  0.7914  0.0034  0.1538
  169MOL   C18540841   0.124   0.297   3.447 -0.1128  0.2613  0.3403
  169MOL   C18640842   0.117   0.444   3.406 -0.1170  0.0031 -0.8678
  169MOL   O18740843   0.160   0.531   3.478  1.8187  0.1825  0.2205
  169MOL   H18840844   7.957   0.241   3.299  1.9354  0.1517  0.1545
  169MOL   H18940845   7.836   0.357   3.482  1.2493  0.0358 -0.8316
  169MOL   H19040846   7.869   0.216   3.591 -3.0278 -2.9242 -0.2168
  169MOL   H19140847   7.766   0.203   3.449  1.0910  0.8863 -1.6273
  169MOL   H19240848   0.214   0.256   3.402 -0.2298  1.1650 -0.7244
  169MOL   H19340849   0.123   0.271   3.553 -0.5884 -1.1560 -0.0002
  169MOL   O19440850   0.071   0.461   3.282 -0.6400 -0.7610  0.2715
  169MOL   C19540851   0.027   0.589   3.242 -0.2639  0.6340  0.5187
  169MOL   C19640852   0.142   0.668   3.186 -0.0196  0.8840 -0.6043
  169MOL   C19740853   7.896   0.564   3.141 -0.5544  0.9704  0.3166
  169MOL   C19840854   7.803   0.686   3.127 -0.1691  0.1079 -0.3591
  169MOL   O19940855   7.808   0.786   3.199  0.0726  0.2446 -0.0903
  169MOL   H20040856   7.966   0.643   3.327 -1.1396  3.3110 -1.5498
  169MOL   H20140857   0.218   0.689   3.261 -1.1870  0.2555  0.7914
  169MOL   H20240858   0.118   0.763   3.137 -2.5527  0.9234  0.6110
  169MOL   H20340859   0.187   0.616   3.101 -0.1732 -1.6083  0.7842
  169MOL   H20440860   7.828   0.488   3.180 -0.3084  1.3195  1.4501
  169MOL   H20540861   7.935   0.518   3.050  0.5671  0.6795  0.9422
  169MOL   O20640862   7.707   0.670   3.029 -0.9761 -0.6286  0.1842
  169MOL   C20740863   7.607   0.767   3.004 -0.1547  0.1353  0.3573
  169MOL   C20840864   7.577   0.756   2.853  0.7556  0.6679 -0.1818
  169MOL   C20940865   7.490   0.747   3.097  0.1814  0.2045  0.1836
  169MOL   C21040866   7.391   0.862   3.084  0.1478 -0.3360 -0.5886
  169MOL   O21140867   7.311   0.869   2.986 -0.5255  0.3655 -0.5323
  169MOL   H21240868   7.657   0.862   3.022  0.1432  0.2339 -0.9370
  169MOL   H21340869   7.514   0.843   2.833 -0.5919  0.5462  3.1797
  169MOL   H21440870   7.518   0.669   2.826  2.2002 -0.6198  0.7730
  169MOL   H21540871   7.664   0.760   2.788 -1.2542  1.6476 -2.9074
  169MOL   H21640872   7.526   0.746   3.200 -0.9298  0.7158  0.5755
  169MOL   H21740873   7.435   0.654   3.086 -0.0789  0.5002 -1.0696
  169MOL   O21840874   7.395   0.949   3.192  0.4692 -0.0285  0.5839
  169MOL   C21940875   7.305   1.058   3.191 -0.0449 -0.1621  0.7647
  169MOL   C22040876   7.274   1.086   3.339  0.0978 -0.3312 -0.4471
  169MOL   C22140877   7.362   1.175   3.118 -0.8466  0.4523 -0.4914
  169MOL   C22240878   7.260   1.277   3.070 -0.0867 -0.0361  0.0492
  169MOL   O22340879   7.226   1.278   2.954  0.5814 -0.2472 -0.3021
  169MOL   H22440880   7.216   1.028   3.135 -0.4492 -0.6404  1.6646
  169MOL   H22540881   7.203   1.162   3.370  1.0960  0.4707 -0.1350
  169MOL   H22640882   7.365   1.094   3.397  0.7465 -0.0178 -1.4914
  169MOL   H22740883   7.236   0.988   3.371 -1.9860  0.3557 -0.7448
  169MOL   H22840884   7.422   1.133   3.037 -1.4645 -1.2058 -0.0979
  169MOL   H22940885   7.438   1.223   3.179 -2.0003  1.2289  0.3409
  169MOL   O23040886   7.217   1.357   3.166 -0.0093  0.3651 -0.4295
  169MOL   C23140887   7.140   1.469   3.141  0.3836  0.2208  0.0461
  169MOL   C23240888   7.000   1.421   3.095 -0.3961 -0.0557 -0.3879
  169MOL   C23340889   7.140   1.562   3.264  0.3643 -0.1103 -0.6155
  169MOL   C23440890   7.051   1.683   3.242  0.1075  0.3992  0.7678
  169MOL   O23540891   7.010   1.752   3.338  0.3597  0.5642  0.0050
  169MOL   H23640892   7.189   1.525   3.061  0.4753  2.9706  1.9573
  169MOL   H23740893   6.950   1.355   3.166 -0.6561  0.0393 -0.4795
  169MOL   H23840894   6.989   1.373   2.998 -0.1880  0.2412 -0.5609
  169MOL   H23940895   6.936   1.507   3.071  1.9461  2.2522  1.3710
  169MOL   H24040896   7.238   1.600   3.291  1.7307 -3.1685 -1.0336
  169MOL   H24140897   7.096   1.507   3.347 -2.8079  0.3594 -1.8969
  169MOL   H24240898   7.026   1.705   3.138  2.4129 -0.5790 -0.0256
  170MOL     O140899   4.476   5.418   2.928  0.4346  0.0222  0.0505
  170MOL     C240900   4.421   5.498   3.027 -0.2117  0.3204  0.1441
  170MOL     C340901   4.453   5.436   3.162  0.8671 -0.2442 -0.9083
  170MOL     C440902   4.480   5.634   2.996  0.1584 -0.0907 -0.2184
  170MOL     C540903   4.436   5.749   3.089 -0.0209 -0.8036  0.5820
  170MOL     O640904   4.458   5.751   3.209  0.5339  0.1657 -0.2436
  170MOL     H740905   4.315   5.498   3.004  0.0015  0.2589 -0.8341
  170MOL     H840906   4.414   5.505   3.236  0.5276 -1.4385  0.0524
  170MOL     H940907   4.562   5.434   3.165  0.8521  0.3817  0.3029
  170MOL    H1040908   4.412   5.336   3.180  0.4273 -0.0651 -0.9165
  170MOL    H1140909   4.465   5.663   2.892 -0.9338  0.9806  0.2323
  170MOL    H1240910   4.586   5.609   3.003  0.5326  0.2652 -3.8311
  170MOL    H1340911   4.440   5.331   2.941  0.6786 -0.0925 -0.0346
  170MOL    O1440912   4.375   5.841   3.014  0.0136 -0.4454  0.2826
  170MOL    C1540913   4.327   5.961   3.076 -0.3180  0.1031 -0.2498
  170MOL    C1640914   4.446   6.060   3.059 -0.7667 -0.3243 -0.5446
  170MOL    C1740915   4.187   6.001   3.011 -0.0369  0.5550  0.4075
  170MOL    C1840916   4.063   5.918   3.056 -0.5917 -0.3442  0.2189
  170MOL    O1940917   3.955   5.976   3.070 -0.3556 -0.1475 -0.0069
  170MOL    H2040918   4.315   5.937   3.181 -0.8304 -2.6340 -0.9116
  170MOL    H2140919   4.468   6.084   2.955 -0.4232  3.2820  0.2876
  170MOL    H2240920   4.540   6.040   3.110 -1.0344 -0.7264 -0.2028
  170MOL    H2340921   4.412   6.157   3.094 -0.9584 -1.8793  3.9739
  170MOL    H2440922   4.195   5.999   2.902 -2.6533 -1.7223  0.2054
  170MOL    H2540923   4.172   6.105   3.038  0.0200  0.8978 -0.8276
  170MOL    O2640924   4.092   5.792   3.081 -0.3094 -0.5651 -0.2164
  170MOL    C2740925   4.000   5.703   3.141 -0.2183 -0.2390 -0.1272
  170MOL    C2840926   4.018   5.555   3.114 -0.3567  0.1421 -0.1946
  170MOL    C2940927   3.987   5.718   3.296 -0.2550 -0.2947  0.2729
  170MOL    C3040928   3.842   5.694   3.350  0.1009 -0.5216  0.2602
  170MOL    O3140929   3.829   5.618   3.447 -0.2315  0.5391  0.0601
  170MOL    H3240930   3.904   5.723   3.094  0.4651  1.6468 -0.8049
  170MOL    H3340931   4.119   5.531   3.148 -1.8522 -5.5192  0.7761
  170MOL    H3440932   4.015   5.544   3.005  0.2546 -0.8178 -0.1239
  170MOL    H3540933   3.952   5.495   3.176  0.3681 -1.7522 -1.1997
  170MOL    H3640934   4.025   5.818   3.319 -0.5955  0.2546 -1.4184
  170MOL    H3740935   4.047   5.652   3.358 -0.1149 -0.1162  0.3289
  170MOL    O3840936   3.746   5.757   3.281  0.5179 -0.3152 -0.0860
  170MOL    C3940937   3.615   5.719   3.291 -0.6373 -0.6913  0.3556
  170MOL    C4040938   3.528   5.839   3.309 -0.4371  0.1079  0.1049
  170MOL    C4140939   3.567   5.640   3.171  0.8378  0.1185 -0.1629
  170MOL    C4240940   3.626   5.501   3.143  0.4236  0.0124 -0.6818
  170MOL    O4340941   3.661   5.469   3.033  0.1539  0.5994  0.2862
  170MOL    H4440942   3.597   5.666   3.385 -1.2354 -1.8705 -0.4060
  170MOL    H4540943   3.548   5.915   3.232  1.3617  1.7977  2.1855
  170MOL    H4640944   3.541   5.887   3.406  0.6225 -1.0589  0.5379
  170MOL    H4740945   3.420   5.822   3.311 -0.6073  1.2598  2.2377
  170MOL    H4840946   3.573   5.702   3.081 -0.5557 -0.6144 -0.7699
  170MOL    H4940947   3.463   5.615   3.194  1.7781 -2.4886  1.4897
  170MOL    O5040948   3.635   5.428   3.249  0.1334 -0.0436 -0.1449
  170MOL    C5140949   3.712   5.303   3.248 -0.5973  0.0013  0.8490
  170MOL    C5240950   3.764   5.286   3.391 -0.4233 -0.3976  0.1616
  170MOL    C5340951   3.638   5.167   3.206  0.5377  0.1889 -0.2135
  170MOL    C5440952   3.595   5.159   3.059 -0.0253  1.0468 -0.0722
  170MOL    O5540953   3.662   5.202   2.970  0.2400  0.0158  0.5453
  170MOL    H5640954   3.800   5.318   3.184  0.7612 -2.5814  2.0264
  170MOL    H5740955   3.830   5.200   3.400  0.9157  0.3967 -1.6558
  170MOL    H5840956   3.683   5.265   3.462  2.7300 -2.4427  3.3128
  170MOL    H5940957   3.819   5.371   3.428 -0.6438  0.2164 -0.8967
  170MOL    H6040958   3.548   5.149   3.264 -0.3376 -0.9350 -1.8855
  170MOL    H6140959   3.707   5.084   3.224  1.8147  0.9028 -1.6816
  170MOL    O6240960   3.472   5.110   3.038 -0.4635  0.3330 -0.4046
  170MOL    C6340961   3.432   5.058   2.914  0.1482  0.2242  0.1923
  170MOL    C6440962   3.474   4.910   2.895  0.5261  0.1097  0.0046
  170MOL    C6540963   3.280   5.084   2.908 -0.0445 -1.3688 -0.3048
  170MOL    C6640964   3.213   5.044   2.782  0.0009  0.6798  0.6405
  170MOL    O6740965   3.166   4.931   2.769  0.4828  0.4137  0.2183
  170MOL    H6840966   3.480   5.107   2.829 -0.7167  1.1826  0.2471
  170MOL    H6940967   3.443   4.848   2.979  1.1953  0.2888  0.3882
  170MOL    H7040968   3.582   4.902   2.914  0.7273  0.5147 -0.9497
  170MOL    H7140969   3.428   4.871   2.804  2.2959 -0.9750 -0.4548
  170MOL    H7240970   3.253   5.188   2.926 -0.1671 -1.6070  0.9545
  170MOL    H7340971   3.232   5.024   2.985 -1.7102  1.0613  0.6248
  170MOL    O7440972   3.210   5.143   2.684 -0.2540  0.2041  0.4763
  170MOL    C7540973   3.125   5.115   2.568  0.2388  0.2785 -0.0024
  170MOL    C7640974   3.059   5.252   2.527 -0.3361  0.0553 -0.2709
  170MOL    C7740975   3.193   5.063   2.438  0.2482 -0.6655  0.0480
  170MOL    C7840976   3.296   5.165   2.374 -0.7422 -0.5273 -0.4245
  170MOL    O7940977   3.357   5.249   2.433 -0.4559  0.5992 -0.6689
  170MOL    H8040978   3.049   5.041   2.593 -0.0487 -0.2646 -2.3573
  170MOL    H8140979   3.003   5.236   2.434 -0.0068 -1.0982 -0.2774
  170MOL    H8240980   3.132   5.330   2.502  0.4167 -0.1679  1.1865
  170MOL    H8340981   2.983   5.288   2.596  1.5713  0.3282  1.7323
  170MOL    H8440982   3.110   5.035   2.373  0.0105 -0.0678  0.0901
  170MOL    H8540983   3.249   4.972   2.456  0.4996 -0.3938  0.6569
  170MOL    O8640984   3.314   5.141   2.244  0.1063  0.2007  0.3485
  170MOL    C8740985   3.410   5.203   2.158 -0.3536  0.7136 -0.5703
  170MOL    C8840986   3.476   5.088   2.078  0.0080  0.0365  0.2164
  170MOL    C8940987   3.363   5.318   2.061  0.3692  0.0342 -0.1377
  170MOL    C9040988   3.482   5.387   1.992 -0.2160 -0.4365 -0.1595
  170MOL    O9140989   3.520   5.340   1.882  0.6408  1.0943  0.6401
  170MOL    H9240990   3.481   5.247   2.229 -2.1501  1.6215  0.7222
  170MOL    H9340991   3.566   5.130   2.032  0.8500 -1.2598  0.6632
  170MOL    H9440992   3.413   5.040   2.002  0.8018  0.2833 -0.6157
  170MOL    H9540993   3.519   5.011   2.141  1.0712  1.4254  1.2325
  170MOL    H9640994   3.315   5.392   2.125  0.7066 -0.9111  1.2222
  170MOL    H9740995   3.295   5.271   1.991  1.8877 -1.4307 -0.6744
  170MOL    O9840996   3.540   5.488   2.057  0.2716 -0.0053  0.1394
  170MOL    C9940997   3.654   5.554   2.003  0.1253 -0.0171 -0.1220
  170MOL   C10040998   3.640   5.693   2.051 -0.0789  0.8564  0.1862
  170MOL   C10140999   3.786   5.482   2.061  0.0609  0.8082  0.4744
  170MOL   C10241000   3.916   5.519   1.997  0.2382 -0.3988  0.3801
  170MOL   O10341001   3.969   5.443   1.917  0.5846  0.2614 -0.4239
  170MOL   H10441002   3.659   5.545   1.894  0.5444  0.2533 -0.1302
  170MOL   H10541003   3.715   5.758   2.005  0.8163  0.0067  0.4259
  170MOL   H10641004   3.631   5.700   2.159  0.6983 -2.3934  0.5183
  170MOL   H10741005   3.554   5.736   1.999  0.3849  0.3515 -1.0286
  170MOL   H10841006   3.774   5.374   2.057 -2.9005  1.1181 -0.1176
  170MOL   H10941007   3.808   5.512   2.163  4.8017 -1.2343  0.1670
  170MOL   O11041008   3.961   5.641   2.050  0.0006  0.0305  0.5760
  170MOL   C11141009   4.086   5.698   1.999 -0.1534  0.1221 -0.8272
  170MOL   C11241010   4.041   5.836   1.942  0.2050 -0.4948 -0.4300
  170MOL   C11341011   4.190   5.705   2.112  0.2616  0.3675  0.3579
  170MOL   C11441012   4.332   5.689   2.076  0.2495  0.4510  0.0228
  170MOL   O11541013   4.371   5.706   1.959 -0.2405 -0.3304 -0.1721
  170MOL   H11641014   4.124   5.631   1.922  1.2477  0.0265 -0.0760
  170MOL   H11741015   4.117   5.909   1.913 -0.8559  0.5846 -0.5108
  170MOL   H11841016   3.969   5.887   2.005  1.0856  0.3879 -0.1163
  170MOL   H11941017   3.993   5.815   1.847  1.2111 -0.7080 -0.9045
  170MOL   H12041018   4.168   5.629   2.187 -0.2806  0.2109  0.0480
  170MOL   H12141019   4.190   5.797   2.170  2.1418 -1.8563  4.0741
  170MOL   O12241020   4.406   5.641   2.182 -0.3045 -0.1579 -0.1548
  170MOL   C12341021   4.540   5.588   2.165  0.2382  0.3115 -0.3977
  170MOL   C12441022   4.622   5.667   2.268 -0.1190 -0.4249 -0.1952
  170MOL   C12541023   4.540   5.442   2.197  0.1139 -0.0644  0.2336
  170MOL   C12641024   4.503   5.351   2.079 -0.3179 -0.7138 -0.0712
  170MOL   O12741025   4.579   5.268   2.034  0.3192  0.4405 -0.9037
  170MOL   H12841026   4.580   5.622   2.070 -0.1567  3.5226  0.5239
  170MOL   H12941027   4.632   5.773   2.244  0.1758 -0.2795  0.5435
  170MOL   H13041028   4.725   5.634   2.279  1.1718  2.7657 -2.1536
  170MOL   H13141029   4.584   5.661   2.370  1.4754 -0.3100  0.4156
  170MOL   H13241030   4.464   5.416   2.270 -0.0430 -1.5528 -0.4373
  170MOL   H13341031   4.639   5.414   2.233  0.4365  0.3517 -0.3081
  170MOL   O13441032   4.382   5.383   2.023 -0.0852 -0.3273 -0.1779
  170MOL   C13541033   4.345   5.303   1.909  0.3703  0.4941 -0.1835
  170MOL   C13641034   4.245   5.198   1.963  0.2039 -0.6993  0.1028
  170MOL   C13741035   4.295   5.402   1.803 -0.1259  0.3265  0.2709
  170MOL   C13841036   4.272   5.331   1.670  0.1752 -0.2080 -0.0193
  170MOL   O13941037   4.281   5.211   1.662  0.2635  0.3258  0.3014
  170MOL   H14041038   4.433   5.257   1.866 -0.9615 -2.0359 -0.3164
  170MOL   H14141039   4.236   5.113   1.896  0.5711 -1.1715  0.6458
  170MOL   H14241040   4.148   5.246   1.974  1.4150  1.6458  1.1242
  170MOL   H14341041   4.268   5.160   2.062  1.3088 -2.1776 -0.6946
  170MOL   H14441042   4.367   5.483   1.796 -0.5202  0.6297 -0.3323
  170MOL   H14541043   4.203   5.453   1.830 -0.4896  0.3325 -0.9484
  170MOL   O14641044   4.240   5.412   1.579 -0.0554 -0.0932  0.5639
  170MOL   C14741045   4.172   5.373   1.465 -1.4250  0.0981  0.1205
  170MOL   C14841046   4.022   5.362   1.495 -0.1426 -0.0783  0.6897
  170MOL   C14941047   4.210   5.479   1.363 -0.5312 -0.4963 -0.0466
  170MOL   C15041048   4.164   5.465   1.215 -0.2087 -0.4876  0.1375
  170MOL   O15141049   4.078   5.538   1.168 -0.2864  0.3452  1.1222
  170MOL   H15241050   4.203   5.273   1.435  0.5850  0.3290  1.3389
  170MOL   H15341051   3.975   5.453   1.533 -1.3522 -0.7030  0.7125
  170MOL   H15441052   4.003   5.283   1.567 -0.8278 -1.7160 -1.2596
  170MOL   H15541053   3.972   5.348   1.399  0.8692 -0.1925  0.1729
  170MOL   H15641054   4.319   5.484   1.360 -0.5998  0.2943 -1.8509
  170MOL   H15741055   4.173   5.577   1.393  1.6408 -0.0666  1.3626
  170MOL   O15841056   4.229   5.357   1.164  0.5648  0.1896  0.1269
  170MOL   C15941057   4.226   5.334   1.029 -0.9867 -0.2301  0.2191
  170MOL   C16041058   4.340   5.257   0.984 -0.3103  0.5620  0.4929
  170MOL   C16141059   4.103   5.262   0.984 -0.2018 -0.8453  0.4113
  170MOL   C16241060   4.068   5.301   0.840 -0.5467  0.0764  0.0237
  170MOL   O16341061   4.071   5.424   0.815  0.6858 -0.6233 -0.1476
  170MOL   H16441062   4.244   5.432   0.984  1.1223  0.4409  2.4255
  170MOL   H16541063   4.432   5.310   1.006  0.6175 -1.7134  2.2177
  170MOL   H16641064   4.333   5.246   0.876  0.6724 -1.4068  0.6131
  170MOL   H16741065   4.345   5.162   1.036 -2.1571 -0.5508 -1.2750
  170MOL   H16841066   4.018   5.302   1.040 -0.5177 -2.5356  1.1515
  170MOL   H16941067   4.108   5.155   0.999  0.0933 -0.5618  2.4125
  170MOL   O17041068   4.064   5.196   0.758  0.2348  0.3851  0.0027
  170MOL   C17141069   4.050   5.217   0.614  0.0174 -0.0445  0.7132
  170MOL   C17241070   4.051   5.076   0.566 -0.0146  0.2986  0.4199
  170MOL   C17341071   3.925   5.299   0.579  0.6520 -0.6919  0.0943
  170MOL   C17441072   3.923   5.347   0.434 -0.0003 -0.9422  0.0169
  170MOL   O17541073   4.016   5.417   0.394  0.4573  0.3116  0.0780
  170MOL   H17641074   4.135   5.275   0.580 -0.5767 -0.6944 -1.9495
  170MOL   H17741075   3.967   5.014   0.597 -0.1662 -0.0243 -0.6352
  170MOL   H17841076   4.139   5.027   0.608 -0.3770  0.2259  1.1054
  170MOL   H17941077   4.051   5.057   0.459 -0.2823 -2.4917  0.8769
  170MOL   H18041078   3.912   5.385   0.644  0.5152 -1.3374  0.9395
  170MOL   H18141079   3.838   5.233   0.590  0.0748 -0.2581 -1.6123
  170MOL   O18241080   3.818   5.317   0.357  0.2488 -0.4658 -0.7914
  170MOL   C18341081   3.809   5.384   0.238  0.3135 -0.0277  0.1821
  170MOL   C18441082   3.892   5.308   0.128 -0.0119 -0.8421 -0.1779
  170MOL   C18541083   3.651   5.373   0.203 -0.3506  1.0310 -0.6189
  170MOL   C18641084   3.600   5.455   0.085  0.0119 -0.2336 -0.0758
  170MOL   O18741085   3.653   5.561   0.049  0.2475 -0.2067  0.0021
  170MOL   H18841086   3.826   5.491   0.246 -0.6164  0.0801  0.6977
  170MOL   H18941087   3.885   5.361   0.033 -4.0736  0.6485  0.8691
  170MOL   H19041088   3.848   5.208   0.121 -1.6464  0.0298 -2.9866
  170MOL   H19141089   3.995   5.313   0.164 -0.2310 -1.3445  0.5427
  170MOL   H19241090   3.589   5.413   0.284 -1.7994 -2.8823  0.2930
  170MOL   H19341091   3.618   5.269   0.202  0.7115  0.6648  0.5831
  170MOL   O19441092   3.486   5.403   0.035 -0.6790 -0.4285  0.3137
  170MOL   C19541093   3.412   5.475   7.911  0.1048 -0.6349  0.2190
  170MOL   C19641094   3.491   5.467   7.775 -0.7371  0.1062  0.7503
  170MOL   C19741095   3.275   5.414   7.915 -0.4068 -0.3187  0.2120
  170MOL   C19841096   3.186   5.490   7.821  0.6005  0.4189 -0.0699
  170MOL   O19941097   3.147   5.446   7.716 -0.2506 -0.0620 -0.3442
  170MOL   H20041098   3.406   5.581   7.937  2.8751 -0.1544 -0.9855
  170MOL   H20141099   3.437   5.510   7.690 -0.5510 -2.5200 -0.7571
  170MOL   H20241100   3.509   5.362   7.751  1.4812  0.9669 -1.6124
  170MOL   H20341101   3.585   5.522   7.781 -0.8214  0.1994  1.1918
  170MOL   H20441102   3.222   5.427   0.030  2.5275  1.3974  1.6709
  170MOL   H20541103   3.287   5.306   7.907  0.0449 -0.3415  1.1816
  170MOL   O20641104   3.155   5.610   7.874 -0.0317  0.3027  0.8268
  170MOL   C20741105   3.062   5.703   7.813  0.3417  0.0607 -0.1134
  170MOL   C20841106   2.961   5.746   7.922  0.0287 -0.3425  0.8423
  170MOL   C20941107   3.151   5.816   7.759 -0.1547  0.2661 -0.0616
  170MOL   C21041108   3.090   5.947   7.703  0.3478  0.1555  0.5781
  170MOL   O21141109   3.110   6.055   7.762 -0.6784  0.6572  0.6470
  170MOL   H21241110   3.013   5.649   7.731  0.6788 -2.1932  1.1097
  170MOL   H21341111   3.005   5.808   0.021 -0.2463  0.1810  0.5882
  170MOL   H21441112   2.916   5.656   7.964  0.1542 -1.3069 -1.0318
  170MOL   H21541113   2.883   5.811   7.883  1.9952  1.1982 -0.6260
  170MOL   H21641114   3.213   5.777   7.678  1.1346 -2.9620  2.3715
  170MOL   H21741115   3.235   5.845   7.822  0.3023  0.2486 -0.6565
  170MOL   O21841116   3.010   5.927   7.586  0.3667  0.5296  0.0224
  170MOL   C21941117   2.957   6.043   7.532 -0.5554 -0.6455 -0.9883
  170MOL   C22041118   2.937   6.014   7.382  0.2136 -0.7809  0.1066
  170MOL   C22141119   2.820   6.076   7.593 -0.6932  0.1732 -0.1275
  170MOL   C22241120   2.712   5.977   7.587 -0.0579  0.4500 -0.1005
  170MOL   O22341121   2.711   5.876   7.662  0.1614  0.4912  0.2588
  170MOL   H22441122   3.028   6.125   7.540 -2.1637  0.5447  2.0421
  170MOL   H22541123   2.881   5.924   7.356 -0.1162 -0.9586  1.3710
  170MOL   H22641124   3.032   6.007   7.329  0.3977 -0.2988  0.3694
  170MOL   H22741125   2.903   6.098   7.321 -0.6004 -2.4436 -1.7982
  170MOL   H22841126   2.784   6.171   7.552  0.9560  0.7762 -0.1977
  170MOL   H22941127   2.835   6.096   7.699 -2.9124  0.7537  0.1018
  170MOL   O23041128   2.624   6.005   7.487 -0.0840  0.4259 -0.4834
  170MOL   C23141129   2.522   5.912   7.438 -0.6930 -0.2610 -0.0701
  170MOL   C23241130   2.386   5.922   7.507 -0.1820 -0.6611  0.0098
  170MOL   C23341131   2.507   5.932   7.285  0.4612  0.1989 -0.9565
  170MOL   C23441132   2.614   5.863   7.207 -0.2241 -0.6599 -0.6949
  170MOL   O23541133   2.606   5.856   7.081 -0.5883 -0.1177  0.1117
  170MOL   H23641134   2.552   5.808   7.449 -1.9850 -0.7262 -0.7404
  170MOL   H23741135   2.307   5.870   7.453 -1.3649  0.3965  0.6761
  170MOL   H23841136   2.354   6.027   7.503  1.4484  0.0010  2.8463
  170MOL   H23941137   2.380   5.895   7.613  0.1129 -1.1867 -0.1089
  170MOL   H24041138   2.496   6.037   7.259 -1.2483  0.3983  0.4972
  170MOL   H24141139   2.413   5.891   7.248 -0.5209  0.6243  0.9974
  170MOL   H24241140   2.697   5.821   7.265  0.3204  0.5066 -0.6073
  171MOL     O141141   0.014   7.901   1.627  0.0059  0.7960  0.0129
  171MOL     C241142   7.895   0.003   1.698 -0.4742  0.0083 -0.0373
  171MOL     C341143   7.764   7.910   1.692  0.2442  0.5338 -0.7014
  171MOL     C441144   7.948   0.018   1.845 -0.6837 -0.1510 -0.2706
  171MOL     C541145   7.865   0.113   1.936 -0.1731 -0.4315  0.0377
  171MOL     O641146   7.798   0.072   2.030 -0.3627 -0.5552 -0.8821
  171MOL     H741147   7.881   0.099   1.647 -0.1579  0.4565  0.7038
  171MOL     H841148   7.773   7.811   1.738 -0.0857  2.1141  2.9378
  171MOL     H941149   7.726   7.894   1.591 -0.1096 -0.0471 -0.4853
  171MOL    H1041150   7.691   7.965   1.752  0.9607 -0.0811  0.7487
  171MOL    H1141151   0.063   0.073   1.846 -0.3767 -0.6750 -0.4103
  171MOL    H1241152   7.962   7.905   1.900 -2.0709 -0.0298  0.3066
  171MOL    H1341153   0.101   7.936   1.641 -0.2417  2.3208 -2.0798
  171MOL    O1441154   7.881   0.242   1.905  0.7953  0.1886 -0.1165
  171MOL    C1541155   7.827   0.336   1.997 -0.1707 -0.3520  0.8043
  171MOL    C1641156   7.931   0.448   2.021  0.7393  0.6629  0.5942
  171MOL    C1741157   7.682   0.368   1.942  0.4534  0.1232 -0.4334
  171MOL    C1841158   7.601   0.429   2.056 -0.2934  0.7100  0.4918
  171MOL    O1941159   7.642   0.529   2.117  0.7787  0.0714  0.0427
  171MOL    H2041160   7.813   0.297   2.098  2.1234  0.7572  1.5796
  171MOL    H2141161   7.918   0.526   1.946  2.1724  0.1572 -0.2099
  171MOL    H2241162   0.051   0.409   2.039  0.0186 -0.5037  2.1241
  171MOL    H2341163   7.913   0.508   2.110  1.8802 -0.0426  1.3173
  171MOL    H2441164   7.635   0.273   1.915  2.8859 -1.1481 -0.3783
  171MOL    H2541165   7.679   0.434   1.856  1.9455 -0.8481 -1.2607
  171MOL    O2641166   7.485   0.367   2.086  0.5600  0.0951 -0.2428
  171MOL    C2741167   7.393   0.405   2.180  0.4648  0.6088 -0.0513
  171MOL    C2841168   7.296   0.510   2.117 -0.3269 -0.8725 -0.3300
  171MOL    C2941169   7.328   0.294   2.257  0.4946  0.0923  0.7891
  171MOL    C3041170   7.416   0.206   2.342 -0.0331 -0.0775 -0.2525
  171MOL    O3141171   7.541   0.220   2.361  0.5766  0.5579 -0.1063
  171MOL    H3241172   7.454   0.455   2.255 -0.8037 -0.8840  2.0282
  171MOL    H3341173   7.222   0.546   2.188  1.7460  0.4608  1.2144
  171MOL    H3441174   7.232   0.465   2.041 -0.7272  1.3076 -1.3402
  171MOL    H3541175   7.351   0.599   2.084  0.2127 -1.3777 -0.8142
  171MOL    H3641176   7.280   0.225   2.188 -1.5397 -0.8868  3.0960
  171MOL    H3741177   7.255   0.333   2.329  0.4274 -0.6239  1.1156
  171MOL    O3841178   7.343   0.105   2.399 -0.0434  0.4113  0.2659
  171MOL    C3941179   7.404   7.971   2.464 -0.0040 -0.3424  0.0429
  171MOL    C4041180   7.344   7.963   2.604  0.3143  0.7122 -0.1651
  171MOL    C4141181   7.359   7.852   2.372 -0.8903  0.8127  0.0195
  171MOL    C4241182   7.425   7.719   2.406  0.6486 -0.2057 -0.6898
  171MOL    O4341183   7.500   7.699   2.501  0.2265  0.3090  0.6832
  171MOL    H4441184   7.510   0.009   2.478 -0.5895  2.6593  1.0576
  171MOL    H4541185   7.351   0.067   2.673 -2.6140 -0.5726  1.7927
  171MOL    H4641186   7.390   7.879   2.656  1.7801  1.8709  0.4135
  171MOL    H4741187   7.237   7.947   2.592  0.0057  1.4543  1.5077
  171MOL    H4841188   7.379   7.885   2.270 -0.6435 -0.9528 -0.5147
  171MOL    H4941189   7.251   7.853   2.383 -0.9164 -0.6057 -0.0719
  171MOL    O5041190   7.383   7.629   2.336  0.7845 -0.0274 -0.0797
  171MOL    C5141191   7.421   7.491   2.350  0.6866  0.0960 -0.3675
  171MOL    C5241192   7.286   7.422   2.383  0.0174 -0.4482  0.6432
  171MOL    C5341193   7.481   7.430   2.229 -0.0958  0.0469  0.5857
  171MOL    C5441194   7.628   7.451   2.216 -0.7518 -0.8853  0.1986
  171MOL    O5541195   7.706   7.361   2.242 -0.2497  0.3652  0.5693
  171MOL    H5641196   7.485   7.479   2.437 -2.2969 -1.1678  1.7660
  171MOL    H5741197   7.262   7.428   2.490 -1.3188  0.7794  0.2846
  171MOL    H5841198   7.283   7.315   2.364 -2.6892  0.1277 -2.5264
  171MOL    H5941199   7.216   7.472   2.316  1.0217 -0.5876 -0.5130
  171MOL    H6041200   7.437   7.483   2.145  0.4862 -1.0508 -0.4208
  171MOL    H6141201   7.464   7.322   2.227 -1.5159  0.2820 -0.1856
  171MOL    O6241202   7.659   7.577   2.186 -0.1114  0.4554 -0.6351
  171MOL    C6341203   7.801   7.619   2.195 -0.2879  0.5399  0.2714
  171MOL    C6441204   7.817   7.760   2.132 -0.3049  0.2785 -0.4364
  171MOL    C6541205   7.848   7.624   2.344  0.0460 -0.1304  0.0668
  171MOL    C6641206   7.977   7.543   2.379  0.5596 -0.5436 -0.6999
  171MOL    O6741207   0.067   7.489   2.292 -0.4778 -0.4620 -0.1421
  171MOL    H6841208   7.861   7.552   2.134  0.7710  1.6002  0.1244
  171MOL    H6941209   7.793   7.774   2.027 -1.2333 -2.6336 -0.6471
  171MOL    H7041210   7.922   7.789   2.136 -0.0880 -0.3610 -1.3460
  171MOL    H7141211   7.759   7.835   2.187 -0.7642  0.3698 -1.0405
  171MOL    H7241212   7.767   7.589   2.407  0.6751 -1.9443 -0.1132
  171MOL    H7341213   7.872   7.726   2.374  1.4019  0.2121 -2.0483
  171MOL    O7441214   0.027   7.551   2.508 -0.0149  0.4123  0.1929
  171MOL    C7541215   0.150   7.513   2.559  0.5976 -0.1569 -1.2175
  171MOL    C7641216   0.197   7.622   2.655  0.0928  0.1431  0.0473
  171MOL    C7741217   0.161   7.373   2.616 -0.4972  0.5494 -0.2246
  171MOL    C7841218   0.304   7.307   2.626 -0.0201  0.0231 -0.5839
  171MOL    O7941219   0.354   7.265   2.731 -0.5588 -0.1436 -0.3509
  171MOL    H8041220   0.215   7.492   2.474 -0.2910 -0.4179 -1.8399
  171MOL    H8141221   0.305   7.616   2.666 -0.1428  0.0760  2.7673
  171MOL    H8241222   0.145   7.620   2.752  1.7536  0.8745  0.9700
  171MOL    H8341223   0.177   7.720   2.612 -0.7594  0.0451  0.1907
  171MOL    H8441224   0.105   7.300   2.557  0.2966  0.1955 -0.5422
  171MOL    H8541225   0.116   7.367   2.715 -1.7891  0.0625 -0.8325
  171MOL    O8641226   0.368   7.303   2.507  0.6723  0.0507 -0.0671
  171MOL    C8741227   0.502   7.271   2.496 -0.2034  1.0748 -0.4277
  171MOL    C8841228   0.520   7.129   2.441 -0.0199  0.6115  0.6928
  171MOL    C8941229   0.572   7.387   2.426  0.0178 -0.6691  0.0243
  171MOL    C9041230   0.539   7.524   2.485  0.5881 -0.3261  0.2101
  171MOL    O9141231   0.549   7.547   2.604  0.2430  0.3231 -0.2479
  171MOL    H9241232   0.556   7.263   2.590  0.8650  1.6631 -0.9749
  171MOL    H9341233   0.473   7.136   2.343  1.8795  1.0536 -0.1959
  171MOL    H9441234   0.475   7.052   2.504  0.3898  1.6204  2.2410
  171MOL    H9541235   0.622   7.100   2.418 -0.4622 -1.5582  1.3490
  171MOL    H9641236   0.530   7.388   2.325 -1.0731 -1.2580  0.4614
  171MOL    H9741237   0.679   7.364   2.428 -0.1253 -1.9542 -3.2129
  171MOL    O9841238   0.493   7.611   2.397  0.4194  0.0445 -0.2609
  171MOL    C9941239   0.463   7.748   2.431  0.0459  0.7684  0.0234
  171MOL   C10041240   0.580   7.844   2.406 -0.5610 -0.1625 -0.1297
  171MOL   C10141241   0.332   7.790   2.358  0.1486 -0.1635 -0.6988
  171MOL   C10241242   0.329   7.776   2.205  1.0294  0.4051  0.6773
  171MOL   O10341243   0.361   7.868   2.127  0.8911 -1.1817 -0.0716
  171MOL   H10441244   0.441   7.754   2.537 -1.6629  0.4547 -0.3069
  171MOL   H10541245   0.607   7.855   2.301 -0.5116 -0.3012 -0.1310
  171MOL   H10641246   0.667   7.809   2.462 -1.6631 -0.1221  1.6570
  171MOL   H10741247   0.563   7.942   2.451 -3.3863 -0.5405 -0.2826
  171MOL   H10841248   0.324   7.898   2.373 -1.6893 -0.4752  0.6984
  171MOL   H10941249   0.245   7.737   2.398 -0.2709  1.5816  0.7523
  171MOL   O11041250   0.281   7.656   2.171 -0.4753  0.3845  0.3619
  171MOL   C11141251   0.294   7.605   2.050 -0.1095  0.1793 -0.3194
  171MOL   C11241252   0.321   7.455   2.055  0.0140 -0.1981  0.0646
  171MOL   C11341253   0.173   7.646   1.957  0.2767 -0.4299  0.0518
  171MOL   C11441254   0.174   7.604   1.810 -0.2731  0.3357 -0.5117
  171MOL   O11541255   0.260   7.650   1.732  0.3176  0.0887 -0.2374
  171MOL   H11641256   0.383   7.655   2.012 -0.3839  2.4295  1.9185
  171MOL   H11741257   0.400   7.423   2.124 -0.5764  0.6121  1.1412
  171MOL   H11841258   0.357   7.429   1.956  0.6360  1.5463 -0.1906
  171MOL   H11941259   0.230   7.401   2.080  0.5195 -1.1007 -0.0323
  171MOL   H12041260   0.163   7.754   1.969  2.4534 -0.1731 -0.2346
  171MOL   H12141261   0.075   7.606   1.982 -0.6640 -0.2487 -3.1940
  171MOL   O12241262   0.080   7.516   1.782 -0.0967  0.6044  0.0769
  171MOL   C12341263   0.081   7.448   1.657  0.1064  0.1411 -0.3554
  171MOL   C12441264   0.067   7.297   1.703 -0.4900 -0.1591  0.0846
  171MOL   C12541265   7.935   7.499   1.572  0.2433  0.6993  0.4154
  171MOL   C12641266   7.912   7.441   1.427  0.5518  0.1321 -0.2303
  171MOL   O12741267   0.004   7.350   1.394 -0.1556  0.8653  0.2471
  171MOL   H12841268   0.174   7.460   1.602  0.1319  0.3700 -0.2625
  171MOL   H12941269   0.153   7.268   1.762  0.7706 -0.9391 -2.0889
  171MOL   H13041270   0.083   7.239   1.612  2.0703  0.0359  0.3760
  171MOL   H13141271   7.952   7.258   1.742  0.0868  0.0916  1.7629
  171MOL   H13241272   7.939   7.608   1.576 -1.4636  0.7182  2.0757
  171MOL   H13341273   7.847   7.479   1.633 -1.3127  1.2683 -1.5730
  171MOL   O13441274   7.819   7.501   1.359 -0.7898 -0.3201 -0.7970
  171MOL   C13541275   7.782   7.463   1.232 -0.6253 -0.2479  0.2129
  171MOL   C13641276   7.669   7.358   1.236 -0.0495  0.5776 -0.3355
  171MOL   C13741277   7.743   7.585   1.149 -0.1633  0.0365  0.0869
  171MOL   C13841278   7.727   7.553   0.994 -0.9381  0.1916 -0.2442
  171MOL   O13941279   7.791   7.465   0.940  0.3525  0.0687 -0.4157
  171MOL   H14041280   7.866   7.417   1.180 -0.3623 -1.3209  1.5716
  171MOL   H14141281   7.634   7.347   1.133 -0.0735  1.9778 -0.4919
  171MOL   H14241282   7.581   7.369   1.299 -0.6148 -0.4767 -0.9250
  171MOL   H14341283   7.706   7.263   1.274  0.0703  0.3321 -1.0602
  171MOL   H14441284   7.820   7.659   1.170  2.5721 -2.5209 -0.5821
  171MOL   H14541285   7.641   7.611   1.178 -0.9670 -1.9823 -0.8062
  171MOL   O14641286   7.659   7.652   0.932  0.2385  0.4724 -0.2998
  171MOL   C14741287   7.609   7.643   0.793 -0.4538 -0.2905 -0.0442
  171MOL   C14841288   7.457   7.630   0.781  0.7616 -0.0951 -0.5084
  171MOL   C14941289   7.656   7.759   0.707  0.0875 -0.3182 -0.2531
  171MOL   C15041290   7.805   7.759   0.670  0.0797 -0.4237 -0.2301
  171MOL   O15141291   7.841   7.737   0.554 -0.1042  0.5697  0.3826
  171MOL   H15241292   7.638   7.553   0.740 -1.4544 -0.8736  0.3705
  171MOL   H15341293   7.388   7.707   0.815  0.0595 -0.7534 -0.4283
  171MOL   H15441294   7.431   7.533   0.824  1.8871  0.5832  1.8056
  171MOL   H15541295   7.438   7.611   0.675 -0.9060 -2.1030  0.1241
  171MOL   H15641296   7.617   7.854   0.744  2.5580 -0.3374  2.6141
  171MOL   H15741297   7.602   7.744   0.613  2.5361 -0.8606 -1.6183
  171MOL   O15841298   7.887   7.806   0.774  0.0834 -0.2050 -0.1567
  171MOL   C15941299   0.045   7.799   0.764 -0.4940  0.5988 -1.3196
  171MOL   C16041300   0.100   7.915   0.847  0.1769  0.1796 -0.2877
  171MOL   C16141301   0.101   7.664   0.810 -0.3376  0.3409 -0.2172
  171MOL   C16241302   0.250   7.632   0.778 -0.1256  0.6315 -0.0428
  171MOL   O16341303   0.321   7.712   0.719 -0.2868  0.7453  0.2881
  171MOL   H16441304   0.083   7.811   0.663  2.5089 -1.8204 -0.5424
  171MOL   H16541305   0.208   7.916   0.859  0.0811  0.8117  0.4940
  171MOL   H16641306   0.063   7.917   0.949 -0.4347 -2.1055 -0.4417
  171MOL   H16741307   0.070   0.028   0.799 -1.7889 -0.1259  0.3323
  171MOL   H16841308   0.059   7.588   0.744  0.6460 -0.0989 -0.3557
  171MOL   H16941309   0.075   7.642   0.913 -1.8591  0.3678 -0.5908
  171MOL   O17041310   0.285   7.520   0.835 -0.0853 -0.1712  0.3853
  171MOL   C17141311   0.422   7.491   0.864  0.1108  0.4056 -0.0497
  171MOL   C17241312   0.471   7.554   0.995  0.0154 -0.3440 -0.1070
  171MOL   C17341313   0.454   7.339   0.854 -0.0188 -0.1946 -0.4573
  171MOL   C17441314   0.393   7.252   0.959  0.2397  0.2241  0.1467
  171MOL   O17541315   0.458   7.214   1.061  0.3254 -0.6107 -0.3466
  171MOL   H17641316   0.483   7.547   0.793 -3.6314  1.4658 -2.5833
  171MOL   H17741317   0.396   7.536   1.072 -1.8284  0.9694 -1.5259
  171MOL   H17841318   0.460   7.662   0.978  0.5794 -0.3017 -0.1980
  171MOL   H17941319   0.573   7.527   1.021  0.6784  2.7073  0.6698
  171MOL   H18041320   0.563   7.333   0.858 -0.1568 -2.4164  0.3014
  171MOL   H18141321   0.430   7.300   0.755 -1.8245  2.2961 -1.0569
  171MOL   O18241322   0.272   7.206   0.920  0.2008  0.2452  0.3417
  171MOL   C18341323   0.185   7.151   1.013  0.1954  0.3778 -0.0626
  171MOL   C18441324   0.098   7.255   1.089 -0.0619 -0.2695 -0.2719
  171MOL   C18541325   0.095   7.053   0.938 -0.2016  0.8074  0.5185
  171MOL   C18641326   0.030   6.953   1.035 -0.3617  0.5674 -0.8842
  171MOL   O18741327   7.898   6.971   1.086  0.4119  0.1483  0.3276
  171MOL   H18841328   0.244   7.090   1.082 -3.0215  0.8400  3.2775
  171MOL   H18941329   0.161   7.333   1.131 -0.5847 -0.0740  0.1562
  171MOL   H19041330   0.033   7.220   1.170  0.6330  1.5588  1.1027
  171MOL   H19141331   0.027   7.306   1.024  1.4429 -0.4747 -2.1453
  171MOL   H19241332   0.146   7.002   0.857 -1.2741 -1.0422  0.9614
  171MOL   H19341333   0.018   7.104   0.880  0.7117 -1.1248 -2.5086
  171MOL   O19441334   0.099   6.846   1.049 -0.0921 -0.1642 -0.1762
  171MOL   C19541335   0.074   6.749   1.154 -0.3004  0.6321 -0.7157
  171MOL   C19641336   7.961   6.646   1.105 -0.2113 -0.2957 -0.2732
  171MOL   C19741337   0.205   6.680   1.189 -0.7266  0.1978 -0.6272
  171MOL   C19841338   0.309   6.766   1.264 -0.2620 -0.1834 -0.6357
  171MOL   O19941339   0.425   6.742   1.255  0.2763 -0.2337  0.1929
  171MOL   H20041340   0.023   6.791   1.240 -1.4064 -0.5927 -0.7519
  171MOL   H20141341   0.008   6.622   1.002  0.6970 -0.0530 -0.0993
  171MOL   H20241342   7.859   6.685   1.103 -0.2427 -0.1888  1.9066
  171MOL   H20341343   7.965   6.557   1.167 -3.4705 -0.7386 -0.6007
  171MOL   H20441344   0.251   6.658   1.093  1.1220 -0.4716  0.3738
  171MOL   H20541345   0.195   6.589   1.249  1.2172  1.6461  2.0119
  171MOL   O20641346   0.252   6.874   1.323  0.1696  0.5156  0.3475
  171MOL   C20741347   0.328   6.971   1.390  0.4656  0.0594  0.2768
  171MOL   C20841348   0.243   7.095   1.392 -0.3693 -0.6594  0.6359
  171MOL   C20941349   0.362   6.917   1.535 -0.7618  0.0060 -0.2632
  171MOL   C21041350   0.467   6.992   1.614 -0.5315 -0.2857 -1.0795
  171MOL   O21141351   0.450   7.039   1.723 -0.0243  0.2710  0.4421
  171MOL   H21241352   0.418   6.982   1.330 -0.1689 -1.5332 -1.0128
  171MOL   H21341353   0.257   7.153   1.484 -1.2307 -0.7742  0.8399
  171MOL   H21441354   0.135   7.081   1.388 -0.3652 -0.9659  1.4171
  171MOL   H21541355   0.269   7.159   1.308  0.5667  0.7242  1.9349
  171MOL   H21641356   0.416   6.823   1.520 -0.4805 -0.1039  1.3468
  171MOL   H21741357   0.279   6.899   1.603 -1.5755 -2.8172 -1.9081
  171MOL   O21841358   0.583   7.012   1.550 -0.2460  0.8504 -0.1685
  171MOL   C21941359   0.688   7.088   1.618  0.0342  0.0439  0.4758
  171MOL   C22041360   0.792   6.990   1.684  0.3912  1.0383  0.0248
  171MOL   C22141361   0.743   7.177   1.509  0.2584  0.6423  0.6773
  171MOL   C22241362   0.816   7.103   1.396  0.3272  0.4959  0.3468
  171MOL   O22341363   0.933   7.100   1.398 -0.4231 -0.0414  0.6357
  171MOL   H22441364   0.652   7.152   1.698  2.6196  2.7651 -0.4352
  171MOL   H22541365   0.743   6.947   1.771 -0.3782  0.2725 -0.7674
  171MOL   H22641366   0.884   7.044   1.701  1.3694 -0.1889 -1.2378
  171MOL   H22741367   0.805   6.906   1.616  1.9723 -0.7644  2.4920
  171MOL   H22841368   0.817   7.245   1.552  0.2140  0.3803  1.1727
  171MOL   H22941369   0.662   7.236   1.466 -1.7444 -2.1927  0.4172
  171MOL   O23041370   0.739   7.041   1.296 -0.2286  0.0678  0.5413
  171MOL   C23141371   0.791   6.982   1.185 -0.3163 -0.4376  0.7690
  171MOL   C23241372   0.739   6.832   1.177 -0.5369  0.6154  0.4809
  171MOL   C23341373   0.740   7.059   1.056 -0.1812  0.6622  0.1045
  171MOL   C23441374   0.831   7.179   1.024  0.1851  0.6514 -0.1502
  171MOL   O23541375   0.949   7.164   1.006 -0.1863 -0.0739  0.2803
  171MOL   H23641376   0.900   6.977   1.180 -0.2489  0.5511  1.1733
  171MOL   H23741377   0.637   6.826   1.140 -0.4600  2.0470  0.0303
  171MOL   H23841378   0.743   6.783   1.275  0.5244 -0.5133 -0.1156
  171MOL   H23941379   0.804   6.779   1.108  1.4338  4.4515 -0.7716
  171MOL   H24041380   0.636   7.090   1.071 -0.9641 -1.5437 -0.5269
  171MOL   H24141381   0.731   6.995   0.969 -1.7085  0.1443  0.6238
  171MOL   H24241382   0.772   7.271   1.021 -0.1514  0.4510  0.2014
  172MOL     O141383   2.683   5.950   6.238 -0.2447  0.2668 -0.6987
  172MOL     C241384   2.773   5.845   6.231  0.0769  0.2755  0.4351
  172MOL     C341385   2.814   5.814   6.088 -0.5898  0.1166  0.2945
  172MOL     C441386   2.897   5.887   6.307 -0.0994  0.0448  0.0606
  172MOL     C541387   2.966   5.756   6.357 -0.0367 -0.4283 -0.7107
  172MOL     O641388   2.994   5.745   6.468  0.1801 -0.1100 -0.4426
  172MOL     H741389   2.719   5.762   6.276 -0.7649  1.4336  1.6189
  172MOL     H841390   2.905   5.764   6.055 -1.3095  0.6487 -2.5620
  172MOL     H941391   2.798   5.909   6.038 -0.6427 -0.5477 -0.9518
  172MOL    H1041392   2.745   5.753   6.030 -1.1538  2.4887 -1.6034
  172MOL    H1141393   2.870   5.956   6.387  0.6590 -0.0062  0.3679
  172MOL    H1241394   2.967   5.933   6.238  0.4550  1.1530  1.3289
  172MOL    H1341395   2.647   5.949   6.325 -0.3891 -0.1312 -0.7628
  172MOL    O1441396   3.008   5.668   6.261  0.2066 -0.1842  0.3439
  172MOL    C1541397   3.110   5.564   6.293 -0.7962 -0.2368  0.4169
  172MOL    C1641398   3.036   5.435   6.305 -0.0141 -0.3984 -0.5053
  172MOL    C1741399   3.220   5.570   6.188 -0.1552 -0.2083  0.3866
  172MOL    C1841400   3.329   5.466   6.213  0.1782  0.4154 -0.8585
  172MOL    O1941401   3.407   5.481   6.308  0.2289  0.1369  0.6199
  172MOL    H2041402   3.151   5.581   6.393  1.2425  0.9112 -0.5879
  172MOL    H2141403   2.979   5.409   6.216  0.0979 -2.0582 -0.1000
  172MOL    H2241404   2.959   5.434   6.381 -1.9719 -2.9272 -2.4483
  172MOL    H2341405   3.096   5.353   6.344 -1.0198 -0.2437  1.4265
  172MOL    H2441406   3.267   5.668   6.189  0.3535 -0.3748 -2.0631
  172MOL    H2541407   3.182   5.555   6.087  2.5190 -0.3982 -0.6470
  172MOL    O2641408   3.321   5.354   6.136 -0.5540 -0.2320 -0.1014
  172MOL    C2741409   3.427   5.259   6.158 -0.1717  0.6324  0.7350
  172MOL    C2841410   3.380   5.119   6.118  0.8603 -0.4587  0.1735
  172MOL    C2941411   3.565   5.308   6.105  0.1666  0.4344 -0.0664
  172MOL    C3041412   3.604   5.261   5.967 -0.0828 -0.2867 -0.0935
  172MOL    O3141413   3.567   5.327   5.871  0.2419 -0.6320  0.4545
  172MOL    H3241414   3.439   5.251   6.266 -0.3179 -0.2202  0.6916
  172MOL    H3341415   3.453   5.041   6.139  0.1471 -0.4966  2.6662
  172MOL    H3441416   3.348   5.103   6.015 -0.6428 -1.8422  0.8263
  172MOL    H3541417   3.290   5.095   6.176  0.4208 -0.8503 -0.6633
  172MOL    H3641418   3.643   5.279   6.176  1.0525  0.3671 -1.0598
  172MOL    H3741419   3.560   5.416   6.099 -1.5351  0.5768  3.0142
  172MOL    O3841420   3.677   5.150   5.966 -0.2985  0.2180  0.2029
  172MOL    C3941421   3.690   5.079   5.839  0.1471  0.2985  0.2058
  172MOL    C4041422   3.837   5.041   5.824  0.4499  0.2218 -0.1725
  172MOL    C4141423   3.585   4.960   5.813 -0.4869 -0.0094 -0.7591
  172MOL    C4241424   3.594   4.841   5.901 -0.4717  0.1177  0.0599
  172MOL    O4341425   3.699   4.782   5.925 -0.7411  0.5037  0.3554
  172MOL    H4441426   3.685   5.149   5.756  0.4655  0.6732  0.4983
  172MOL    H4541427   3.891   5.003   5.911  1.3958  0.1082 -0.7993
  172MOL    H4641428   3.890   5.130   5.789  2.1160 -0.7849 -0.2577
  172MOL    H4741429   3.852   4.973   5.739  0.8814  2.0190 -1.5664
  172MOL    H4841430   3.616   4.924   5.715  1.1854  1.4480 -0.7934
  172MOL    H4941431   3.482   4.995   5.808  0.6768  3.4609 -3.0529
  172MOL    O5041432   3.473   4.807   5.954 -0.1660 -0.7432 -0.4900
  172MOL    C5141433   3.459   4.691   6.023 -0.1298 -0.2592 -0.2965
  172MOL    C5241434   3.328   4.684   6.097 -0.4663 -0.2565  0.1889
  172MOL    C5341435   3.479   4.566   5.938  0.0745  0.3461  0.0849
  172MOL    C5441436   3.378   4.550   5.831  0.1327  0.2450 -0.7263
  172MOL    O5541437   3.287   4.470   5.843 -0.1913 -0.1876 -0.3199
  172MOL    H5641438   3.537   4.693   6.099 -0.3550 -0.0750 -0.0729
  172MOL    H5741439   3.331   4.742   6.189 -0.2529  0.0513 -0.0119
  172MOL    H5841440   3.285   4.587   6.123  0.4725 -0.4465  1.0414
  172MOL    H5941441   3.256   4.731   6.029 -1.0687 -1.3402  0.0549
  172MOL    H6041442   3.482   4.479   6.004 -0.1680  0.0125 -0.3435
  172MOL    H6141443   3.570   4.563   5.878 -0.5610 -0.1139 -0.8672
  172MOL    O6241444   3.417   4.622   5.718  0.6989  0.2587 -0.2985
  172MOL    C6341445   3.346   4.626   5.595 -0.3110 -0.1259  0.0608
  172MOL    C6441446   3.348   4.772   5.554  0.3231  1.2973  0.6772
  172MOL    C6541447   3.372   4.518   5.482 -0.1324 -0.0727 -0.2883
  172MOL    C6641448   3.256   4.512   5.380  0.1040 -0.0573  0.4533
  172MOL    O6741449   3.168   4.421   5.381 -0.4440 -0.3212  0.3183
  172MOL    H6841450   3.240   4.613   5.621 -1.1670  0.1019 -3.1287
  172MOL    H6941451   3.314   4.819   5.646  0.5149 -0.8752  1.8950
  172MOL    H7041452   3.270   4.789   5.479  0.1956 -1.4993  0.0950
  172MOL    H7141453   3.439   4.812   5.510  0.2305 -0.6457 -1.4123
  172MOL    H7241454   3.373   4.419   5.528  0.4733  0.3012  0.5158
  172MOL    H7341455   3.475   4.531   5.449 -0.5104 -0.1125 -1.5059
  172MOL    O7441456   3.255   4.616   5.299  0.0485  0.0873  0.2819
  172MOL    C7541457   3.159   4.627   5.197 -0.3062 -0.2491 -0.7716
  172MOL    C7641458   3.062   4.726   5.265 -0.2637 -0.0866 -0.0195
  172MOL    C7741459   3.231   4.689   5.077  0.0533  0.4772 -0.1992
  172MOL    C7841460   3.306   4.587   4.992  0.1182 -0.1067 -0.1017
  172MOL    O7941461   3.281   4.566   4.878 -0.8218 -0.3641  0.1325
  172MOL    H8041462   3.110   4.531   5.181  1.4381 -1.0060 -1.7008
  172MOL    H8141463   2.982   4.766   5.203 -0.1503 -0.2229 -0.2526
  172MOL    H8241464   3.127   4.804   5.305  1.3572 -1.1289 -0.5933
  172MOL    H8341465   3.010   4.671   5.344 -2.1825 -2.0381 -2.5542
  172MOL    H8441466   3.306   4.760   5.110  0.7374 -0.7641  0.9636
  172MOL    H8541467   3.160   4.742   5.013 -0.9972 -0.0808  0.4895
  172MOL    O8641468   3.411   4.535   5.059  0.7599 -0.0314  0.7861
  172MOL    C8741469   3.495   4.432   5.008 -0.1599 -0.1443 -0.0431
  172MOL    C8841470   3.635   4.507   5.003  0.4681  0.1820  0.6102
  172MOL    C8941471   3.490   4.319   5.106  0.3349 -0.1573  0.6608
  172MOL    C9041472   3.593   4.210   5.083 -0.2984  0.4832 -0.1159
  172MOL    O9141473   3.673   4.185   5.178 -0.0002 -0.1798 -0.2509
  172MOL    H9241474   3.453   4.398   4.913 -0.6650  0.5868 -0.0915
  172MOL    H9341475   3.637   4.598   4.944 -0.5894 -0.8175 -1.0085
  172MOL    H9441476   3.696   4.437   4.947 -0.3652 -0.0761  0.0061
  172MOL    H9541477   3.662   4.543   5.103 -0.3310 -0.7302  1.1759
  172MOL    H9641478   3.385   4.292   5.111  0.1083  0.4551 -0.4735
  172MOL    H9741479   3.515   4.358   5.205  1.0443 -0.6880  0.6908
  172MOL    O9841480   3.580   4.150   4.969  0.3170 -0.5918 -0.7252
  172MOL    C9941481   3.660   4.039   4.943 -0.6410  0.5824  0.2062
  172MOL   C10041482   3.587   3.906   4.894 -1.0093 -0.1225 -0.2048
  172MOL   C10141483   3.772   4.084   4.847  0.3497 -0.6908  0.8303
  172MOL   C10241484   3.727   4.117   4.705  0.3891 -0.1254 -0.4361
  172MOL   O10341485   3.731   4.035   4.608 -0.1780  0.2266 -0.5164
  172MOL   H10441486   3.709   4.003   5.034  1.0749 -0.4989 -1.1108
  172MOL   H10541487   3.643   3.818   4.926 -0.4085 -0.4082 -1.9526
  172MOL   H10641488   3.547   3.909   4.793  0.7873  0.9036 -0.9179
  172MOL   H10741489   3.502   3.896   4.961 -0.0326  1.1031  1.2440
  172MOL   H10841490   3.843   4.002   4.848  2.7757  1.3100 -1.5085
  172MOL   H10941491   3.840   4.164   4.876 -0.6817 -0.0329  1.5026
  172MOL   O11041492   3.683   4.249   4.691 -0.6238 -0.1431 -0.3562
  172MOL   C11141493   3.623   4.293   4.567  0.6086 -0.6234  0.7709
  172MOL   C11241494   3.559   4.433   4.588 -0.2598 -0.6053 -0.3605
  172MOL   C11341495   3.739   4.302   4.460  0.0306  0.2378  0.0608
  172MOL   C11441496   3.683   4.313   4.323  0.1687  0.1109 -0.1592
  172MOL   O11541497   3.580   4.256   4.285 -0.4456  0.0738  0.0988
  172MOL   H11641498   3.558   4.216   4.527 -0.9267  1.8623 -1.6697
  172MOL   H11741499   3.527   4.464   4.488 -2.3222  2.4266  1.1498
  172MOL   H11841500   3.631   4.507   4.621 -1.2856  0.6771 -0.9579
  172MOL   H11941501   3.473   4.438   4.654 -0.3565 -2.0610 -0.3532
  172MOL   H12041502   3.809   4.219   4.465 -1.4318 -0.9395  1.3864
  172MOL   H12141503   3.804   4.388   4.478  3.4561 -2.2632  0.1992
  172MOL   O12241504   3.745   4.403   4.258 -0.2726  0.0395 -0.0395
  172MOL   C12341505   3.729   4.431   4.115  0.4825  0.4178  0.0407
  172MOL   C12441506   3.701   4.583   4.112 -0.2875 -0.3736  0.3390
  172MOL   C12541507   3.861   4.398   4.045  0.7361 -0.3866 -0.4373
  172MOL   C12641508   3.851   4.435   3.900  1.1572 -0.5809 -0.5197
  172MOL   O12741509   3.943   4.496   3.850 -0.3238  0.4337 -0.1977
  172MOL   H12841510   3.650   4.366   4.079 -0.1799  1.2146  0.0405
  172MOL   H12941511   3.679   4.609   4.009  1.9983  2.7119  0.5599
  172MOL   H13041512   3.784   4.645   4.148 -1.9597  2.6050 -0.7977
  172MOL   H13141513   3.611   4.610   4.167  2.4346  2.2969  3.6987
  172MOL   H13241514   3.880   4.294   4.069 -1.2275 -0.4661  0.8881
  172MOL   H13341515   3.940   4.453   4.096 -0.5636  0.1862  0.9654
  172MOL   O13441516   3.751   4.380   3.834  0.0551 -0.2979  0.8372
  172MOL   C13541517   3.730   4.396   3.694  0.2017  0.5085 -0.2544
  172MOL   C13641518   3.793   4.282   3.627  0.6167 -0.3669  0.2908
  172MOL   C13741519   3.582   4.408   3.670  0.6896  0.3621  0.5374
  172MOL   C13841520   3.565   4.468   3.527  0.3773 -0.2191 -0.7442
  172MOL   O13941521   3.597   4.582   3.498 -0.3047 -1.2035 -0.2670
  172MOL   H14041522   3.785   4.482   3.655  1.0566  0.1706  0.1848
  172MOL   H14141523   3.756   4.190   3.671  0.3119 -1.0066 -1.2571
  172MOL   H14241524   3.902   4.287   3.635  0.6972 -2.9611  1.3175
  172MOL   H14341525   3.778   4.288   3.519 -0.0534  1.9681  0.4796
  172MOL   H14441526   3.529   4.474   3.738 -0.6986  1.6323 -1.6879
  172MOL   H14541527   3.535   4.310   3.683  1.5036 -0.3372 -1.5242
  172MOL   O14641528   3.509   4.380   3.438  0.3698  0.1564 -0.2622
  172MOL   C14741529   3.516   4.403   3.299  0.0404  1.0322  1.4813
  172MOL   C14841530   3.593   4.284   3.237  0.4174 -0.5827  0.1325
  172MOL   C14941531   3.376   4.419   3.235 -0.3110 -0.8195  0.0609
  172MOL   C15041532   3.304   4.543   3.284  0.1910 -0.0789 -0.0362
  172MOL   O15141533   3.202   4.533   3.352  0.0642  0.3982  0.0537
  172MOL   H15241534   3.581   4.486   3.271  0.8414  0.1099  0.5567
  172MOL   H15341535   3.534   4.197   3.265  1.8616 -1.7148 -0.2634
  172MOL   H15441536   3.696   4.268   3.269  0.7239 -0.0584 -0.5706
  172MOL   H15541537   3.592   4.290   3.128 -2.1617  0.2255  0.1583
  172MOL   H15641538   3.316   4.331   3.256 -1.9741  0.5665  1.2502
  172MOL   H15741539   3.383   4.434   3.127  2.8576  2.5157  0.6034
  172MOL   O15841540   3.371   4.650   3.255  0.4451  0.1365  0.0010
  172MOL   C15941541   3.335   4.775   3.313 -0.4873 -0.3510 -0.2484
  172MOL   C16041542   3.450   4.872   3.308 -0.0265 -0.0003  0.0434
  172MOL   C16141543   3.211   4.831   3.250  0.0541 -0.2006  0.1426
  172MOL   C16241544   3.164   4.967   3.304  0.7880  0.0186  0.8750
  172MOL   O16341545   3.144   5.056   3.229  0.1070  0.0088 -0.3228
  172MOL   H16441546   3.328   4.745   3.417 -0.0933 -1.1083 -0.4401
  172MOL   H16541547   3.478   4.908   3.210  3.3271 -0.5132  0.7681
  172MOL   H16641548   3.543   4.823   3.337 -0.2144 -0.2006  0.3203
  172MOL   H16741549   3.440   4.957   3.376 -2.3504  2.1152 -2.8506
  172MOL   H16841550   3.127   4.764   3.268  0.0593  0.0972  1.3265
  172MOL   H16941551   3.226   4.837   3.143  1.6069  3.6893  0.4813
  172MOL   O17041552   3.142   4.965   3.432  0.1003 -0.3325  0.1453
  172MOL   C17141553   3.080   5.077   3.484  0.4328 -0.4959 -0.5128
  172MOL   C17241554   2.926   5.085   3.462 -0.8951 -0.4399 -0.6129
  172MOL   C17341555   3.112   5.075   3.631  0.1786 -0.6323 -0.0886
  172MOL   C17441556   3.236   5.145   3.673  0.1965 -0.5604 -0.2322
  172MOL   O17541557   3.338   5.148   3.602  0.0839  0.3913 -0.3925
  172MOL   H17641558   3.119   5.170   3.442 -1.0132  0.0763 -0.6492
  172MOL   H17741559   2.884   4.986   3.484  0.5478 -1.0459 -0.5574
  172MOL   H17841560   2.906   5.120   3.361 -2.3492  0.2921 -0.0847
  172MOL   H17941561   2.867   5.158   3.517  0.1132 -0.6579  0.7593
  172MOL   H18041562   3.135   4.971   3.657  2.0385 -0.7042 -1.9370
  172MOL   H18141563   3.026   5.121   3.679  0.8645  1.5039 -0.8657
  172MOL   O18241564   3.219   5.207   3.790 -0.4772 -0.2846  0.0739
  172MOL   C18341565   3.325   5.271   3.861 -0.6781 -0.6949 -0.3030
  172MOL   C18441566   3.315   5.420   3.832 -0.1765 -0.2050 -0.2028
  172MOL   C18541567   3.313   5.243   4.014  0.5380 -0.4552 -0.3265
  172MOL   C18641568   3.434   5.282   4.090 -0.3415 -0.5931  0.2082
  172MOL   O18741569   3.432   5.391   4.155 -0.2352 -0.3052  0.0661
  172MOL   H18841570   3.424   5.240   3.827  0.1580  0.6629  0.8360
  172MOL   H18941571   3.400   5.472   3.878  0.8466  0.9775 -3.2961
  172MOL   H19041572   3.226   5.469   3.872 -0.4986  0.6596 -1.9365
  172MOL   H19141573   3.322   5.436   3.725  0.7902 -2.5791 -0.5229
  172MOL   H19241574   3.277   5.146   4.049  0.5316  0.2052  1.5735
  172MOL   H19341575   3.241   5.318   4.045  1.1013 -1.1240  2.7563
  172MOL   O19441576   3.541   5.203   4.085  0.6747  1.3704  0.2227
  172MOL   C19541577   3.669   5.243   4.134  0.3560 -0.5613  0.2353
  172MOL   C19641578   3.696   5.189   4.279  0.4930  0.9217 -0.0107
  172MOL   C19741579   3.772   5.197   4.033  0.6321 -0.1967  0.2429
  172MOL   C19841580   3.759   5.262   3.895 -0.0920 -0.3049  0.2146
  172MOL   O19941581   3.760   5.188   3.799  0.6584 -0.4747 -0.1838
  172MOL   H20041582   3.671   5.352   4.135  0.6063 -0.5707  1.3241
  172MOL   H20141583   3.628   5.238   4.348 -0.3778  0.3322 -0.4421
  172MOL   H20241584   3.796   5.213   4.315 -0.2709  3.0929  0.6785
  172MOL   H20341585   3.671   5.083   4.276  0.1685  0.9718  0.8303
  172MOL   H20441586   3.758   5.089   4.033 -1.1583  0.0118  0.6490
  172MOL   H20541587   3.871   5.213   4.075  0.2440 -1.3013  1.6360
  172MOL   O20641588   3.752   5.388   3.901  0.4175  0.0308  0.3529
  172MOL   C20741589   3.767   5.466   3.785  0.0462  0.6801  0.4353
  172MOL   C20841590   3.640   5.529   3.733  0.5157 -0.0908  0.1580
  172MOL   C20941591   3.887   5.562   3.803 -0.9864  0.5009  0.2889
  172MOL   C21041592   4.015   5.488   3.774  0.4271 -0.2414  1.3780
  172MOL   O21141593   4.045   5.384   3.838  0.5539 -0.2381 -0.2263
  172MOL   H21241594   3.799   5.402   3.702  1.5144  0.9527  0.7670
  172MOL   H21341595   3.579   5.580   3.808 -1.6297 -0.8925 -0.9848
  172MOL   H21441596   3.577   5.457   3.681 -1.4469  1.1187  0.7928
  172MOL   H21541597   3.658   5.603   3.655 -0.4618 -0.5413 -0.5030
  172MOL   H21641598   3.886   5.605   3.903  2.3980  1.1263  0.0995
  172MOL   H21741599   3.894   5.641   3.728 -1.4926  1.0183  0.7720
  172MOL   O21841600   4.080   5.543   3.681 -0.1793  0.5160 -0.3235
  172MOL   C21941601   4.206   5.490   3.638 -1.2808  0.0845 -0.1532
  172MOL   C22041602   4.195   5.449   3.492 -0.4341 -0.8500 -0.6778
  172MOL   C22141603   4.314   5.596   3.671 -0.0495  0.1434  0.2754
  172MOL   C22241604   4.305   5.730   3.614  0.5009 -0.2566  0.0866
  172MOL   O22341605   4.214   5.758   3.534  0.3030 -0.4768  0.0496
  172MOL   H22441606   4.226   5.404   3.703 -1.8760 -0.4404 -0.6562
  172MOL   H22541607   4.174   5.529   3.421 -1.8834  0.0430  0.7064
  172MOL   H22641608   4.118   5.377   3.464 -0.6640 -0.4510 -1.0813
  172MOL   H22741609   4.291   5.409   3.459 -0.1413 -1.0077  0.3376
  172MOL   H22841610   4.415   5.558   3.656 -0.4983 -1.1102  0.3765
  172MOL   H22941611   4.329   5.609   3.778  2.7368 -0.5674  0.0142
  172MOL   O23041612   4.414   5.809   3.629  0.1445 -0.0024  0.4186
  172MOL   C23141613   4.442   5.925   3.547  0.2774  0.5083 -0.1242
  172MOL   C23241614   4.436   6.056   3.629 -0.3881  0.0321  0.0901
  172MOL   C23341615   4.580   5.892   3.483 -0.4719  0.0863  0.0524
  172MOL   C23441616   4.629   6.002   3.394  0.1457  0.6838 -0.4615
  172MOL   O23541617   4.748   6.022   3.397 -0.1026 -0.0941 -0.1800
  172MOL   H23641618   4.370   5.936   3.467  0.4720 -0.7511 -0.4928
  172MOL   H23741619   4.496   6.054   3.721  0.3354 -1.4263 -0.4007
  172MOL   H23841620   4.332   6.079   3.648  0.0762  0.6199  2.1223
  172MOL   H23941621   4.479   6.137   3.571  1.3654 -0.4646  0.6427
  172MOL   H24041622   4.583   5.800   3.425 -2.2077  1.0001 -1.5413
  172MOL   H24141623   4.662   5.884   3.555  1.3172  0.3155 -1.9100
  172MOL   H24241624   4.553   6.055   3.337 -1.6881 -0.8736  0.4687
  173MOL     O141625   0.709   0.527   6.682  0.4914  0.2389 -0.7700
  173MOL     C241626   0.638   0.645   6.705 -0.3414  0.1231 -0.1579
  173MOL     C341627   0.597   0.689   6.566 -0.0164  0.0150  0.4311
  173MOL     C441628   0.521   0.634   6.803  0.1078  0.1965  0.3524
  173MOL     C541629   0.459   0.762   6.848 -0.2098 -0.3084  0.0647
  173MOL     O641630   0.347   0.795   6.807 -0.3424 -0.1031  0.3249
  173MOL     H741631   0.709   0.720   6.741 -0.3559 -0.0217  0.1700
  173MOL     H841632   0.502   0.742   6.565  0.3622  0.7468 -2.7154
  173MOL     H941633   0.573   0.598   6.511 -0.1269 -1.0219  2.1656
  173MOL    H1041634   0.662   0.736   6.492  1.3001  0.5592  1.9123
  173MOL    H1141635   0.561   0.582   6.890  0.0104 -0.1696  0.1814
  173MOL    H1241636   0.453   0.562   6.757 -0.2157  0.5404  0.2841
  173MOL    H1341637   0.776   0.515   6.747  1.4119  1.7836 -1.4022
  173MOL    O1441638   0.549   0.831   6.925  0.3211  0.2506 -0.1774
  173MOL    C1541639   0.523   0.970   6.948 -0.3709 -0.3035 -0.1134
  173MOL    C1641640   0.590   0.997   7.082 -0.0353  0.0931  0.2911
  173MOL    C1741641   0.593   1.030   6.822 -0.3584 -0.7945  0.1886
  173MOL    C1841642   0.714   1.123   6.850  0.8693  0.5383 -0.1977
  173MOL    O1941643   0.824   1.074   6.879 -0.1756 -0.0697 -0.3724
  173MOL    H2041644   0.424   1.014   6.952  0.1371  0.8340  0.1740
  173MOL    H2141645   0.521   0.949   7.152 -1.2207  0.2677 -0.7417
  173MOL    H2241646   0.592   1.101   7.115 -0.5497  1.0622 -2.6397
  173MOL    H2341647   0.686   0.947   7.096 -0.0919 -0.8444 -2.4832
  173MOL    H2441648   0.527   1.100   6.772  0.6470  2.0427  2.7018
  173MOL    H2541649   0.630   0.955   6.751  1.1870 -3.1096  3.3133
  173MOL    O2641650   0.684   1.256   6.846 -0.2518  0.7134 -0.3929
  173MOL    C2741651   0.779   1.354   6.889  0.0817 -0.3384  0.2710
  173MOL    C2841652   0.780   1.482   6.808  0.1395  0.0911 -0.0580
  173MOL    C2941653   0.777   1.382   7.040 -0.6217  0.2991 -0.0560
  173MOL    C3041654   0.648   1.439   7.089 -0.2358 -0.3282 -0.2473
  173MOL    O3141655   0.643   1.553   7.139 -0.1629  0.0919 -0.3316
  173MOL    H3241656   0.876   1.308   6.873  0.1400 -1.4046  3.3324
  173MOL    H3341657   0.704   1.552   6.842  1.1268  0.4486  1.4575
  173MOL    H3441658   0.747   1.447   6.709 -1.6909 -0.2121  0.6294
  173MOL    H3541659   0.875   1.534   6.806 -0.3093  0.9270  0.0932
  173MOL    H3641660   0.857   1.451   7.065 -0.1573 -0.8641  1.7653
  173MOL    H3741661   0.799   1.291   7.095 -0.9672 -0.2481 -0.8136
  173MOL    O3841662   0.546   1.353   7.088 -0.2930  0.5732 -0.6338
  173MOL    C3941663   0.414   1.384   7.136  0.1685 -0.0699  0.7386
  173MOL    C4041664   0.317   1.318   7.039  0.1080  0.4619  0.2585
  173MOL    C4141665   0.398   1.345   7.281  0.0093 -0.5292  0.7310
  173MOL    C4241666   0.272   1.392   7.349  0.3910 -0.5531  0.5295
  173MOL    O4341667   0.204   1.478   7.295 -0.2768  0.1418 -0.1305
  173MOL    H4441668   0.406   1.492   7.126  2.7819  0.1943  1.0746
  173MOL    H4541669   0.317   1.209   7.040  0.8685  0.4577  0.1973
  173MOL    H4641670   0.332   1.347   6.935  2.2314  1.1581  0.7389
  173MOL    H4741671   0.214   1.341   7.065 -0.3449 -1.7677  0.5759
  173MOL    H4841672   0.490   1.381   7.327  0.4884 -1.0472  0.1827
  173MOL    H4941673   0.413   1.238   7.291  1.7026 -0.7494 -3.0377
  173MOL    O5041674   0.244   1.325   7.459  0.0380  0.5118  0.0482
  173MOL    C5141675   0.138   1.368   7.544 -0.1594  0.1031 -0.3916
  173MOL    C5241676   0.086   1.233   7.595 -0.2415 -0.5858  0.5980
  173MOL    C5341677   0.208   1.442   7.661 -0.1223 -0.4728 -0.2388
  173MOL    C5441678   0.125   1.527   7.759  0.7886 -0.1008  0.0151
  173MOL    O5541679   0.015   1.484   7.800  0.0782  0.0693 -0.3624
  173MOL    H5641680   0.053   1.415   7.494  0.5560  2.4705  0.5433
  173MOL    H5741681   0.166   1.192   7.655  0.4920  0.8501  0.6313
  173MOL    H5841682   0.072   1.168   7.508  1.0832 -1.8379  1.3097
  173MOL    H5941683   0.005   1.241   7.668  0.6298 -1.2409  1.6333
  173MOL    H6041684   0.299   1.487   7.621  0.9852 -1.6627  0.9125
  173MOL    H6141685   0.249   1.371   7.733 -1.2345 -0.8271  0.0582
  173MOL    O6241686   0.181   1.632   7.814  0.0549 -0.6873 -0.3362
  173MOL    C6341687   0.110   1.716   7.910  0.1376  0.2788 -0.1879
  173MOL    C6441688   0.135   1.663   0.075  0.4366 -0.4518  0.2155
  173MOL    C6541689   0.159   1.856   7.889 -0.4695 -0.7237  0.1102
  173MOL    C6641690   0.138   1.904   7.744  0.0689  0.6685 -0.4276
  173MOL    O6741691   0.233   1.922   7.666 -0.0115  0.7126  0.5686
  173MOL    H6841692   0.002   1.713   7.896  0.3009 -0.9831 -1.2544
  173MOL    H6941693   0.241   1.659   0.096  0.8835  0.1334 -1.7971
  173MOL    H7041694   0.093   1.565   0.097  1.7968 -1.4505 -1.5306
  173MOL    H7141695   0.088   1.729   0.147 -0.3057  1.2181 -1.7372
  173MOL    H7241696   0.267   1.866   7.902 -0.2529  1.4799 -2.7297
  173MOL    H7341697   0.099   1.921   7.952 -1.0316  0.1579 -1.3105
  173MOL    O7441698   0.006   1.914   7.725  0.0616 -0.0703  0.3335
  173MOL    C7541699   7.924   1.943   7.596 -0.8294 -0.7026  0.0184
  173MOL    C7641700   7.777   1.905   7.624  0.3193  0.0837  0.3345
  173MOL    C7741701   7.947   2.089   7.550  0.1599  0.1588  0.0901
  173MOL    C7841702   7.904   2.112   7.405  0.0624 -0.0073  0.1372
  173MOL    O7941703   0.012   2.132   7.316  0.0569 -0.6069 -0.2925
  173MOL    H8041704   7.956   1.870   7.522  0.2535  1.5633 -1.8179
  173MOL    H8141705   7.780   1.800   7.655 -3.5084 -1.0746 -2.7793
  173MOL    H8241706   7.710   1.917   7.539 -1.2931 -1.8771  1.2791
  173MOL    H8341707   7.734   1.965   7.705  2.0367  1.8155 -0.0233
  173MOL    H8441708   0.075   2.105   7.546  0.5547 -2.1078  0.8706
  173MOL    H8541709   7.906   2.152   7.628 -0.7586 -1.4360  0.9348
  173MOL    O8641710   7.771   2.117   7.380  0.4225 -0.4608  0.2330
  173MOL    C8741711   7.717   2.114   7.248 -0.3455 -0.3721 -0.6746
  173MOL    C8841712   7.577   2.048   7.278  0.2981 -0.2350 -0.6329
  173MOL    C8941713   7.720   2.251   7.182 -0.7783  0.5799 -0.2224
  173MOL    C9041714   7.654   2.257   7.043  0.0334  0.1930 -0.0591
  173MOL    O9141715   7.646   2.159   6.970  0.1742 -0.5022  0.4733
  173MOL    H9241716   7.775   2.048   7.185  1.0582 -0.7026  0.9244
  173MOL    H9341717   7.588   1.950   7.324  0.5100 -0.9624 -2.1835
  173MOL    H9441718   7.511   2.023   7.195 -1.1634  0.6060  0.2570
  173MOL    H9541719   7.525   2.109   7.352  2.2610  2.4895 -1.3860
  173MOL    H9641720   7.826   2.270   7.171 -0.7697  0.0086 -1.1877
  173MOL    H9741721   7.677   2.326   7.249 -0.5642 -0.8916  1.5805
  173MOL    O9841722   7.617   2.375   7.015 -0.3721 -0.5454  0.9585
  173MOL    C9941723   7.552   2.411   6.893 -0.0329 -0.4390  0.2200
  173MOL   C10041724   7.420   2.484   6.918 -1.0679  0.4716  0.1321
  173MOL   C10141725   7.658   2.497   6.815 -0.1973  0.5910  0.2952
  173MOL   C10241726   7.597   2.579   6.701  0.5085 -0.2987  0.7179
  173MOL   O10341727   7.561   2.700   6.715 -0.0330 -0.5138 -0.1217
  173MOL   H10441728   7.529   2.324   6.831 -3.5624  1.6145 -1.4793
  173MOL   H10541729   7.353   2.478   6.832 -1.3489 -0.8037  0.4283
  173MOL   H10641730   7.451   2.583   6.952  0.7468  0.0134 -0.1676
  173MOL   H10741731   7.364   2.433   6.996  1.4869  0.7703  2.2298
  173MOL   H10841732   7.741   2.441   6.772 -0.0683 -0.3336  1.7364
  173MOL   H10941733   7.703   2.571   6.881 -1.7620  1.1826  0.7206
  173MOL   O11041734   7.576   2.507   6.589 -0.0669 -0.1981  0.3545
  173MOL   C11141735   7.487   2.554   6.491  0.5767  0.1693 -0.1476
  173MOL   C11241736   7.528   2.507   6.359  0.2287  0.3132  0.2507
  173MOL   C11341737   7.342   2.527   6.536 -0.0006  0.7015  0.3078
  173MOL   C11441738   7.235   2.597   6.452 -1.0456 -0.6260 -0.3573
  173MOL   O11541739   7.215   2.718   6.467  0.5731  0.3218 -0.2875
  173MOL   H11641740   7.501   2.662   6.485  0.1422  0.1257 -2.3711
  173MOL   H11741741   7.542   2.399   6.355  0.0160  0.3140 -0.5533
  173MOL   H11841742   7.628   2.539   6.330  0.6986 -1.0430  0.3114
  173MOL   H11941743   7.461   2.534   6.277 -1.0719  1.5314  1.6979
  173MOL   H12041744   7.327   2.548   6.642 -1.7370 -3.5139  0.9981
  173MOL   H12141745   7.331   2.420   6.518  0.5739  0.6821  0.0782
  173MOL   O12241746   7.173   2.511   6.372  0.1382  0.2691 -0.3242
  173MOL   C12341747   7.065   2.555   6.286  0.2118 -0.1200 -0.0302
  173MOL   C12441748   7.079   2.487   6.141 -0.9298 -0.6413  0.1179
  173MOL   C12541749   6.930   2.519   6.346  0.2262 -0.5907 -0.9869
  173MOL   C12641750   6.815   2.572   6.269 -0.9337 -0.2259  0.4124
  173MOL   O12741751   6.731   2.503   6.217  0.0081  0.1504 -0.6267
  173MOL   H12841752   7.059   2.663   6.270 -1.8128 -0.0068  1.3573
  173MOL   H12941753   7.068   2.378   6.148 -0.7153 -0.7272 -0.8705
  173MOL   H13041754   7.175   2.514   6.099 -0.7109 -1.4634  0.0740
  173MOL   H13141755   7.003   2.516   6.069  0.1208 -0.2294 -0.8331
  173MOL   H13241756   6.926   2.573   6.441  0.3197 -0.9036 -0.8052
  173MOL   H13341757   6.926   2.415   6.378 -1.0174 -0.1534  0.3074
  173MOL   O13441758   6.807   2.708   6.280 -0.0971  0.0680  0.3970
  173MOL   C13541759   6.701   2.780   6.213  0.5748 -0.2141  0.3245
  173MOL   C13641760   6.599   2.834   6.317 -0.7338  0.5286 -0.0402
  173MOL   C13741761   6.744   2.891   6.111 -0.2961  0.8823 -0.0018
  173MOL   C13841762   6.809   3.003   6.174  0.2637  0.1036  0.1076
  173MOL   O13941763   6.738   3.075   6.244 -0.2880  0.4557 -0.2968
  173MOL   H14041764   6.637   2.712   6.158  0.5895  0.8457 -1.0146
  173MOL   H14141765   6.642   2.894   6.397 -1.2990  1.5290 -0.4874
  173MOL   H14241766   6.560   2.745   6.368  2.4390 -1.9219 -1.6830
  173MOL   H14341767   6.514   2.890   6.278 -0.4084  0.6417 -0.5903
  173MOL   H14441768   6.658   2.926   6.054 -0.2090 -0.4829 -1.0100
  173MOL   H14541769   6.800   2.846   6.029  0.7769 -0.1086  1.2463
  173MOL   O14641770   6.949   3.003   6.160 -0.2749 -0.5457 -0.0750
  173MOL   C14741771   7.035   3.083   6.249 -0.4261 -0.2900  0.5395
  173MOL   C14841772   7.169   3.008   6.259  0.1497  0.3107 -0.3941
  173MOL   C14941773   7.045   3.233   6.198 -0.2690 -0.4049 -0.2698
  173MOL   C15041774   7.087   3.325   6.312 -0.1472  0.1905 -0.2093
  173MOL   O15141775   7.012   3.419   6.343 -0.4208 -0.5136  0.5428
  173MOL   H15241776   6.982   3.083   6.344  1.0077 -0.2227  1.3599
  173MOL   H15341777   7.229   3.022   6.169  1.0862 -1.0194  0.0058
  173MOL   H15441778   7.170   2.904   6.291  1.7537 -0.0302 -1.4986
  173MOL   H15541779   7.236   3.053   6.333 -0.5088 -0.2741  0.5721
  173MOL   H15641780   6.958   3.272   6.145  0.9899  0.1269 -2.0099
  173MOL   H15741781   7.120   3.229   6.119  1.1686  0.1754  1.0431
  173MOL   O15841782   7.207   3.300   6.368  0.1265 -0.0629  0.0040
  173MOL   C15941783   7.248   3.362   6.484  0.1814 -0.4401 -0.2051
  173MOL   C16041784   7.205   3.273   6.601  0.0393  0.6464  1.0354
  173MOL   C16141785   7.399   3.394   6.477 -0.1929  0.4180  0.3651
  173MOL   C16241786   7.491   3.280   6.497 -0.3404 -0.2928 -0.7215
  173MOL   O16341787   7.581   3.284   6.582  0.1881 -0.1232 -0.6214
  173MOL   H16441788   7.210   3.464   6.497 -0.3351 -0.4199 -1.7651
  173MOL   H16541789   7.247   3.172   6.595 -0.7182  0.4610 -1.9237
  173MOL   H16641790   7.098   3.279   6.620 -0.5542  3.0543 -2.6047
  173MOL   H16741791   7.244   3.323   6.690  1.6779  0.6320  0.3527
  173MOL   H16841792   7.423   3.469   6.552  1.6053  0.0614  0.1632
  173MOL   H16941793   7.421   3.437   6.379 -1.0257  1.2424  0.5256
  173MOL   O17041794   7.485   3.182   6.403 -0.4877  0.0508  0.6104
  173MOL   C17141795   7.560   3.059   6.417  0.1708 -0.6394 -0.3171
  173MOL   C17241796   7.481   2.959   6.508  0.9401  0.4343 -0.6980
  173MOL   C17341797   7.583   3.005   6.275  0.7605 -0.2754 -0.0670
  173MOL   C17441798   7.687   2.887   6.268 -0.3638 -0.0394  0.2956
  173MOL   O17541799   7.665   2.780   6.211 -0.0435 -0.1325  0.2635
  173MOL   H17641800   7.650   3.088   6.472  1.4303  0.7605 -3.0308
  173MOL   H17741801   7.379   2.934   6.479 -0.0962  1.1590  2.1238
  173MOL   H17841802   7.474   3.000   6.609  0.3038 -2.0144  0.2744
  173MOL   H17941803   7.537   2.871   6.541  1.1344  0.3835 -1.1587
  173MOL   H18041804   7.621   3.091   6.220 -0.8937  0.4644 -0.0875
  173MOL   H18141805   7.491   2.982   6.221  0.0081  3.6937 -0.5883
  173MOL   O18241806   7.799   2.913   6.334  0.5433 -0.3103  0.8934
  173MOL   C18341807   7.907   2.825   6.319 -0.2690  0.3636  0.1701
  173MOL   C18441808   0.057   2.905   6.287  0.1030  0.4719  0.0374
  173MOL   C18541809   7.914   2.733   6.444 -0.7668 -0.8768  0.1246
  173MOL   C18641810   7.970   2.603   6.412  0.2161  0.1852 -0.8899
  173MOL   O18741811   7.914   2.515   6.349 -0.1631 -0.3081  0.3533
  173MOL   H18841812   7.892   2.755   6.237 -2.8196  2.4012 -1.1530
  173MOL   H18941813   0.037   2.955   6.192 -0.8055  0.0865  0.0234
  173MOL   H19041814   0.140   2.834   6.281 -0.1927  0.0778  0.6278
  173MOL   H19141815   0.089   2.978   6.361  1.8620  0.4393 -0.6414
  173MOL   H19241816   7.819   2.711   6.492 -0.3770 -0.6489  1.0092
  173MOL   H19341817   7.970   2.788   6.520 -0.1985 -2.0423  0.5553
  173MOL   O19441818   0.127   2.607   6.442  0.1771  0.3935 -0.6464
  173MOL   C19541819   0.219   2.497   6.424 -0.1893  0.1855  0.1390
  173MOL   C19641820   0.301   2.523   6.289 -0.4548 -0.2795  0.2510
  173MOL   C19741821   0.302   2.493   6.552 -0.4514 -0.2466 -0.0434
  173MOL   C19841822   0.392   2.367   6.568 -0.2164 -0.3781  0.4568
  173MOL   O19941823   0.392   2.269   6.487 -0.5491 -0.1728 -0.7376
  173MOL   H20041824   0.165   2.404   6.411  4.0453 -2.0120 -2.9582
  173MOL   H20141825   0.393   2.467   6.276 -0.2414  0.0983  0.1478
  173MOL   H20241826   0.329   2.628   6.282  1.1559 -0.4756  3.1041
  173MOL   H20341827   0.245   2.491   6.201  1.2045  0.4888 -1.0983
  173MOL   H20441828   0.227   2.497   6.631  1.2150 -1.5050  1.6428
  173MOL   H20541829   0.359   2.586   6.555 -2.8858  1.2451  2.7501
  173MOL   O20641830   0.467   2.371   6.675 -0.2160  0.3211 -0.4468
  173MOL   C20741831   0.534   2.251   6.716 -0.1055 -0.0184  0.1823
  173MOL   C20841832   0.671   2.283   6.782  0.3360 -0.0870 -0.6123
  173MOL   C20941833   0.447   2.157   6.795 -0.5753 -0.8744  0.5911
  173MOL   C21041834   0.398   2.214   6.927  0.3666  0.4227 -0.0547
  173MOL   O21141835   0.452   2.178   7.029 -0.3932 -0.2990  0.1095
  173MOL   H21241836   0.564   2.197   6.627  0.5583 -0.9028  0.9324
  173MOL   H21341837   0.726   2.192   6.805  0.4760  0.4045  1.0487
  173MOL   H21441838   0.664   2.343   6.873  0.0561  0.5499 -1.0503
  173MOL   H21541839   0.726   2.342   6.708 -0.3713  2.8037  1.0672
  173MOL   H21641840   0.493   2.059   6.793  2.3374  0.4603 -2.5835
  173MOL   H21741841   0.351   2.139   6.745 -1.1129 -2.5365  2.1945
  173MOL   O21841842   0.289   2.288   6.924  0.0969 -0.3319 -0.1599
  173MOL   C21941843   0.266   2.385   7.027  0.5211  0.8005 -0.0694
  173MOL   C22041844   0.201   2.504   6.953  0.0310  0.1919  0.3661
  173MOL   C22141845   0.173   2.318   7.138 -0.0251 -0.1240  0.0192
  173MOL   C22241846   0.168   2.402   7.269  0.3029 -0.0707 -0.0250
  173MOL   O22341847   0.065   2.432   7.323 -0.1787 -0.1280  0.3598
  173MOL   H22441848   0.363   2.415   7.065  0.7458  0.4467 -0.3637
  173MOL   H22541849   0.105   2.471   6.914  0.4412  1.4876 -1.8233
  173MOL   H22641850   0.255   2.528   6.861  2.7551 -3.4991  0.8643
  173MOL   H22741851   0.216   2.585   7.025 -0.1626 -0.8662  1.6255
  173MOL   H22841852   0.209   2.217   7.163  1.2971  0.6481  1.3377
  173MOL   H22941853   0.070   2.306   7.106  0.9137 -0.7376 -2.8829
  173MOL   O23041854   0.291   2.417   7.314  0.1721  0.4869 -0.0326
  173MOL   C23141855   0.314   2.466   7.447 -0.9737 -0.3837  0.7312
  173MOL   C23241856   0.451   2.415   7.494  0.0045 -0.1227  0.0416
  173MOL   C23341857   0.304   2.626   7.448 -0.9539  0.3667  0.1241
  173MOL   C23441858   0.406   2.699   7.360 -0.0312 -0.3789  0.3379
  173MOL   O23541859   0.364   2.759   7.264 -0.5113  0.1619  0.2819
  173MOL   H23641860   0.241   2.427   7.517  0.8416 -4.3071  0.5899
  173MOL   H23741861   0.487   2.342   7.423 -1.3052  0.1743 -0.9454
  173MOL   H23841862   0.463   2.369   7.592  3.5756 -1.0657 -0.7805
  173MOL   H23941863   0.528   2.493   7.495  1.9267 -1.9813 -0.2959
  173MOL   H24041864   0.309   2.677   7.544  2.7513  1.2112 -0.4515
  173MOL   H24141865   0.206   2.668   7.423 -1.3880 -0.3603  0.5988
  173MOL   H24241866   0.511   2.696   7.390  0.4047  0.7554 -1.0289
  174MOL     O141867   4.922   1.612   4.981 -0.2158 -0.2894 -0.0994
  174MOL     C241868   4.800   1.626   4.913  0.4581 -0.3093 -0.2577
  174MOL     C341869   4.714   1.740   4.966  0.0779 -0.0950  0.1681
  174MOL     C441870   4.831   1.655   4.761 -0.3498 -0.4581  0.1207
  174MOL     C541871   4.704   1.647   4.671  0.0332 -0.5681  0.1382
  174MOL     O641872   4.651   1.545   4.643  0.1372 -0.1344 -0.4713
  174MOL     H741873   4.746   1.532   4.906  1.3919 -1.0078  1.6159
  174MOL     H841874   4.668   1.727   5.064  1.0860 -0.7237  0.5715
  174MOL     H941875   4.630   1.767   4.903 -0.7859 -1.3526  0.7456
  174MOL    H1041876   4.785   1.822   4.974  1.9838 -1.6249 -0.4314
  174MOL    H1141877   4.919   1.605   4.721  0.8920  1.8603 -0.1240
  174MOL    H1241878   4.872   1.756   4.762  1.4155 -1.1748  0.8964
  174MOL    H1341879   4.990   1.583   4.923  0.8127 -0.1077  1.0169
  174MOL    O1441880   4.652   1.763   4.635 -0.0112  0.3800  0.2594
  174MOL    C1541881   4.522   1.774   4.582 -0.0322  0.4408 -0.2096
  174MOL    C1641882   4.421   1.759   4.701  0.3672  0.3571 -0.3398
  174MOL    C1741883   4.521   1.904   4.498 -0.9220 -0.8506  0.5536
  174MOL    C1841884   4.392   1.925   4.416  0.5689  0.6259 -0.1989
  174MOL    O1941885   4.327   1.832   4.363 -0.5265 -0.4326 -0.0829
  174MOL    H2041886   4.505   1.697   4.507  1.1935  1.1021 -1.1763
  174MOL    H2141887   4.321   1.743   4.660  0.4298 -0.0882 -0.3254
  174MOL    H2241888   4.421   1.853   4.755 -0.2119 -0.7615  1.6779
  174MOL    H2341889   4.440   1.666   4.755  0.5689  0.8715  0.4772
  174MOL    H2441890   4.602   1.907   4.425 -1.8146 -1.8305 -0.5050
  174MOL    H2541891   4.538   1.980   4.574  0.7360 -3.2190  2.6339
  174MOL    O2641892   4.356   2.050   4.408  0.0070  0.2099 -0.6171
  174MOL    C2741893   4.240   2.087   4.341  0.0666 -0.0183 -0.8504
  174MOL    C2841894   4.176   2.185   4.434  0.2880  0.9161 -0.0909
  174MOL    C2941895   4.260   2.139   4.203 -0.1128  0.1725 -0.1599
  174MOL    C3041896   4.278   2.039   4.096 -0.4509 -0.7445 -0.0202
  174MOL    O3141897   4.207   2.036   3.997  0.0965 -0.2484 -0.2217
  174MOL    H3241898   4.170   2.004   4.332  0.0756 -0.2628  1.1305
  174MOL    H3341899   4.184   2.135   4.531  0.7640 -1.3157 -1.2454
  174MOL    H3441900   4.073   2.201   4.401  1.1458  1.5096 -2.5488
  174MOL    H3541901   4.234   2.277   4.436 -0.0141  1.1531 -1.9621
  174MOL    H3641902   4.346   2.207   4.208  0.3950 -0.3899 -1.0908
  174MOL    H3741903   4.170   2.190   4.169  0.4546  0.4121 -1.3400
  174MOL    O3841904   4.386   1.971   4.116  0.1450 -0.1378  0.7423
  174MOL    C3941905   4.421   1.856   4.034 -0.2663 -0.5112  0.2326
  174MOL    C4041906   4.567   1.823   4.040 -0.7952  0.2625 -0.1841
  174MOL    C4141907   4.343   1.721   4.074  0.3222  0.4813 -0.4208
  174MOL    C4241908   4.308   1.640   3.948 -0.6144 -0.4637  0.4694
  174MOL    O4341909   4.189   1.618   3.930 -0.6200  0.3262  0.1236
  174MOL    H4441910   4.398   1.879   3.930 -0.8012 -1.5286  0.1219
  174MOL    H4541911   4.584   1.724   3.996  1.4930  0.9468 -0.8832
  174MOL    H4641912   4.595   1.820   4.145  0.2950 -0.6453 -0.4863
  174MOL    H4741913   4.616   1.905   3.989  1.2481 -0.9805 -0.2621
  174MOL    H4841914   4.261   1.744   4.143 -0.1293  1.5859 -1.3117
  174MOL    H4941915   4.412   1.664   4.136  0.5565  2.8060  1.5087
  174MOL    O5041916   4.403   1.612   3.866 -0.5557 -0.0903 -0.4086
  174MOL    C5141917   4.397   1.535   3.744 -0.2886  0.2029 -1.6428
  174MOL    C5241918   4.371   1.616   3.615  0.8000 -0.0613  0.6485
  174MOL    C5341919   4.515   1.434   3.746  0.4445 -0.8804 -0.2600
  174MOL    C5441920   4.479   1.297   3.687 -0.4502 -0.2331  0.3000
  174MOL    O5541921   4.412   1.218   3.748  0.1480 -1.0249  0.1495
  174MOL    H5641922   4.313   1.470   3.767 -0.7335  0.3934 -2.6872
  174MOL    H5741923   4.310   1.546   3.558 -0.2183  2.0439 -0.9016
  174MOL    H5841924   4.458   1.653   3.561  0.2079  0.3338 -0.0435
  174MOL    H5941925   4.303   1.693   3.650  0.8908  1.4632 -2.4273
  174MOL    H6041926   4.537   1.415   3.851  1.0334  0.1752 -0.1882
  174MOL    H6141927   4.607   1.472   3.701  1.0836 -1.3584  0.6379
  174MOL    O6241928   4.541   1.279   3.563  0.3353 -0.3792  0.4778
  174MOL    C6341929   4.523   1.159   3.496 -0.9058  0.9098 -0.1951
  174MOL    C6441930   4.531   1.181   3.352  0.1565 -0.6468 -0.3201
  174MOL    C6541931   4.632   1.055   3.549  0.1499  0.8684  0.2991
  174MOL    C6641932   4.590   0.910   3.512 -0.0939  0.5025  0.4309
  174MOL    O6741933   4.649   0.849   3.425  0.2462 -1.0085 -0.0822
  174MOL    H6841934   4.423   1.119   3.515  0.1047 -1.2359  0.7861
  174MOL    H6941935   4.525   1.086   3.298  1.7059 -2.2725  2.2966
  174MOL    H7041936   4.628   1.222   3.325 -0.6624  0.1049 -2.2219
  174MOL    H7141937   4.442   1.242   3.337  0.0559 -0.0672  2.5373
  174MOL    H7241938   4.628   1.061   3.658 -0.6973  0.7605  0.2777
  174MOL    H7341939   4.730   1.073   3.505 -0.0985 -0.3899 -0.7844
  174MOL    O7441940   4.487   0.864   3.586 -0.0003  0.2350 -0.0316
  174MOL    C7541941   4.455   0.722   3.597  0.4157  0.8128 -0.5134
  174MOL    C7641942   4.419   0.696   3.743 -0.5580  0.5903  0.1703
  174MOL    C7741943   4.333   0.682   3.510  0.7009  0.5276  0.1601
  174MOL    C7841944   4.368   0.655   3.357  0.3801  0.3672 -0.1634
  174MOL    O7941945   4.337   0.731   3.266  0.2408 -0.1926  0.5139
  174MOL    H8041946   4.545   0.662   3.580  2.5634  3.1273  2.2152
  174MOL    H8141947   4.406   0.588   3.749  2.7436  0.2353  2.2992
  174MOL    H8241948   4.334   0.757   3.772 -1.4855 -1.0304  0.9219
  174MOL    H8341949   4.518   0.715   3.785 -0.5364  2.2553 -0.6131
  174MOL    H8441950   4.258   0.761   3.505  1.3818  1.0249 -2.9106
  174MOL    H8541951   4.280   0.596   3.550  2.5554 -1.4226 -1.4591
  174MOL    O8641952   4.423   0.534   3.341  0.3525 -0.4832 -0.1087
  174MOL    C8741953   4.480   0.490   3.218 -0.2648  0.2280  0.0591
  174MOL    C8841954   4.626   0.475   3.244  0.6126  0.5102 -0.3490
  174MOL    C8941955   4.405   0.356   3.167 -1.0637 -1.2498  0.8575
  174MOL    C9041956   4.419   0.335   3.017 -0.3467  0.4576 -0.3490
  174MOL    O9141957   4.506   0.384   2.946 -0.0745  0.2728 -0.8659
  174MOL    H9241958   4.468   0.570   3.146  0.5876  1.2238  1.0096
  174MOL    H9341959   4.667   0.397   3.309  0.3506  0.2839 -0.4536
  174MOL    H9441960   4.673   0.570   3.267  0.3633  0.2459  1.3477
  174MOL    H9541961   4.668   0.441   3.149 -1.2614 -0.4797 -0.8366
  174MOL    H9641962   4.297   0.362   3.184 -1.1843  0.1228 -0.3188
  174MOL    H9741963   4.446   0.268   3.216 -2.8042 -2.6829 -0.1794
  174MOL    O9841964   4.315   0.261   2.972  0.0750  0.3245 -0.0589
  174MOL    C9941965   4.305   0.223   2.835  0.4802 -0.4367  0.2578
  174MOL   C10041966   4.199   0.113   2.822  0.2453  0.2499  0.3829
  174MOL   C10141967   4.284   0.337   2.726  0.7844  0.6956  0.1841
  174MOL   C10241968   4.155   0.415   2.727 -0.8305  0.0637  0.7888
  174MOL   O10341969   4.090   0.423   2.623  0.2714 -0.1805  0.0733
  174MOL   H10441970   4.399   0.173   2.811  0.5563  0.1661 -0.7166
  174MOL   H10541971   4.225   0.035   2.893 -0.0497 -0.7158 -0.5599
  174MOL   H10641972   4.204   0.063   2.726  1.0389 -1.5649  1.3487
  174MOL   H10741973   4.102   0.161   2.834 -0.3235 -1.0224  0.9616
  174MOL   H10841974   4.302   0.304   2.623 -2.2741  1.3021 -0.6082
  174MOL   H10941975   4.370   0.399   2.750  1.1402  0.5001 -0.5482
  174MOL   O11041976   4.132   0.474   2.848  0.5829 -0.1523 -0.1850
  174MOL   C11141977   4.016   0.553   2.870  0.0775  0.5960 -0.0321
  174MOL   C11241978   3.982   0.517   3.018  0.9620  0.0711  0.4712
  174MOL   C11341979   4.040   0.706   2.851 -0.6479  0.4070 -0.0122
  174MOL   C11441980   3.921   0.794   2.833  0.5206 -0.2957  0.2236
  174MOL   O11541981   3.895   0.855   2.726  0.2067  0.3199 -0.5171
  174MOL   H11641982   3.929   0.519   2.814  0.7789 -1.6148  0.1743
  174MOL   H11741983   3.892   0.568   3.052  0.8083 -1.5290  2.5887
  174MOL   H11841984   4.065   0.536   3.087  1.1338 -2.9261  1.1553
  174MOL   H11941985   3.974   0.409   3.032  1.5252  0.1457  1.4914
  174MOL   H12041986   4.082   0.712   2.751 -1.1044  0.6653 -0.1897
  174MOL   H12141987   4.108   0.743   2.927 -0.8697  0.8039 -0.0085
  174MOL   O12241988   3.860   0.795   2.950  0.4570  0.7293  0.0986
  174MOL   C12341989   3.732   0.859   2.973 -0.5508  0.1969 -0.5129
  174MOL   C12441990   3.674   0.787   3.094 -0.7427 -0.4350 -0.4140
  174MOL   C12541991   3.746   1.012   2.993 -0.1266  0.1553  0.2050
  174MOL   C12641992   3.827   1.043   3.117 -0.0319  1.2489  0.2937
  174MOL   O12741993   3.787   1.022   3.236 -0.1264 -0.1453  0.1761
  174MOL   H12841994   3.665   0.839   2.889 -0.9470 -1.0080  0.0828
  174MOL   H12941995   3.737   0.785   3.183 -1.7087 -0.7534  0.2727
  174MOL   H13041996   3.656   0.684   3.064 -1.2672  0.0392 -1.7522
  174MOL   H13141997   3.582   0.837   3.125  0.6016  1.1048  1.2041
  174MOL   H13241998   3.648   1.054   3.017 -0.6467 -0.4806 -0.7416
  174MOL   H13341999   3.786   1.066   2.908 -0.0998  0.3006  0.3092
  174MOL   O13442000   3.950   1.111   3.085  0.2580  0.2246 -0.0947
  174MOL   C13542001   4.048   1.119   3.187  0.3153 -0.0384  0.7844
  174MOL   C13642002   4.144   0.998   3.192 -0.6370 -0.3157  0.7686
  174MOL   C13742003   4.126   1.254   3.156  0.0261  0.1039 -0.5130
  174MOL   C13842004   4.063   1.384   3.217  0.0232 -0.9642 -0.2641
  174MOL   O13942005   3.945   1.389   3.249  0.0737  0.1554 -0.6460
  174MOL   H14042006   4.000   1.141   3.282  0.7879 -0.0354  1.0243
  174MOL   H14142007   4.084   0.908   3.208 -0.8659 -0.2227  0.4354
  174MOL   H14242008   4.232   1.011   3.256  1.2385  0.8310 -1.9453
  174MOL   H14342009   4.191   0.966   3.099 -0.1494 -1.0346  1.2536
  174MOL   H14442010   4.155   1.255   3.051 -0.2101 -4.0292 -0.7164
  174MOL   H14542011   4.222   1.260   3.207 -1.3039  1.5338  1.9128
  174MOL   O14642012   4.144   1.489   3.211 -0.0566 -0.2938  0.2452
  174MOL   C14742013   4.104   1.625   3.224 -0.5668 -0.7147 -0.3239
  174MOL   C14842014   4.202   1.727   3.263  0.0777 -0.2096 -0.4486
  174MOL   C14942015   4.020   1.661   3.091  0.1657  0.4398 -0.2168
  174MOL   C15042016   4.085   1.663   2.954 -0.5867 -0.0441 -0.1909
  174MOL   O15142017   4.179   1.590   2.921 -0.1839  0.6431  0.7617
  174MOL   H15242018   4.031   1.627   3.305 -0.0540 -0.5979  0.1448
  174MOL   H15342019   4.223   1.713   3.369  1.9373 -3.1649 -1.1409
  174MOL   H15442020   4.138   1.815   3.259 -1.8519 -1.4974  1.0050
  174MOL   H15542021   4.286   1.735   3.194  0.9028 -0.4749  0.5022
  174MOL   H15642022   3.979   1.761   3.105  0.1656  0.3696  0.2981
  174MOL   H15742023   3.930   1.600   3.088  0.5938 -0.4534  3.2861
  174MOL   O15842024   4.024   1.751   2.884  0.4839  0.2747  0.0445
  174MOL   C15942025   4.056   1.776   2.747  0.6941  0.0084  0.6941
  174MOL   C16042026   3.938   1.829   2.668 -0.0795  0.1834 -0.4751
  174MOL   C16142027   4.180   1.861   2.735  0.4466 -0.1346  0.5060
  174MOL   C16242028   4.167   2.007   2.771 -0.0489  0.0020 -0.2563
  174MOL   O16342029   4.185   2.053   2.884  0.0781  0.3399 -0.6174
  174MOL   H16442030   4.084   1.680   2.701 -2.1715 -1.4797  1.9433
  174MOL   H16542031   3.857   1.759   2.649  1.2968 -1.3797 -0.8043
  174MOL   H16642032   3.962   1.857   2.565 -3.3237  2.3548 -0.6898
  174MOL   H16742033   3.894   1.921   2.705 -1.0108  0.5446 -2.4543
  174MOL   H16842034   4.217   1.840   2.635  0.9299 -1.5616  0.9667
  174MOL   H16942035   4.257   1.831   2.806  1.8195 -0.7655 -1.2006
  174MOL   O17042036   4.148   2.083   2.663  0.5878 -0.5268  0.1381
  174MOL   C17142037   4.176   2.219   2.665 -0.3126 -0.1145  0.5009
  174MOL   C17242038   4.195   2.275   2.524  0.1908  0.2281 -0.0200
  174MOL   C17342039   4.065   2.285   2.736  0.8597 -0.1709  0.9872
  174MOL   C17442040   4.090   2.427   2.786  0.2325 -0.3728 -0.3689
  174MOL   O17542041   4.079   2.527   2.716 -0.2865  0.1633  0.2163
  174MOL   H17642042   4.266   2.229   2.726 -1.4847 -1.8825  2.5770
  174MOL   H17742043   4.300   2.298   2.505  0.4630 -0.3371  0.7498
  174MOL   H17842044   4.152   2.375   2.528 -0.9570 -0.2032 -1.2894
  174MOL   H17942045   4.135   2.235   2.442 -1.6063  1.0714  0.8823
  174MOL   H18042046   4.032   2.232   2.826 -0.4420 -0.6535  0.2292
  174MOL   H18142047   3.985   2.285   2.662  0.9175  0.0404  0.9273
  174MOL   O18242048   4.136   2.426   2.907 -0.0126 -0.3203  0.3091
  174MOL   C18342049   4.158   2.546   2.982  0.1134 -0.0662  0.4047
  174MOL   C18442050   4.124   2.513   3.123  0.3060 -0.3103 -0.5884
  174MOL   C18542051   4.293   2.613   2.960 -0.1120 -0.5159  0.1855
  174MOL   C18642052   4.418   2.543   3.012  0.3777  0.0425 -0.5392
  174MOL   O18742053   4.508   2.615   3.059 -0.4099 -0.0809  0.0985
  174MOL   H18842054   4.084   2.621   2.954  0.1054  0.0864  0.8187
  174MOL   H18942055   4.041   2.443   3.128  0.0041  0.0145 -1.0604
  174MOL   H19042056   4.117   2.593   3.197  0.9389 -1.9361  1.2809
  174MOL   H19142057   4.205   2.453   3.166  0.5451  1.5581  1.6436
  174MOL   H19242058   4.286   2.712   3.006 -0.1164 -0.9076  1.0494
  174MOL   H19342059   4.310   2.613   2.853 -2.2152 -1.4498 -0.1698
  174MOL   O19442060   4.425   2.413   3.006 -0.1992 -0.0150  0.1511
  174MOL   C19542061   4.531   2.337   3.058 -0.2369 -0.5488 -0.2776
  174MOL   C19642062   4.490   2.199   3.103 -0.7169  0.4372 -0.1195
  174MOL   C19742063   4.643   2.317   2.948  0.0055  0.0913  0.3040
  174MOL   C19842064   4.759   2.414   2.954  0.6615  0.4582 -0.1378
  174MOL   O19942065   4.808   2.457   2.851  0.4569 -0.6222  0.1481
  174MOL   H20042066   4.573   2.378   3.149  2.8999  0.3921 -2.0664
  174MOL   H20142067   4.416   2.207   3.183  0.2961 -0.9605  0.9993
  174MOL   H20242068   4.572   2.133   3.132  1.5217  3.0208 -0.4412
  174MOL   H20342069   4.440   2.149   3.020  0.0561 -1.3034  0.4429
  174MOL   H20442070   4.598   2.338   2.851  0.4374 -2.8925 -0.5878
  174MOL   H20542071   4.687   2.218   2.936  1.5743  0.7716  0.3428
  174MOL   O20642072   4.802   2.441   3.080  0.8830 -0.3455 -0.0140
  174MOL   C20742073   4.894   2.544   3.107 -0.5204  0.3841 -0.9858
  174MOL   C20842074   4.842   2.691   3.103 -0.5288 -0.1068  0.4028
  174MOL   C20942075   4.970   2.507   3.238  0.6152  0.1023  0.3953
  174MOL   C21042076   4.899   2.534   3.366 -0.0085 -0.2624 -0.1363
  174MOL   O21142077   4.940   2.636   3.430 -0.3344 -0.2960 -0.5580
  174MOL   H21242078   4.974   2.535   3.034 -0.3756 -0.6021 -0.7033
  174MOL   H21342079   4.910   2.776   3.103 -0.5693 -0.0729  0.0745
  174MOL   H21442080   4.764   2.701   3.178 -0.2150  0.9175  0.6006
  174MOL   H21542081   4.779   2.704   3.015 -1.1792  2.1956  1.1659
  174MOL   H21642082   5.065   2.560   3.236  1.0800 -0.7373 -2.3505
  174MOL   H21742083   4.992   2.401   3.248 -0.5889 -0.2865 -0.9495
  174MOL   O21842084   4.795   2.456   3.387 -0.4756  0.3417  0.0097
  174MOL   C21942085   4.699   2.498   3.487  0.0561  0.0905  0.0648
  174MOL   C22042086   4.559   2.488   3.431 -0.6181  0.7112 -0.6986
  174MOL   C22142087   4.731   2.414   3.611 -0.5033  0.5749 -0.5293
  174MOL   C22242088   4.641   2.452   3.729  0.3198  0.3349  0.1329
  174MOL   O22342089   4.679   2.546   3.807 -0.1674 -0.3632  0.0315
  174MOL   H22442090   4.714   2.602   3.517  2.0701  0.5404 -2.2943
  174MOL   H22542091   4.483   2.519   3.502 -0.4878 -1.3568  0.3940
  174MOL   H22642092   4.537   2.390   3.388  0.6521  0.1891 -0.1947
  174MOL   H22742093   4.563   2.557   3.347 -0.5653  1.6762  0.0812
  174MOL   H22842094   4.833   2.447   3.634 -1.4135  1.2766  2.8167
  174MOL   H22942095   4.734   2.306   3.603  0.1313  0.3559  2.0546
  174MOL   O23042096   4.533   2.378   3.732  0.2267  0.0274 -0.2755
  174MOL   C23142097   4.429   2.420   3.820  0.2613 -0.1726  0.6266
  174MOL   C23242098   4.299   2.379   3.753 -0.0541 -0.3463  0.3843
  174MOL   C23342099   4.423   2.334   3.951 -0.3766  0.9489 -0.2585
  174MOL   C23442100   4.546   2.354   4.039 -0.2995 -0.6445 -0.6571
  174MOL   O23542101   4.567   2.273   4.130 -0.5377  0.3509  0.0351
  174MOL   H23642102   4.441   2.523   3.852  1.2250 -0.6386  1.8186
  174MOL   H23742103   4.305   2.276   3.717  2.6963 -1.1929  3.0524
  174MOL   H23842104   4.265   2.445   3.674  1.1470  0.2422  0.3420
  174MOL   H23942105   4.222   2.384   3.830 -0.6778 -0.7536 -0.2073
  174MOL   H24042106   4.397   2.232   3.922  2.4363  0.3968 -0.9319
  174MOL   H24142107   4.342   2.375   4.012 -0.3606  0.1493  0.3080
  174MOL   H24242108   4.592   2.452   4.026  0.3428 -0.6190  1.5771
  175MOL     O142109   3.187   0.990   0.148 -1.1855 -0.2272  0.4951
  175MOL     C242110   3.179   1.108   0.064 -0.4598 -1.0098  0.6029
  175MOL     C342111   3.043   1.101   7.974 -0.2306 -0.5362 -0.4023
  175MOL     C442112   3.209   1.236   0.151 -0.7455  1.1966 -0.0415
  175MOL     C542113   3.193   1.364   0.072  0.4720 -0.5640  0.4796
  175MOL     O642114   3.221   1.371   7.931 -0.3251  0.3746 -0.1987
  175MOL     H742115   3.263   1.107   7.974  1.0153 -2.7152  2.3497
  175MOL     H842116   3.043   1.014   7.909 -0.9641 -2.0661  1.6158
  175MOL     H942117   3.035   1.183   7.902 -1.5569  0.4383  0.8257
  175MOL    H1042118   2.965   1.096   0.069  0.7626  0.6986  0.7425
  175MOL    H1142119   3.304   1.228   0.204 -1.1265  0.4677  0.5463
  175MOL    H1242120   3.132   1.239   0.228  0.1795 -1.5518  1.0614
  175MOL    H1342121   3.121   0.996   0.216 -1.4731  2.0699  0.0185
  175MOL    O1442122   3.135   1.449   0.144 -0.0513 -0.0137 -0.5074
  175MOL    C1542123   3.090   1.574   0.071  0.1275 -0.4556 -1.0371
  175MOL    C1642124   2.990   1.629   0.174  0.8302 -0.9414 -0.0946
  175MOL    C1742125   3.202   1.670   0.026  0.2855  1.2662  0.4455
  175MOL    C1842126   3.163   1.812   0.000 -0.3551 -0.1340  0.1064
  175MOL    O1942127   3.221   1.913   0.053 -0.9126 -0.3890  0.0540
  175MOL    H2042128   3.027   1.541   7.968 -2.3643  0.0989  0.5819
  175MOL    H2142129   2.902   1.569   0.198 -0.2751  1.1250  1.1612
  175MOL    H2242130   2.945   1.725   0.150  2.0169 -0.5542 -0.8139
  175MOL    H2342131   3.041   1.652   0.268 -1.0310  1.6962  0.3211
  175MOL    H2442132   3.245   1.621   7.919 -2.9645  1.4589 -1.3447
  175MOL    H2542133   3.276   1.669   0.106  2.0044 -0.6990 -1.1402
  175MOL    O2642134   3.063   1.823   7.886  1.4044  0.6976 -0.1659
  175MOL    C2742135   3.009   1.951   7.853 -0.1564 -0.2836 -0.9141
  175MOL    C2842136   2.947   1.939   7.715  0.1372 -0.3093 -0.6313
  175MOL    C2942137   2.900   1.983   7.959 -0.7251 -0.0503  0.3865
  175MOL    C3042138   2.818   2.104   7.947 -0.1187  0.4435 -0.9985
  175MOL    O3142139   2.847   2.195   7.867  0.4313  0.1372 -0.1314
  175MOL    H3242140   3.087   2.025   7.863  0.1509 -0.6195 -0.8252
  175MOL    H3342141   3.017   1.900   7.641  0.4767  1.2901 -1.1917
  175MOL    H3442142   2.902   2.029   7.673 -0.2456 -0.8733 -1.4477
  175MOL    H3542143   2.857   1.877   7.716 -0.2794  0.3068  0.9851
  175MOL    H3642144   2.957   1.987   0.072  1.3119  1.3609 -0.8683
  175MOL    H3742145   2.832   1.898   7.959  0.6116 -1.1203  0.6002
  175MOL    O3842146   2.709   2.106   0.044  0.2240  0.2462 -0.2012
  175MOL    C3942147   2.614   2.224   0.031 -0.2266 -0.1730  0.0116
  175MOL    C4042148   2.500   2.192   7.914 -0.8154 -0.2180 -0.1545
  175MOL    C4142149   2.562   2.258   0.176 -0.6293  0.0406  0.4731
  175MOL    C4242150   2.674   2.297   0.275 -0.1466  0.7206 -0.8620
  175MOL    O4342151   2.707   2.412   0.296 -0.1188 -0.4104 -0.0091
  175MOL    H4442152   2.673   2.312   0.006  0.6689 -1.0546 -1.0223
  175MOL    H4542153   2.415   2.259   7.903 -1.3652 -1.4547 -4.1140
  175MOL    H4642154   2.458   2.099   7.951  2.5096 -0.1405  4.3883
  175MOL    H4742155   2.540   2.173   7.814  0.8916  0.8901  0.2796
  175MOL    H4842156   2.511   2.171   0.217 -0.3911  0.5681  1.8963
  175MOL    H4942157   2.497   2.346   0.168  0.6052  0.9200  0.0807
  175MOL    O5042158   2.733   2.188   0.340 -0.2476  0.2440  0.0832
  175MOL    C5142159   2.834   2.217   0.435 -0.1644  0.5163 -0.1389
  175MOL    C5242160   2.763   2.220   0.567  0.0747 -0.2683 -0.6192
  175MOL    C5342161   2.953   2.126   0.436  0.5595 -0.2821  0.8809
  175MOL    C5442162   2.924   1.978   0.471  0.3066  0.0005  0.2269
  175MOL    O5542163   2.895   1.905   0.376  0.2479  0.0492  0.1638
  175MOL    H5642164   2.870   2.319   0.421  3.6692 -0.6469  0.5954
  175MOL    H5742165   2.739   2.121   0.605  3.2588 -0.7666  0.2941
  175MOL    H5842166   2.675   2.284   0.569 -0.0557 -0.4508 -0.3326
  175MOL    H5942167   2.824   2.258   0.650  1.2365  0.0680 -1.6145
  175MOL    H6042168   3.029   2.154   0.510  1.2023 -1.3188  0.6223
  175MOL    H6142169   3.000   2.130   0.338 -0.5747 -0.1274  0.3401
  175MOL    O6242170   2.933   1.952   0.597 -0.3454 -0.4687  0.1212
  175MOL    C6342171   2.917   1.819   0.643  0.2751 -0.4789 -0.1547
  175MOL    C6442172   3.006   1.786   0.764 -0.1088 -0.4622  0.1896
  175MOL    C6542173   2.763   1.785   0.648 -0.1285 -0.1135  0.3786
  175MOL    C6642174   2.736   1.635   0.676  0.5655 -0.1878 -0.5139
  175MOL    O6742175   2.651   1.606   0.758  0.0324  0.0935  0.1482
  175MOL    H6842176   2.958   1.750   0.569  1.8219 -0.1155  0.3438
  175MOL    H6942177   3.111   1.809   0.743 -0.6800  1.3370 -0.8496
  175MOL    H7042178   2.992   1.679   0.776 -0.6944 -0.2747  1.1921
  175MOL    H7142179   2.980   1.842   0.854  1.2798 -0.9056  0.8791
  175MOL    H7242180   2.712   1.813   0.556 -0.0825  0.6695  0.5859
  175MOL    H7342181   2.713   1.837   0.731  1.0496 -0.5579  1.3802
  175MOL    O7442182   2.807   1.549   0.597 -0.1915  0.0027  0.1647
  175MOL    C7542183   2.816   1.410   0.631 -0.8272 -0.6047 -0.3154
  175MOL    C7642184   2.778   1.322   0.509 -0.2922  0.4574 -0.0314
  175MOL    C7742185   2.961   1.379   0.687  0.4571  0.1375 -0.2698
  175MOL    C7842186   3.074   1.369   0.583 -1.1334  0.3540 -0.5641
  175MOL    O7942187   3.081   1.279   0.494  0.1971  0.3147 -0.2619
  175MOL    H8042188   2.750   1.388   0.715 -2.3162 -1.7201 -1.7217
  175MOL    H8142189   2.847   1.336   0.426  0.7025 -1.0498  0.5179
  175MOL    H8242190   2.671   1.337   0.491 -0.0250  0.7076 -1.4724
  175MOL    H8342191   2.793   1.218   0.539  3.2974  1.5117  2.1211
  175MOL    H8442192   2.961   1.279   0.731  1.0816  0.4306  0.4010
  175MOL    H8542193   2.980   1.453   0.764 -0.4162 -0.4622  0.5273
  175MOL    O8642194   3.164   1.473   0.612  0.3433 -0.1207  0.6331
  175MOL    C8742195   3.274   1.499   0.518  1.1029  0.1506 -0.3537
  175MOL    C8842196   3.258   1.650   0.481 -0.2889  0.5974 -0.8211
  175MOL    C8942197   3.406   1.476   0.598 -0.8915  0.3485 -0.1102
  175MOL    C9042198   3.532   1.513   0.521  0.0955  0.0374  0.0969
  175MOL    O9142199   3.619   1.588   0.572  0.1860 -0.5177 -0.2900
  175MOL    H9242200   3.267   1.435   0.430  0.5947 -0.2424 -0.0285
  175MOL    H9342201   3.263   1.714   0.569  0.5199  1.8621 -1.7635
  175MOL    H9442202   3.166   1.675   0.428  0.3697  0.9753 -1.7982
  175MOL    H9542203   3.333   1.681   0.408 -1.3050 -0.1841 -2.2311
  175MOL    H9642204   3.415   1.371   0.626  0.4036 -0.4445 -3.2950
  175MOL    H9742205   3.410   1.519   0.698 -1.6560  0.1433  0.0172
  175MOL    O9842206   3.547   1.451   0.400 -0.1509  0.3782 -0.0614
  175MOL    C9942207   3.665   1.474   0.328  0.2435  0.9966 -0.6258
  175MOL   C10042208   3.766   1.371   0.371 -0.3679  0.1642 -0.0661
  175MOL   C10142209   3.636   1.448   0.178 -0.0935  0.6481  0.5086
  175MOL   C10242210   3.572   1.573   0.115  0.5731 -0.2423 -0.0745
  175MOL   O10342211   3.479   1.567   0.039 -0.3796  0.5479 -0.3996
  175MOL   H10442212   3.718   1.568   0.348  0.2108  1.0920 -0.9962
  175MOL   H10542213   3.857   1.369   0.312 -0.2551  1.6111  0.0466
  175MOL   H10642214   3.717   1.274   0.361 -1.5332  0.7813 -0.4333
  175MOL   H10742215   3.795   1.384   0.475 -0.8243  1.1189 -0.0515
  175MOL   H10842216   3.563   1.367   0.168 -1.0845  1.7433 -1.6096
  175MOL   H10942217   3.733   1.425   0.134  0.2154  0.5729  1.2190
  175MOL   O11042218   3.631   1.680   0.150  0.1686 -0.3543  0.3232
  175MOL   C11142219   3.596   1.807   0.107 -0.0369 -0.2164 -0.0940
  175MOL   C11242220   3.547   1.890   0.227 -0.0790 -0.2229  0.4121
  175MOL   C11342221   3.726   1.860   0.042 -0.0713  0.4957 -0.4789
  175MOL   C11442222   3.833   1.906   0.149  0.1107  0.3930 -0.0253
  175MOL   O11542223   3.881   2.021   0.157 -0.0168  0.0960  0.2928
  175MOL   H11642224   3.510   1.810   0.040 -0.0254  1.8340 -0.0627
  175MOL   H11742225   3.622   1.874   0.305  2.1555  1.7840 -1.2268
  175MOL   H11842226   3.454   1.854   0.269  0.8782 -1.4033  1.5562
  175MOL   H11942227   3.547   1.998   0.209  0.4109 -0.0862  1.2076
  175MOL   H12042228   3.703   1.947   7.960  0.8630  0.0726 -1.4546
  175MOL   H12142229   3.773   1.780   7.963 -2.1758 -0.7351 -0.5181
  175MOL   O12242230   3.864   1.800   0.221  0.1546  0.7852 -0.3237
  175MOL   C12342231   3.940   1.815   0.337 -1.4130  0.1026 -0.4294
  175MOL   C12442232   3.846   1.823   0.463 -0.3830 -0.6495  0.0850
  175MOL   C12542233   4.037   1.704   0.356 -0.0819  0.1317  0.2604
  175MOL   C12642234   4.182   1.747   0.328  0.0651  0.5403 -0.8591
  175MOL   O12742235   4.232   1.848   0.377  0.4017 -0.2075 -0.0223
  175MOL   H12842236   3.998   1.906   0.331 -2.3256  0.8878  1.7680
  175MOL   H12942237   3.774   1.743   0.447 -0.4765 -0.6482  0.4861
  175MOL   H13042238   3.797   1.918   0.444  1.0069  0.1806  0.5066
  175MOL   H13142239   3.887   1.817   0.565 -0.0537  2.4933  0.1738
  175MOL   H13242240   4.017   1.618   0.292 -0.5451 -0.7949  1.6350
  175MOL   H13342241   4.033   1.681   0.462  0.3018  0.4930  0.3594
  175MOL   O13442242   4.243   1.670   0.240  0.8924 -0.0153  0.6239
  175MOL   C13542243   4.373   1.708   0.184  0.2956 -0.5249 -0.7226
  175MOL   C13642244   4.488   1.635   0.259  0.1454  0.0683 -0.4269
  175MOL   C13742245   4.378   1.669   0.035  0.0749  0.1767 -0.4412
  175MOL   C13842246   4.465   1.760   7.928 -0.0296 -0.3122 -0.1890
  175MOL   O13942247   4.529   1.851   0.000 -0.1011 -0.6051  0.1051
  175MOL   H14042248   4.386   1.816   0.189  0.3327 -0.5439 -0.3992
  175MOL   H14142249   4.584   1.648   0.209  1.5012  0.4404  2.1799
  175MOL   H14242250   4.469   1.528   0.269 -0.1949  0.1814  0.1693
  175MOL   H14342251   4.505   1.674   0.359 -0.6882  0.9195 -0.6175
  175MOL   H14442252   4.277   1.682   7.977 -0.9297  0.1211  2.0842
  175MOL   H14542253   4.412   1.566   0.021  1.5403  0.4449  1.0249
  175MOL   O14642254   4.465   1.723   7.801 -0.2633 -0.2507 -0.4530
  175MOL   C14742255   4.553   1.794   7.708 -0.1389  0.2915  0.3211
  175MOL   C14842256   4.653   1.689   7.653  0.4005 -0.6145 -0.1312
  175MOL   C14942257   4.472   1.868   7.597 -0.3274  0.2165 -0.7785
  175MOL   C15042258   4.372   1.977   7.649  0.1071  0.0700  1.1331
  175MOL   O15142259   4.392   2.047   7.749 -0.3811 -0.3193  0.4504
  175MOL   H15242260   4.615   1.864   7.763 -0.6620  1.9931 -1.1977
  175MOL   H15342261   4.737   1.734   7.602  0.0707  0.1497 -0.0151
  175MOL   H15442262   4.600   1.616   7.592 -0.6930  0.0184  0.0311
  175MOL   H15542263   4.689   1.637   7.742 -0.8509  0.0860  0.8220
  175MOL   H15642264   4.416   1.793   7.541 -0.6893 -0.2201  0.1541
  175MOL   H15742265   4.538   1.908   7.520  1.7180  0.1861  0.9055
  175MOL   O15842266   4.258   1.986   7.568 -0.1829 -0.1891 -0.3728
  175MOL   C15942267   4.154   2.069   7.613  0.5033  0.1683 -0.0478
  175MOL   C16042268   4.143   2.187   7.516 -0.1734  0.5517 -0.5325
  175MOL   C16142269   4.022   1.986   7.615 -0.0411 -0.0070  0.1572
  175MOL   C16242270   3.909   2.054   7.696 -0.2009 -0.3541  0.1576
  175MOL   O16342271   3.895   2.025   7.815  0.1305 -0.2825  0.0982
  175MOL   H16442272   4.160   2.104   7.716 -2.1835  0.6724 -0.0123
  175MOL   H16542273   4.243   2.220   7.487  0.9182 -0.9524  1.3509
  175MOL   H16642274   4.101   2.271   7.571 -1.8865 -0.7464  0.1772
  175MOL   H16742275   4.089   2.160   7.425 -0.2325 -0.0052 -0.3359
  175MOL   H16842276   4.032   1.882   7.646  1.5881  1.3337  4.3856
  175MOL   H16942277   3.971   1.984   7.518 -0.2396 -0.3083  0.2671
  175MOL   O17042278   3.846   2.146   7.625 -0.5939 -0.0659 -0.1440
  175MOL   C17142279   3.738   2.221   7.677  0.6202  0.0097 -0.7279
  175MOL   C17242280   3.765   2.370   7.640  0.8132 -0.3181  0.1539
  175MOL   C17342281   3.603   2.174   7.617 -0.4058 -0.0674  0.6411
  175MOL   C17442282   3.560   2.046   7.686 -0.3301  0.5200 -0.1816
  175MOL   O17542283   3.501   2.052   7.795 -0.2014  0.3556  0.2330
  175MOL   H17642284   3.717   2.219   7.784 -0.3464 -0.1406 -0.9158
  175MOL   H17742285   3.766   2.388   7.532 -1.2880  0.4934  0.2389
  175MOL   H17842286   3.851   2.410   7.693  0.1805  1.9076 -0.4275
  175MOL   H17942287   3.682   2.429   7.680  0.2911  0.0112 -1.3766
  175MOL   H18042288   3.605   2.171   7.508  0.4276 -1.1028  0.6788
  175MOL   H18142289   3.534   2.253   7.647  0.3333  0.6829  0.3954
  175MOL   O18242290   3.585   1.932   7.618 -0.1802  0.0279  0.2420
  175MOL   C18342291   3.537   1.810   7.671 -0.4769  0.6308  0.3099
  175MOL   C18442292   3.386   1.807   7.646  0.0081  0.6624 -0.2053
  175MOL   C18542293   3.620   1.705   7.593  0.4319  0.6268 -0.2485
  175MOL   C18642294   3.762   1.701   7.631  1.2574  0.2726  0.4036
  175MOL   O18742295   3.839   1.759   7.559 -0.1920  0.1871 -0.3389
  175MOL   H18842296   3.559   1.807   7.778  2.2149  0.2023 -0.2376
  175MOL   H18942297   3.363   1.818   7.540  0.9972 -0.2192 -0.5217
  175MOL   H19042298   3.333   1.886   7.699 -0.3815  0.4793 -0.3223
  175MOL   H19142299   3.337   1.722   7.691 -1.5261  1.0589 -1.0861
  175MOL   H19242300   3.615   1.716   7.485 -1.7530  0.7836 -0.1377
  175MOL   H19342301   3.582   1.606   7.618 -0.8095  0.6813 -1.8567
  175MOL   O19442302   3.789   1.614   7.731  0.5708 -0.3385  0.6833
  175MOL   C19542303   3.924   1.597   7.774  0.5550  0.3108 -0.6266
  175MOL   C19642304   3.927   1.550   7.919 -0.1051  0.2026 -0.3459
  175MOL   C19742305   3.994   1.504   7.677  0.2383  0.0838  0.0501
  175MOL   C19842306   4.137   1.542   7.650 -0.1259  0.2831  0.5987
  175MOL   O19942307   4.188   1.653   7.667  0.6914  0.0706  0.0222
  175MOL   H20042308   3.967   1.696   7.783 -0.2038  0.3349  3.7168
  175MOL   H20142309   3.893   1.447   7.930 -0.5461  0.5162  1.2748
  175MOL   H20242310   3.888   1.611   0.020  1.7506  0.8210  0.1009
  175MOL   H20342311   4.035   1.553   7.931 -0.0522  0.4257 -0.8416
  175MOL   H20442312   3.947   1.507   7.579 -0.3109 -0.9811  0.2738
  175MOL   H20542313   3.979   1.402   7.713 -0.2292 -0.0529 -0.5301
  175MOL   O20642314   4.209   1.434   7.610  0.0921 -0.3881 -0.0276
  175MOL   C20742315   4.344   1.441   7.565  0.3764 -0.0034 -0.4395
  175MOL   C20842316   4.422   1.395   7.691  0.1271 -0.0263 -0.1786
  175MOL   C20942317   4.356   1.354   7.434 -0.1826 -0.3400 -0.7694
  175MOL   C21042318   4.279   1.419   7.318  0.8277  0.4779 -0.1529
  175MOL   O21142319   4.340   1.458   7.219  0.2508  0.1277  0.1307
  175MOL   H21242320   4.375   1.542   7.536  1.3842  0.5018  2.2776
  175MOL   H21342321   4.414   1.288   7.708  0.2153 -0.0588 -0.3440
  175MOL   H21442322   4.366   1.439   7.773 -0.5409  0.5611 -0.9463
  175MOL   H21542323   4.528   1.420   7.685 -0.3106  1.4219 -2.3001
  175MOL   H21642324   4.315   1.253   7.444  0.5637 -0.4845  1.1214
  175MOL   H21742325   4.460   1.338   7.406 -0.4928 -2.5596 -0.7329
  175MOL   O21842326   4.145   1.439   7.335 -0.4659  0.5970 -0.3437
  175MOL   C21942327   4.071   1.523   7.252  1.0004 -0.1410  0.2450
  175MOL   C22042328   3.964   1.435   7.185  0.7813  0.2924 -0.1283
  175MOL   C22142329   4.022   1.649   7.330 -0.3209 -0.1825 -0.5432
  175MOL   C22242330   3.967   1.754   7.228  0.8339 -0.7493 -0.5187
  175MOL   O22342331   3.999   1.756   7.110  0.4457  1.0034  0.0560
  175MOL   H22442332   4.131   1.562   7.170  0.5256  2.4945  1.1016
  175MOL   H22542333   3.891   1.389   7.251  2.4121 -1.5857  0.4218
  175MOL   H22642334   4.005   1.356   7.122 -1.3423 -1.4105  0.5841
  175MOL   H22742335   3.905   1.500   7.120 -0.6424 -1.1282 -0.2994
  175MOL   H22842336   4.098   1.693   7.393 -0.9430 -3.2133  2.4958
  175MOL   H22942337   3.943   1.626   7.401 -1.1778 -1.9456 -1.9966
  175MOL   O23042338   3.888   1.851   7.295 -1.3459  0.0730 -0.5893
  175MOL   C23142339   3.815   1.949   7.219 -0.3582  0.6523  0.2121
  175MOL   C23242340   3.672   1.895   7.199  0.1157  0.0811  0.2196
  175MOL   C23342341   3.804   2.075   7.302 -0.0786  0.1392 -0.5695
  175MOL   C23442342   3.759   2.192   7.214  0.0170 -0.4618  0.3502
  175MOL   O23542343   3.648   2.246   7.239  0.5088  0.0771 -0.2755
  175MOL   H23642344   3.855   1.968   7.120 -0.2926 -2.4246 -0.3830
  175MOL   H23742345   3.612   1.881   7.290 -0.6016 -2.3690 -0.5760
  175MOL   H23842346   3.682   1.795   7.157 -1.2420  0.5446 -1.2696
  175MOL   H23942347   3.616   1.950   7.124 -1.6820  0.7392  2.0164
  175MOL   H24042348   3.904   2.090   7.343 -0.9792 -1.2604  2.2731
  175MOL   H24142349   3.731   2.061   7.382  0.8263  0.8369  0.4067
  175MOL   H24242350   3.820   2.229   7.132  0.5191  2.4394  1.9412
  176MOL     O142351   2.996   1.040   0.346 -0.0062 -0.2030  0.0235
  176MOL     C242352   2.923   0.936   0.408 -0.8659  0.2923  0.1339
  176MOL     C342353   2.779   0.965   0.372  0.0718  0.4115  0.1110
  176MOL     C442354   2.957   0.786   0.366  0.8954  0.3834 -0.6872
  176MOL     C542355   3.077   0.731   0.445 -0.8397  0.2255 -0.0268
  176MOL     O642356   3.117   0.781   0.550  0.3315  0.2495  0.1137
  176MOL     H742357   2.934   0.958   0.515  0.6631 -0.5763  0.1701
  176MOL     H842358   2.712   0.899   0.428  0.6935 -1.0784 -0.8857
  176MOL     H942359   2.769   0.939   0.267 -1.6298 -0.2726  0.4268
  176MOL    H1042360   2.747   1.069   0.372 -1.1047  0.0609 -1.1694
  176MOL    H1142361   2.962   0.776   0.257  1.2608  1.8487 -0.8224
  176MOL    H1242362   2.873   0.724   0.395  0.4426  1.9729  1.5681
  176MOL    H1342363   3.023   1.098   0.415  0.2715  0.1361 -0.3646
  176MOL    O1442364   3.134   0.631   0.377  0.2503 -0.0300  0.5676
  176MOL    C1542365   3.254   0.582   0.425  0.8733  0.1358 -0.4257
  176MOL    C1642366   3.244   0.420   0.439  0.4595 -0.2029 -0.0071
  176MOL    C1742367   3.371   0.626   0.330  0.0380  0.5175  0.2872
  176MOL    C1842368   3.363   0.553   0.196  0.0886 -0.6318 -0.5636
  176MOL    O1942369   3.422   0.451   0.170  0.1500  0.5949 -0.1907
  176MOL    H2042370   3.284   0.621   0.522 -0.5546 -1.4315  0.6618
  176MOL    H2142371   3.339   0.368   0.447 -0.6450 -2.0934  1.1738
  176MOL    H2242372   3.202   0.388   0.343 -1.0335  0.0285  0.5525
  176MOL    H2342373   3.167   0.402   0.514 -0.0409  0.4724 -0.3491
  176MOL    H2442374   3.466   0.592   0.371 -0.6543 -1.0923  0.5982
  176MOL    H2542375   3.364   0.733   0.310 -1.4247  0.0018 -2.1131
  176MOL    O2642376   3.273   0.620   0.117 -0.0009  0.1819  0.0651
  176MOL    C2742377   3.247   0.579   7.966 -0.6483 -0.2173  0.0363
  176MOL    C2842378   3.130   0.469   7.962 -0.8748 -0.3356  0.7053
  176MOL    C2942379   3.231   0.709   7.885  0.2496  0.3470 -0.1476
  176MOL    C3042380   3.211   0.685   7.737 -0.3520 -0.0401 -0.5549
  176MOL    O3142381   3.304   0.699   7.651 -0.3004  0.1493  0.2480
  176MOL    H3242382   3.342   0.542   7.928 -0.8963 -0.8996  0.0543
  176MOL    H3342383   3.108   0.443   7.859 -2.4173  2.5276  0.2751
  176MOL    H3442384   3.042   0.520   0.023 -0.7547  0.4658 -0.0334
  176MOL    H3542385   3.162   0.378   0.033  0.0157 -0.0980  0.5772
  176MOL    H3642386   3.317   0.775   7.897 -0.2337  1.2837 -1.7241
  176MOL    H3742387   3.141   0.760   7.921 -0.8005 -0.7238 -1.2102
  176MOL    O3842388   3.081   0.673   7.711  0.1398  0.4672  0.2791
  176MOL    C3942389   3.029   0.676   7.579  0.6872 -0.3127  0.2691
  176MOL    C4042390   2.903   0.587   7.591  0.2567  0.0811  0.0814
  176MOL    C4142391   2.997   0.822   7.539 -0.2609  0.5851 -0.0706
  176MOL    C4242392   2.929   0.842   7.404  0.1878 -0.3728 -0.3968
  176MOL    O4342393   2.810   0.854   7.400  0.2176 -0.3055  0.1959
  176MOL    H4442394   3.100   0.625   7.514  0.8046 -1.5815  1.3750
  176MOL    H4542395   2.932   0.502   7.652  2.4052  1.1028  0.5198
  176MOL    H4642396   2.875   0.554   7.490  0.7389  2.0449 -0.7236
  176MOL    H4742397   2.818   0.636   7.637  0.6567 -1.7761  2.8815
  176MOL    H4842398   3.091   0.877   7.543  0.3715 -0.5576  1.3478
  176MOL    H4942399   2.946   0.873   7.621 -1.3036  0.2044 -0.4691
  176MOL    O5042400   3.013   0.857   7.300 -0.0803 -0.0197  0.2813
  176MOL    C5142401   2.966   0.854   7.175 -0.2283 -0.3282 -0.2158
  176MOL    C5242402   3.054   0.963   7.116 -0.6578 -1.0977  0.1565
  176MOL    C5342403   2.970   0.709   7.113  0.1405 -0.5962  0.7735
  176MOL    C5442404   2.943   0.714   6.960  0.4082 -1.1054  0.0256
  176MOL    O5542405   2.834   0.752   6.922 -0.4545  0.0038 -0.0199
  176MOL    H5642406   2.859   0.873   7.161 -0.2779  0.4187  1.1214
  176MOL    H5742407   3.036   1.060   7.162 -1.5128 -2.6486  3.1776
  176MOL    H5842408   3.032   0.976   7.010  1.8226 -0.9009 -0.3763
  176MOL    H5942409   3.162   0.954   7.126 -0.5075  0.2413 -0.0338
  176MOL    H6042410   2.880   0.669   7.159 -1.0981  2.6279  1.3304
  176MOL    H6142411   3.065   0.659   7.133  0.0969 -0.4658  1.3082
  176MOL    O6242412   3.050   0.672   6.886  0.4294 -0.5246 -0.2177
  176MOL    C6342413   3.028   0.650   6.745 -0.0948  0.5051 -0.0282
  176MOL    C6442414   3.111   0.752   6.661 -0.0063 -0.0108 -0.3489
  176MOL    C6542415   3.082   0.508   6.714  0.8281 -0.5972 -0.0004
  176MOL    C6642416   2.988   0.394   6.757  0.0416 -0.0697 -0.1238
  176MOL    O6742417   2.948   0.307   6.676 -0.4528  0.1516 -0.0556
  176MOL    H6842418   2.925   0.655   6.711 -0.1524  0.0517  0.0828
  176MOL    H6942419   3.083   0.856   6.674 -0.6369 -0.2083 -0.0856
  176MOL    H7042420   3.093   0.729   6.556 -0.7843  4.6326 -1.3160
  176MOL    H7142421   3.219   0.739   6.668  0.1102  1.4737  0.5621
  176MOL    H7242422   3.178   0.494   6.765  0.8466  1.1313  0.4805
  176MOL    H7342423   3.108   0.501   6.609  0.5007 -2.7625  0.0518
  176MOL    O7442424   2.955   0.407   6.889  0.6197  0.1684 -0.5246
  176MOL    C7542425   2.859   0.317   6.944  0.1677  0.0875 -0.3051
  176MOL    C7642426   2.942   0.257   7.061 -0.2548  0.0322 -0.2994
  176MOL    C7742427   2.729   0.391   6.992  0.6389  0.2370 -0.7036
  176MOL    C7842428   2.630   0.430   6.885 -0.7213 -0.1425  0.8294
  176MOL    O7942429   2.520   0.393   6.895  0.4319  0.3859  0.1480
  176MOL    H8042430   2.841   0.231   6.878 -0.3503  0.4056 -0.5829
  176MOL    H8142431   2.900   0.163   7.097 -0.6957 -0.4960 -2.1307
  176MOL    H8242432   2.948   0.323   7.148 -2.3712  0.0838 -0.1661
  176MOL    H8342433   3.047   0.247   7.034 -0.4739 -0.3714 -1.0056
  176MOL    H8442434   2.752   0.478   7.054 -1.2006 -0.3516  0.8618
  176MOL    H8542435   2.686   0.323   7.066  2.9716  0.9035  1.3568
  176MOL    O8642436   2.681   0.513   6.783 -0.2607 -0.5852 -0.2805
  176MOL    C8742437   2.603   0.555   6.679  0.0912 -0.1033  0.4078
  176MOL    C8842438   2.663   0.681   6.622 -0.4299 -0.2186  0.1253
  176MOL    C8942439   2.560   0.451   6.574  0.3857 -0.4719 -0.0564
  176MOL    C9042440   2.679   0.397   6.491  0.3585  0.2872 -0.6128
  176MOL    O9142441   2.720   0.281   6.504  0.3806 -0.3438  0.3854
  176MOL    H9242442   2.512   0.589   6.728 -1.9154 -1.6369 -2.1525
  176MOL    H9342443   2.607   0.704   6.532 -0.6695  1.9008  0.8101
  176MOL    H9442444   2.768   0.663   6.596  0.1951  1.5600  1.3675
  176MOL    H9542445   2.658   0.772   6.681 -0.1841 -1.5107  2.2057
  176MOL    H9642446   2.500   0.499   6.497  0.9950  0.6782  0.1807
  176MOL    H9742447   2.494   0.375   6.617  1.3568  0.2365  2.7798
  176MOL    O9842448   2.715   0.482   6.388 -0.0124 -0.0160 -0.1393
  176MOL    C9942449   2.827   0.452   6.313  0.5227 -0.2176  0.1267
  176MOL   C10042450   2.782   0.380   6.183  0.2157 -0.1560  0.3757
  176MOL   C10142451   2.922   0.574   6.323  0.0149 -0.0152  0.5629
  176MOL   C10242452   2.859   0.698   6.255 -0.5176 -0.4299 -0.1132
  176MOL   O10342453   2.868   0.800   6.323 -0.3280 -0.1365  0.1416
  176MOL   H10442454   2.881   0.373   6.364  1.2944 -0.2297 -0.7011
  176MOL   H10542455   2.863   0.345   6.119  0.7302 -0.2293  1.0533
  176MOL   H10642456   2.717   0.441   6.121 -1.3777 -0.6028  1.5736
  176MOL   H10742457   2.731   0.290   6.218  1.4164 -0.9799  0.0617
  176MOL   H10842458   3.015   0.538   6.278  0.3862 -0.9649  2.0247
  176MOL   H10942459   2.943   0.602   6.426  1.0590  1.5115 -0.0444
  176MOL   O11042460   2.831   0.675   6.122  0.3546 -0.2781  0.1763
  176MOL   C11142461   2.788   0.786   6.038  0.1730 -0.0967 -0.1915
  176MOL   C11242462   2.910   0.873   5.998 -0.0547  0.8251 -0.2673
  176MOL   C11342463   2.730   0.724   5.915  0.4402  0.0418 -0.0406
  176MOL   C11442464   2.587   0.676   5.926  0.2690 -0.0345 -0.8637
  176MOL   O11542465   2.516   0.653   5.828  0.5269 -0.8299 -0.1941
  176MOL   H11642466   2.732   0.861   6.094  3.2407  3.8552 -2.1731
  176MOL   H11742467   2.943   0.942   6.076 -1.4565 -0.0748  1.1658
  176MOL   H11842468   2.887   0.940   5.915  1.7861 -0.6800 -2.0422
  176MOL   H11942469   2.990   0.811   5.958 -0.5088  1.4966 -2.3027
  176MOL   H12042470   2.790   0.639   5.881  1.3610 -0.4880  2.7349
  176MOL   H12142471   2.723   0.799   5.837  0.9567  1.6875  1.4703
  176MOL   O12242472   2.541   0.659   6.050 -0.2851 -0.0896 -0.0652
  176MOL   C12342473   2.411   0.607   6.070 -0.0797 -0.0415  0.4941
  176MOL   C12442474   2.420   0.466   6.139  0.3351 -0.1090 -0.0767
  176MOL   C12542475   2.332   0.707   6.148  0.1925  0.1623 -0.6036
  176MOL   C12642476   2.283   0.826   6.071  0.1246 -0.3511  0.6203
  176MOL   O12742477   2.273   0.829   5.949 -0.1609  0.1893 -0.3909
  176MOL   H12842478   2.356   0.583   5.979  0.4227 -0.7411  0.3746
  176MOL   H12942479   2.327   0.415   6.116  0.5672 -0.1195 -1.0011
  176MOL   H13042480   2.446   0.472   6.245 -0.1183 -0.0061  0.0288
  176MOL   H13142481   2.492   0.402   6.089  0.4106  0.6528 -0.9434
  176MOL   H13242482   2.396   0.742   6.229 -0.5452 -0.2664  0.1833
  176MOL   H13342483   2.237   0.663   6.179  2.0309 -3.9044 -0.4445
  176MOL   O13442484   2.270   0.931   6.157 -0.3521 -0.0352 -0.3156
  176MOL   C13542485   2.277   1.067   6.113 -0.3938  0.9141  0.0788
  176MOL   C13642486   2.143   1.146   6.093  0.2138  0.0375 -0.1888
  176MOL   C13742487   2.383   1.137   6.203  0.6634  0.2289  0.5886
  176MOL   C13842488   2.530   1.119   6.166  0.2187 -0.4915 -0.3837
  176MOL   O13942489   2.590   1.032   6.223  0.1903 -0.1969  0.8072
  176MOL   H14042490   2.331   1.056   6.019  0.1942  0.3412  0.4737
  176MOL   H14142491   2.129   1.199   6.187 -1.0100  0.0318 -0.3654
  176MOL   H14242492   2.064   1.072   6.082  0.7796 -0.1093 -4.3443
  176MOL   H14342493   2.147   1.220   6.014  0.6553  1.4222  1.1155
  176MOL   H14442494   2.362   1.109   6.307  3.8897  0.8470  1.4798
  176MOL   H14542495   2.361   1.242   6.188  0.6883  0.2176  0.4762
  176MOL   O14642496   2.570   1.189   6.058  0.7996  0.8822  0.2838
  176MOL   C14742497   2.693   1.166   5.991  0.4675 -0.6443 -0.1152
  176MOL   C14842498   2.658   1.116   5.843 -0.2053 -0.0106 -0.1986
  176MOL   C14942499   2.770   1.298   5.985  0.3407  0.1112  0.0669
  176MOL   C15042500   2.866   1.323   6.101  0.0301  0.4279  0.3117
  176MOL   O15142501   2.862   1.436   6.158  0.4892  0.0695 -0.0059
  176MOL   H15242502   2.758   1.097   6.046 -0.5499  0.7692  2.9833
  176MOL   H15342503   2.603   1.022   5.840  1.1822 -0.8739  0.6237
  176MOL   H15442504   2.752   1.102   5.791 -0.8759 -2.8691 -0.7224
  176MOL   H15542505   2.602   1.198   5.797 -1.2684 -0.7255 -0.1803
  176MOL   H15642506   2.700   1.376   5.956  1.9668  1.5770  0.0562
  176MOL   H15742507   2.848   1.294   5.909  0.2369 -0.5126 -0.0094
  176MOL   O15842508   2.954   1.219   6.128 -0.1542  0.4129 -0.6111
  176MOL   C15942509   3.030   1.235   6.247  0.6623 -0.1153  0.0118
  176MOL   C16042510   2.984   1.132   6.353 -0.0521 -0.6227  0.1262
  176MOL   C16142511   3.176   1.226   6.205 -0.3133 -0.7588  1.1105
  176MOL   C16242512   3.224   1.338   6.112  0.2630  0.0956 -0.0321
  176MOL   O16342513   3.240   1.317   5.991 -0.5142  0.3407 -0.4374
  176MOL   H16442514   3.022   1.334   6.291  0.4878 -0.4819  0.8158
  176MOL   H16542515   3.020   1.034   6.321  1.8295 -0.5728  1.9249
  176MOL   H16642516   2.875   1.131   6.349 -0.0617  0.0987  0.1939
  176MOL   H16742517   3.012   1.150   6.457 -1.3425 -1.2726  0.5871
  176MOL   H16842518   3.190   1.130   6.154  1.0721 -0.9495  1.7864
  176MOL   H16942519   3.236   1.221   6.297  0.4595 -2.0518  0.5679
  176MOL   O17042520   3.229   1.463   6.175  0.3624 -0.3931  0.1021
  176MOL   C17142521   3.258   1.579   6.099 -0.3081 -0.0859  0.1523
  176MOL   C17242522   3.124   1.666   6.105  0.3255  0.2573 -0.2186
  176MOL   C17342523   3.365   1.662   6.173 -0.1432 -0.5689 -0.0812
  176MOL   C17442524   3.503   1.599   6.166  0.2021  0.0655  0.5077
  176MOL   O17542525   3.530   1.533   6.063  0.4630  0.0712  0.0944
  176MOL   H17642526   3.290   1.570   5.995 -0.1026 -0.4438  0.2461
  176MOL   H17742527   3.114   1.740   6.027 -0.2473 -0.2074 -0.5893
  176MOL   H17842528   3.111   1.695   6.209 -3.5614  1.2436 -0.9196
  176MOL   H17942529   3.038   1.601   6.088  0.0198  0.5633  0.1349
  176MOL   H18042530   3.337   1.681   6.277  1.7800  3.9746 -0.2809
  176MOL   H18142531   3.369   1.761   6.129 -0.1624  0.0294  1.2378
  176MOL   O18242532   3.571   1.603   6.278  0.1742 -0.2945 -0.5037
  176MOL   C18342533   3.681   1.523   6.291 -0.1445 -0.7840  0.1298
  176MOL   C18442534   3.789   1.619   6.332  0.3258 -0.0751 -0.2851
  176MOL   C18542535   3.658   1.405   6.383  0.0765  0.8902 -0.3959
  176MOL   C18642536   3.634   1.279   6.297 -0.1172 -0.2773 -0.7673
  176MOL   O18742537   3.513   1.249   6.280 -0.1398 -0.4566  0.6858
  176MOL   H18842538   3.710   1.492   6.191  0.8476 -0.0458  0.1826
  176MOL   H18942539   3.815   1.694   6.256  1.4460  0.3016  0.4639
  176MOL   H19042540   3.877   1.557   6.349 -0.6010 -1.3835 -0.1876
  176MOL   H19142541   3.776   1.663   6.431  0.4383 -0.8668  0.0840
  176MOL   H19242542   3.575   1.413   6.454  0.2630  1.2547 -0.2184
  176MOL   H19342543   3.747   1.381   6.440  0.5277 -1.1520 -1.9168
  176MOL   O19442544   3.748   1.209   6.273 -0.5239  0.3106  0.1998
  176MOL   C19542545   3.732   1.112   6.171 -0.3307  0.1469  0.0477
  176MOL   C19642546   3.807   1.161   6.046 -0.2207 -0.1933 -0.3891
  176MOL   C19742547   3.782   0.979   6.225  0.0076  0.3107 -0.1430
  176MOL   C19842548   3.692   0.920   6.337 -0.1990 -0.0804  0.4619
  176MOL   O19942549   3.733   0.903   6.460  0.5882  0.4583  0.0986
  176MOL   H20042550   3.627   1.099   6.146 -0.6396  1.5300  0.5755
  176MOL   H20142551   3.899   1.217   6.063 -1.4092  1.0111  2.4632
  176MOL   H20242552   3.746   1.224   5.981 -0.0231 -0.0712 -0.4573
  176MOL   H20342553   3.829   1.070   5.992 -0.1322 -0.6677  0.4329
  176MOL   H20442554   3.889   0.977   6.247 -0.2475 -0.9277  1.0564
  176MOL   H20542555   3.782   0.905   6.145 -0.6939  0.5799 -0.3864
  176MOL   O20642556   3.569   0.886   6.297  0.3125 -0.4317  0.4508
  176MOL   C20742557   3.470   0.839   6.388 -1.1748  0.3173 -0.1711
  176MOL   C20842558   3.339   0.917   6.355 -0.4928  0.1669  0.1758
  176MOL   C20942559   3.466   0.692   6.338 -0.7217 -0.0118  0.1198
  176MOL   C21042560   3.379   0.600   6.416 -0.0769  0.8311  1.4023
  176MOL   O21142561   3.255   0.606   6.416 -1.1021  0.0127 -0.0521
  176MOL   H21242562   3.506   0.848   6.491 -0.8259 -0.3847 -0.2348
  176MOL   H21342563   3.249   0.879   6.404 -0.2846  0.6408  0.9372
  176MOL   H21442564   3.318   0.918   6.248 -0.1309 -2.5678  0.0559
  176MOL   H21542565   3.351   1.020   6.391  2.2877 -0.1474  0.2548
  176MOL   H21642566   3.561   0.639   6.339 -1.8731 -2.2201 -1.3446
  176MOL   H21742567   3.446   0.685   6.231  1.4644 -1.7645 -0.2104
  176MOL   O21842568   3.454   0.491   6.456  0.0619 -0.0908  0.5774
  176MOL   C21942569   3.392   0.379   6.525 -0.0769 -0.2773  0.8148
  176MOL   C22042570   3.344   0.267   6.423 -1.0847 -0.1473 -0.6461
  176MOL   C22142571   3.488   0.329   6.634  0.2142  0.4066  0.0926
  176MOL   C22242572   3.477   0.397   6.769 -0.9448 -0.5997  0.1237
  176MOL   O22342573   3.427   0.343   6.858  0.6786  0.0938  0.2541
  176MOL   H22442574   3.310   0.423   6.580 -0.3798 -1.3180  1.2026
  176MOL   H22542575   3.310   0.178   6.476  0.2584 -0.3564 -0.1059
  176MOL   H22642576   3.420   0.229   6.355 -1.1666  0.8231 -1.2965
  176MOL   H22742577   3.254   0.295   6.369 -2.8298 -0.8227  1.8394
  176MOL   H22842578   3.594   0.327   6.608  0.6398  0.2917  1.8024
  176MOL   H22942579   3.477   0.223   6.658  0.3992  0.9393  2.5707
  176MOL   O23042580   3.523   0.523   6.766  0.2105 -0.0644  0.6256
  176MOL   C23142581   3.534   0.604   6.882  0.2737 -0.1121 -0.0085
  176MOL   C23242582   3.683   0.644   6.892  0.7292 -0.6824  0.6456
  176MOL   C23342583   3.433   0.724   6.870  0.4509 -0.4195 -0.1279
  176MOL   C23442584   3.414   0.816   6.990  0.1263 -0.3819  0.3805
  176MOL   O23542585   3.452   0.785   7.100  0.0803  0.1611  0.5405
  176MOL   H23642586   3.508   0.542   6.967 -1.0638  0.4390 -0.0090
  176MOL   H23742587   3.704   0.711   6.808  0.8451 -1.4097  0.0884
  176MOL   H23842588   3.750   0.559   6.901  0.7051 -0.6441  1.1598
  176MOL   H23942589   3.700   0.701   6.983 -1.5400  2.5706 -0.8671
  176MOL   H24042590   3.337   0.686   6.836  0.8864 -1.4441 -0.2183
  176MOL   H24142591   3.465   0.783   6.784 -2.7136  0.1031 -1.0050
  176MOL   H24242592   3.337   0.893   6.987  0.3401 -0.1294  1.3179
  177MOL     O142593   6.607   1.203   1.419 -0.6343  0.0677 -0.0255
  177MOL     C242594   6.632   1.301   1.316 -0.1234 -0.3390 -0.9175
  177MOL     C342595   6.701   1.423   1.380  0.3823 -0.1627 -0.4735
  177MOL     C442596   6.710   1.236   1.191 -0.3243 -0.9578 -0.2893
  177MOL     C542597   6.695   1.309   1.059 -0.1691 -0.9065  0.3461
  177MOL     O642598   6.595   1.296   0.989 -0.5768  0.2604  0.0027
  177MOL     H742599   6.530   1.319   1.279 -0.7921 -0.9274  0.6264
  177MOL     H842600   6.640   1.462   1.462 -0.7378 -1.0568 -0.8726
  177MOL     H942601   6.704   1.504   1.307 -1.5627  0.6336  0.2708
  177MOL    H1042602   6.803   1.410   1.417  0.3133 -1.0808 -0.6101
  177MOL    H1142603   6.678   1.135   1.163 -2.5244 -0.0283 -1.2291
  177MOL    H1242604   6.815   1.230   1.221 -1.0884  0.9482  3.0008
  177MOL    H1342605   6.520   1.214   1.453 -0.0880 -0.2906  1.5189
  177MOL    O1442606   6.796   1.393   1.041 -0.0519  0.1392 -0.6933
  177MOL    C1542607   6.799   1.485   0.933 -0.1977  0.0197 -0.7941
  177MOL    C1642608   6.766   1.619   1.001  0.0289  0.3992 -0.1375
  177MOL    C1742609   6.939   1.484   0.873 -0.3371 -0.4993  0.0918
  177MOL    C1842610   6.980   1.603   0.789 -0.5219 -0.6823 -0.6123
  177MOL    O1942611   7.063   1.690   0.826 -0.0134  0.2459  0.6323
  177MOL    H2042612   6.728   1.452   0.858 -1.1793  2.0423 -0.8063
  177MOL    H2142613   6.775   1.696   0.924  0.3115 -0.4674 -0.9897
  177MOL    H2242614   6.844   1.634   1.075  1.1301  3.7789 -1.8495
  177MOL    H2342615   6.665   1.619   1.042  0.9672 -1.3872  2.2277
  177MOL    H2442616   6.962   1.390   0.823 -0.8746 -0.0851 -0.9594
  177MOL    H2542617   7.008   1.482   0.957 -0.2015 -0.5886 -0.0217
  177MOL    O2642618   6.920   1.603   0.662 -0.5839 -0.4644 -0.5274
  177MOL    C2742619   6.958   1.698   0.561 -0.1060  0.1805  0.2151
  177MOL    C2842620   6.915   1.636   0.429 -0.4464 -0.7138  0.4007
  177MOL    C2942621   6.886   1.833   0.586 -0.3971 -0.7522  0.1419
  177MOL    C3042622   6.937   1.938   0.493  0.0687  0.2886 -0.5495
  177MOL    O3142623   6.873   1.973   0.398  0.4304  0.0784 -0.0562
  177MOL    H3242624   7.067   1.701   0.555 -0.2442  2.6711 -2.6255
  177MOL    H3342625   6.969   1.682   0.346 -0.5530 -0.2165  0.6063
  177MOL    H3442626   6.810   1.650   0.404 -0.2990  0.6053  0.5268
  177MOL    H3542627   6.931   1.528   0.421  1.9440 -0.4237  0.9093
  177MOL    H3642628   6.913   1.858   0.689 -0.5313 -1.5110  0.3691
  177MOL    H3742629   6.777   1.823   0.588 -0.4770 -2.5453 -5.3237
  177MOL    O3842630   7.051   1.977   0.525  0.1176 -0.4190 -0.6217
  177MOL    C3942631   7.123   2.078   0.457  0.2499 -0.2789  0.4135
  177MOL    C4042632   7.200   2.170   0.554  0.6500 -0.2216  0.0780
  177MOL    C4142633   7.228   2.014   0.352  0.9150 -0.3927  0.0111
  177MOL    C4242634   7.182   2.033   0.211 -0.0162  0.1903  0.2514
  177MOL    O4342635   7.164   1.933   0.146  0.0350 -0.3629  0.1142
  177MOL    H4442636   7.040   2.128   0.406  0.4183  1.0919  1.4884
  177MOL    H4542637   7.129   2.209   0.627  0.0882 -1.6999  0.3408
  177MOL    H4642638   7.249   2.254   0.505  1.3421  0.6307  2.1769
  177MOL    H4742639   7.279   2.118   0.608  0.3482 -0.5710  0.1885
  177MOL    H4842640   7.228   1.905   0.355 -2.7165 -0.4491  1.4733
  177MOL    H4942641   7.334   2.025   0.372  0.5746 -0.9800  2.3808
  177MOL    O5042642   7.164   2.161   0.172  0.2680 -0.3840  0.3901
  177MOL    C5142643   7.082   2.196   0.061  0.2744 -1.1630 -0.3040
  177MOL    C5242644   6.934   2.190   0.098  0.4822  0.1528  0.8308
  177MOL    C5342645   7.131   2.326   7.980  0.4904  0.2602 -0.1963
  177MOL    C5442646   7.058   2.387   7.863  0.1898  0.2598 -0.1926
  177MOL    O5542647   7.028   2.504   7.857  0.4338 -0.1822 -0.4915
  177MOL    H5642648   7.085   2.120   7.962 -3.7566 -0.6215 -1.1053
  177MOL    H5742649   6.863   2.183   0.016  0.1206  0.3619  1.1247
  177MOL    H5842650   6.903   2.283   0.146 -0.3582  1.2352 -1.7176
  177MOL    H5942651   6.918   2.105   0.164  0.2757 -1.1636 -0.8624
  177MOL    H6042652   7.234   2.313   7.947  0.7165  0.0043  0.5899
  177MOL    H6142653   7.149   2.397   0.081  0.1083 -0.8470  0.8818
  177MOL    O6242654   7.031   2.295   7.760  0.1509  0.1389 -0.2710
  177MOL    C6342655   6.968   2.330   7.641  0.0134  0.1240  1.0106
  177MOL    C6442656   7.014   2.253   7.518 -0.9217  0.2881 -1.1666
  177MOL    C6542657   6.819   2.343   7.651  0.2077 -0.1250  0.3972
  177MOL    C6642658   6.745   2.207   7.679  0.4587  0.1971  0.2775
  177MOL    O6742659   6.733   2.157   7.792  0.1588 -0.2295  0.0323
  177MOL    H6842660   6.998   2.433   7.622  0.8286 -0.2254  0.3903
  177MOL    H6942661   6.994   2.148   7.536 -1.6001  0.6430  0.2140
  177MOL    H7042662   7.117   2.274   7.491 -1.2347  2.3795 -0.8904
  177MOL    H7142663   6.960   2.285   7.428  0.5138  0.9862 -1.7925
  177MOL    H7242664   6.785   2.381   7.554  0.8936 -0.2237  0.1116
  177MOL    H7342665   6.794   2.425   7.717 -3.3166  0.0409 -1.0551
  177MOL    O7442666   6.696   2.161   7.558  0.0405 -0.1207 -0.1590
  177MOL    C7542667   6.614   2.043   7.558  0.5961 -0.4433 -0.0605
  177MOL    C7642668   6.526   2.073   7.439 -0.4749  0.1818  0.0339
  177MOL    C7742669   6.711   1.924   7.526 -0.0766  0.6116  0.1838
  177MOL    C7842670   6.646   1.784   7.544  0.9746  0.4415  0.3721
  177MOL    O7942671   6.543   1.757   7.475 -0.0791  0.1642  0.5812
  177MOL    H8042672   6.554   2.040   7.649 -2.7733 -0.3150 -2.1703
  177MOL    H8142673   6.534   2.176   7.403 -0.1980  0.4432  0.8149
  177MOL    H8242674   6.423   2.048   7.462 -0.6705  1.7457  0.9467
  177MOL    H8342675   6.547   2.020   7.346  0.8656  1.5883 -0.4868
  177MOL    H8442676   6.796   1.930   7.594 -1.3883  2.3174  1.7407
  177MOL    H8542677   6.764   1.930   7.431  1.0852  1.3257  0.8596
  177MOL    O8642678   6.714   1.700   7.629 -0.1651 -0.2967  0.1460
  177MOL    C8742679   6.689   1.563   7.634 -0.2672 -0.0441 -0.2122
  177MOL    C8842680   6.827   1.503   7.650  0.4393  0.4929 -0.5088
  177MOL    C8942681   6.594   1.525   7.751 -0.0138 -0.2681  0.4017
  177MOL    C9042682   6.552   1.375   7.762  0.2230 -0.0057  0.8621
  177MOL    O9142683   6.578   1.305   7.663 -0.2377  0.1398 -0.4335
  177MOL    H9242684   6.648   1.527   7.539  0.9343 -3.0861  0.3905
  177MOL    H9342685   6.885   1.536   7.564  2.4146 -1.1437  0.1456
  177MOL    H9442686   6.820   1.395   7.635  0.0255  0.7249 -2.0438
  177MOL    H9542687   6.866   1.529   7.749  0.1646  0.4408 -0.3875
  177MOL    H9642688   6.506   1.589   7.739 -0.8588 -1.7732 -1.5905
  177MOL    H9742689   6.646   1.569   7.836 -2.7952  0.0036  2.0361
  177MOL    O9842690   6.485   1.339   7.876  0.0207  0.2663  0.1041
  177MOL    C9942691   6.449   1.201   7.890 -0.2659  0.1271  0.1496
  177MOL   C10042692   6.536   1.134   0.028  0.3150 -0.3621  1.0718
  177MOL   C10142693   6.296   1.198   7.907  0.7346  0.2689  0.0467
  177MOL   C10242694   6.225   1.065   7.898  0.0603 -0.8115  0.1065
  177MOL   O10342695   6.244   0.978   7.979  0.1276  0.2681 -0.2425
  177MOL   H10442696   6.471   1.134   7.807 -1.2200  1.7754 -1.4782
  177MOL   H10542697   6.511   1.029   0.037  0.2897 -0.5442 -0.9557
  177MOL   H10642698   6.512   1.179   0.124 -0.1809 -1.4718  1.4720
  177MOL   H10742699   6.643   1.146   0.014 -0.4016  2.4617 -3.0516
  177MOL   H10842700   6.246   1.261   7.834 -1.1253 -1.5139 -0.2694
  177MOL   H10942701   6.265   1.244   0.021  0.6264 -2.2185  1.2841
  177MOL   O11042702   6.158   1.041   7.785 -0.2446 -0.2257  0.4528
  177MOL   C11142703   6.076   0.926   7.766  0.5967 -0.1098  0.1900
  177MOL   C11242704   5.935   0.970   7.793  0.2248 -0.2840 -0.1450
  177MOL   C11342705   6.093   0.884   7.616 -0.0259 -0.1310 -0.8834
  177MOL   C11442706   6.208   0.790   7.598  0.3376  0.8110  0.3420
  177MOL   O11542707   6.187   0.665   7.605  0.3866 -0.5544  0.0983
  177MOL   H11642708   6.115   0.840   7.820  1.7692 -0.2369 -0.8538
  177MOL   H11742709   5.920   1.055   7.727 -0.1547 -2.3881 -2.8380
  177MOL   H11842710   5.929   1.009   7.895 -3.2136  1.3522 -0.9038
  177MOL   H11942711   5.854   0.899   7.776  0.4816 -0.3625 -1.0317
  177MOL   H12042712   6.099   0.966   7.543  3.7809  1.3972  1.0306
  177MOL   H12142713   6.009   0.817   7.597  0.2969 -0.6069 -0.6191
  177MOL   O12242714   6.324   0.862   7.584  0.3815  0.5588 -0.1271
  177MOL   C12342715   6.455   0.797   7.554 -0.2772  0.5835  0.0172
  177MOL   C12442716   6.518   0.901   7.462  0.6536  0.0287 -0.4081
  177MOL   C12542717   6.535   0.766   7.680  0.1610 -0.1929  0.8214
  177MOL   C12642718   6.673   0.698   7.652  0.2194  0.7088 -0.8394
  177MOL   O12742719   6.706   0.646   7.546  0.2110  0.3005 -0.5616
  177MOL   H12842720   6.431   0.704   7.504  0.1470  0.5078 -0.0492
  177MOL   H12942721   6.526   1.000   7.508 -1.3887  0.2725 -0.5193
  177MOL   H13042722   6.450   0.919   7.378 -2.0185  0.3570  1.7675
  177MOL   H13142723   6.613   0.868   7.419  1.9390  2.2337  0.6603
  177MOL   H13242724   6.476   0.701   7.744  0.3572 -0.2101  0.9826
  177MOL   H13342725   6.534   0.860   7.735  1.2727  0.8895 -0.9466
  177MOL   O13442726   6.742   0.698   7.762 -0.0696 -0.3531 -0.4876
  177MOL   C13542727   6.858   0.623   7.764 -0.1920  0.1615 -0.8459
  177MOL   C13642728   6.959   0.679   7.868  0.2965  0.4910 -0.0109
  177MOL   C13742729   6.831   0.473   7.798  0.4936 -0.6935 -0.6728
  177MOL   C13842730   6.948   0.383   7.782  0.4289 -0.5452 -0.4034
  177MOL   O13942731   7.000   0.314   7.870 -0.5632  0.3419  0.4054
  177MOL   H14042732   6.915   0.632   7.672  0.3427  1.5273 -0.4053
  177MOL   H14142733   6.978   0.785   7.848  2.2610  0.3956  1.2273
  177MOL   H14242734   7.046   0.614   7.864 -1.0782 -1.5336  1.7827
  177MOL   H14342735   6.930   0.668   7.972  0.5297  0.0558  0.0083
  177MOL   H14442736   6.750   0.433   7.736 -1.0830 -2.3594  2.3372
  177MOL   H14542737   6.795   0.471   7.901  0.2424  1.2407 -0.7025
  177MOL   O14642738   6.988   0.386   7.652 -1.4963  0.1363 -0.1574
  177MOL   C14742739   7.114   0.329   7.620 -0.0792 -0.2293  0.1361
  177MOL   C14842740   7.103   0.257   7.486 -0.1580 -0.4873 -0.3340
  177MOL   C14942741   7.222   0.441   7.615 -0.5759 -0.1146  0.3870
  177MOL   C15042742   7.360   0.386   7.602  0.2925 -0.0376  0.1953
  177MOL   O15142743   7.380   0.267   7.630  0.1291 -0.7054 -0.1303
  177MOL   H15242744   7.155   0.259   7.694 -0.5623  0.7339  1.3386
  177MOL   H15342745   7.079   0.325   7.403  0.5262  0.1950  0.0230
  177MOL   H15442746   7.022   0.185   7.497 -0.3600 -0.0615  1.0424
  177MOL   H15542747   7.197   0.217   7.448  0.0024 -0.1352 -0.3081
  177MOL   H15642748   7.219   0.497   7.708  2.2589 -1.9623  1.6457
  177MOL   H15742749   7.206   0.506   7.528  1.6688 -0.8186 -0.5805
  177MOL   O15842750   7.449   0.474   7.567  0.2578  0.1870 -0.4954
  177MOL   C15942751   7.585   0.448   7.588  0.0313  0.0526  0.1306
  177MOL   C16042752   7.667   0.522   7.482 -0.2680 -0.6840 -0.1974
  177MOL   C16142753   7.629   0.485   7.731 -0.3743 -0.2376  0.1575
  177MOL   C16242754   7.601   0.630   7.767 -0.7793  0.0557 -0.0562
  177MOL   O16342755   7.695   0.713   7.764  0.1839  1.0584 -0.2702
  177MOL   H16442756   7.605   0.341   7.580  1.0922  0.2988 -0.7162
  177MOL   H16542757   7.646   0.628   7.494  0.3545 -0.6621  0.7151
  177MOL   H16642758   7.642   0.482   7.383 -0.2231 -2.5692  0.5337
  177MOL   H16742759   7.773   0.496   7.491 -0.5510 -0.9276  2.8062
  177MOL   H16842760   7.737   0.483   7.717  0.0075  1.4450  2.5702
  177MOL   H16942761   7.595   0.417   7.808  1.9148 -1.5223  0.0586
  177MOL   O17042762   7.477   0.658   7.818 -0.5198 -0.3472  0.1760
  177MOL   C17142763   7.451   0.791   7.861  0.2348  0.1550 -0.3386
  177MOL   C17242764   7.293   0.795   7.871  0.1048 -0.1539  0.3384
  177MOL   C17342765   7.527   0.830   0.013 -0.3324  0.5915 -0.4706
  177MOL   C17442766   7.503   0.974   0.057  0.1114 -0.3659 -0.1447
  177MOL   O17542767   7.389   1.016   0.084 -0.0245  0.3392 -0.5696
  177MOL   H17642768   7.491   0.864   7.790  2.2954 -1.5011 -0.9228
  177MOL   H17742769   7.259   0.898   7.867  1.8414  0.5076  1.8385
  177MOL   H17842770   7.249   0.746   7.958 -0.2895 -1.0291 -0.3411
  177MOL   H17942771   7.243   0.747   7.787  4.6637 -1.4032 -1.8053
  177MOL   H18042772   7.635   0.823   0.006 -0.4221 -1.1539 -0.4052
  177MOL   H18142773   7.485   0.773   0.097  0.4621  2.1351  0.9979
  177MOL   O18242774   7.617   1.046   0.084 -0.0480 -0.0696  0.1376
  177MOL   C18342775   7.613   1.179   0.146  0.1273 -0.5163 -0.0644
  177MOL   C18442776   7.596   1.154   0.297 -0.1723  0.4512 -0.0096
  177MOL   C18542777   7.740   1.247   0.112  0.4222  0.5940 -0.5663
  177MOL   C18642778   7.751   1.394   0.146  0.5609  0.0365 -0.2525
  177MOL   O18742779   7.826   1.431   0.232  0.4223  0.0438  0.0081
  177MOL   H18842780   7.529   1.239   0.111 -0.4480 -1.0118  0.4689
  177MOL   H18942781   7.678   1.105   0.350  0.0825  2.1970  1.2519
  177MOL   H19042782   7.506   1.099   0.323 -0.8731  1.1279 -0.9761
  177MOL   H19142783   7.569   1.254   0.333  2.2979  2.5566 -3.6440
  177MOL   H19242784   7.751   1.258   0.004 -4.7009  1.1641 -1.1568
  177MOL   H19342785   7.829   1.205   0.160 -1.9669 -2.4176  1.3548
  177MOL   O19442786   7.671   1.477   0.069  0.0433  0.3021 -0.2265
  177MOL   C19542787   7.679   1.618   0.077  0.1872 -0.4415 -0.7756
  177MOL   C19642788   7.632   1.687   7.935 -0.2555 -0.0476  0.5918
  177MOL   C19742789   7.609   1.659   0.207 -0.1632  0.0240  0.1239
  177MOL   C19842790   7.465   1.639   0.216  0.3788 -0.0303  0.2840
  177MOL   O19942791   7.392   1.723   0.264  0.0105  0.0932 -0.2746
  177MOL   H20042792   7.787   1.632   0.085  0.1217 -0.4027  0.1075
  177MOL   H20142793   7.527   1.669   7.911 -0.0593 -0.0893 -0.2571
  177MOL   H20242794   7.699   1.659   7.853  0.9499 -0.1840  1.6037
  177MOL   H20342795   7.651   1.794   7.945  0.8103 -0.1671 -0.0709
  177MOL   H20442796   7.638   1.764   0.215 -1.4448  0.3036  1.1736
  177MOL   H20542797   7.655   1.612   0.294  1.0442 -0.4976 -0.7825
  177MOL   O20642798   7.423   1.523   0.153  0.0056 -0.1868 -1.0641
  177MOL   C20742799   7.288   1.506   0.131 -0.0717 -0.4280  0.2592
  177MOL   C20842800   7.262   1.531   7.965 -0.6360 -0.3068 -0.8023
  177MOL   C20942801   7.271   1.355   0.165  0.0671 -0.1546 -0.5142
  177MOL   C21042802   7.125   1.313   0.190  0.7321  0.2562 -0.0833
  177MOL   O21142803   7.025   1.387   0.194 -0.1578 -0.2322 -0.7622
  177MOL   H21242804   7.223   1.566   0.194 -0.4441 -1.1485  0.5708
  177MOL   H21342805   7.153   1.529   7.959 -0.6733  1.9245 -1.3315
  177MOL   H21442806   7.304   1.456   7.899 -0.0083  0.2938 -1.1014
  177MOL   H21542807   7.285   1.633   7.932  0.3003  0.9400  3.3594
  177MOL   H21642808   7.339   1.322   0.244 -0.1857 -0.8645 -0.5862
  177MOL   H21742809   7.308   1.308   0.074 -0.3533 -0.8689 -0.3196
  177MOL   O21842810   7.119   1.179   0.175  0.2882 -0.1347  0.2167
  177MOL   C21942811   6.998   1.108   0.195  0.1827  0.2441  0.0841
  177MOL   C22042812   6.940   1.087   0.057 -0.5214  0.1843 -0.5249
  177MOL   C22142813   7.039   0.986   0.265 -0.1547  0.0766 -0.3710
  177MOL   C22242814   6.914   0.906   0.324 -0.5749  0.9368  0.4904
  177MOL   O22342815   6.872   0.932   0.436 -0.2996  0.3174  0.0806
  177MOL   H22442816   6.930   1.170   0.253  0.4352  1.9756 -1.4228
  177MOL   H22542817   7.013   1.041   7.971  0.2905  1.6454 -0.6724
  177MOL   H22642818   6.915   1.179   0.004  0.4645  2.5817  2.9177
  177MOL   H22742819   6.849   1.029   0.069 -1.6384  1.6006 -1.9965
  177MOL   H22842820   7.113   1.009   0.342 -0.7439  1.3720 -0.1921
  177MOL   H22942821   7.098   0.932   0.191 -0.1311 -0.0498 -0.2609
  177MOL   O23042822   6.870   0.815   0.238  0.3994 -0.4857  0.1712
  177MOL   C23142823   6.747   0.748   0.256 -1.1270  0.3845 -0.5844
  177MOL   C23242824   6.665   0.818   0.147  0.5683  0.3618  0.2846
  177MOL   C23342825   6.758   0.602   0.232  0.6972  0.2362 -1.4883
  177MOL   C23442826   6.846   0.523   0.328  0.2076 -0.2080 -0.1119
  177MOL   O23542827   6.821   0.502   0.442 -0.0194  0.1271 -0.1587
  177MOL   H23642828   6.709   0.771   0.356  0.9000  0.5252  0.1780
  177MOL   H23742829   6.696   0.802   0.043 -0.5211  1.4336 -0.2118
  177MOL   H23842830   6.668   0.925   0.166  0.7516  0.2807  0.7230
  177MOL   H23942831   6.561   0.786   0.151  0.4041  0.8041 -0.3582
  177MOL   H24042832   6.790   0.575   0.132 -0.3826 -3.2279 -0.9703
  177MOL   H24142833   6.657   0.562   0.231  0.7762 -0.0080 -0.3197
  177MOL   H24242834   6.940   0.489   0.286 -0.4740  1.0733 -2.7834
  178MOL     O142835   6.512   4.651   0.196 -0.6319 -0.3465  1.0399
  178MOL     C242836   6.424   4.768   0.185 -0.1811 -0.1269 -0.3790
  178MOL     C342837   6.499   4.886   0.125  0.4992 -0.2337  0.1791
  178MOL     C442838   6.300   4.726   0.108  0.6570  0.9681  0.0202
  178MOL     C542839   6.165   4.791   0.139  0.0368 -0.1915  0.6923
  178MOL     O642840   6.056   4.735   0.123  0.2496  0.5596 -0.6258
  178MOL     H742841   6.394   4.784   0.289  0.1788 -0.5447 -0.2100
  178MOL     H842842   6.549   4.853   0.034  0.7942 -1.1079  0.6442
  178MOL     H942843   6.577   4.931   0.186  1.4636 -2.5300  0.7144
  178MOL    H1042844   6.428   4.967   0.112 -2.8283 -3.1285 -0.5547
  178MOL    H1142845   6.285   4.623   0.139  1.7510  1.2182  1.4308
  178MOL    H1242846   6.321   4.734   0.001  1.9894 -0.7244  0.1299
  178MOL    H1342847   6.501   4.600   0.117 -1.1220  0.0985  0.8152
  178MOL    O1442848   6.180   4.918   0.181 -0.1996  0.2560 -0.1020
  178MOL    C1542849   6.068   5.006   0.180 -0.1383 -0.2370 -0.5044
  178MOL    C1642850   6.004   4.999   0.316  0.3454  0.1029 -0.3448
  178MOL    C1742851   6.118   5.149   0.145  0.1797 -0.0049  0.7350
  178MOL    C1842852   6.127   5.190   7.975  0.5625  0.1858  0.1114
  178MOL    O1942853   6.027   5.190   7.902 -0.0860 -0.6579 -0.6252
  178MOL    H2042854   5.994   4.975   0.107 -0.8674  0.5281 -0.0942
  178MOL    H2142855   5.981   4.896   0.343 -0.8415  0.3725 -0.2733
  178MOL    H2242856   5.912   5.059   0.315 -0.0878 -0.5549 -2.0267
  178MOL    H2342857   6.058   5.028   0.406 -1.1975 -0.2933  0.7368
  178MOL    H2442858   6.217   5.159   0.188  0.4518  1.5538 -0.2250
  178MOL    H2542859   6.052   5.215   0.201  0.8060 -0.1061  1.5929
  178MOL    O2642860   6.250   5.222   7.940 -0.1954 -0.2812 -0.6381
  178MOL    C2742861   6.283   5.255   7.808  0.0794 -0.8872 -0.1207
  178MOL    C2842862   6.303   5.405   7.773  0.0550 -1.1597  0.1636
  178MOL    C2942863   6.407   5.176   7.763  0.2640  0.2504 -0.1330
  178MOL    C3042864   6.388   5.029   7.756 -0.5034 -0.5214  0.1817
  178MOL    O3142865   6.292   4.974   7.813 -0.4638  0.1962  0.3895
  178MOL    H3242866   6.205   5.234   7.735  0.5670  0.9671 -1.2211
  178MOL    H3342867   6.403   5.441   7.798 -0.3458 -0.1528  0.3647
  178MOL    H3442868   6.226   5.467   7.819 -0.8489 -1.6267 -0.7105
  178MOL    H3542869   6.292   5.424   7.666  1.2846 -1.7624 -0.0750
  178MOL    H3642870   6.495   5.205   7.821 -1.2298  1.9267  1.3402
  178MOL    H3742871   6.433   5.205   7.662  0.7950  2.8214  0.6977
  178MOL    O3842872   6.485   4.964   7.685  0.1323 -0.0050  0.0816
  178MOL    C3942873   6.473   4.826   7.668 -0.0094 -0.3074  0.5922
  178MOL    C4042874   6.458   4.795   7.520  0.0215 -0.4780  0.3756
  178MOL    C4142875   6.608   4.776   7.724  1.1036  0.4395 -0.5014
  178MOL    C4242876   6.607   4.627   7.767  0.0548  0.0139 -0.4384
  178MOL    O4342877   6.575   4.594   7.884  0.0800  0.3939  0.3747
  178MOL    H4442878   6.383   4.790   7.719 -1.4914  1.4225 -0.6915
  178MOL    H4542879   6.356   4.826   7.494 -0.5102 -3.4767 -1.3776
  178MOL    H4642880   6.460   4.692   7.486 -0.8357 -0.4334  0.1742
  178MOL    H4742881   6.531   4.849   7.460  0.0778  0.1226  0.9824
  178MOL    H4842882   6.619   4.832   7.816 -0.5213  1.8542 -1.1517
  178MOL    H4942883   6.697   4.784   7.661  0.5633 -0.1425 -1.3598
  178MOL    O5042884   6.630   4.542   7.667  0.2368 -0.1245 -0.4288
  178MOL    C5142885   6.610   4.401   7.687 -0.1651 -0.1257 -0.4827
  178MOL    C5242886   6.467   4.361   7.644  0.4628  0.5384  0.3599
  178MOL    C5342887   6.720   4.335   7.603  0.2268  0.6724  0.6211
  178MOL    C5442888   6.736   4.188   7.625  0.5392 -0.3225  0.2908
  178MOL    O5542889   6.668   4.117   7.701  0.2574 -0.3683  0.1449
  178MOL    H5642890   6.616   4.360   7.788  1.5265  0.3383 -0.3750
  178MOL    H5742891   6.385   4.414   7.694  0.1278 -0.4653  0.8942
  178MOL    H5842892   6.453   4.254   7.659 -1.4828  0.7247  0.0115
  178MOL    H5942893   6.455   4.370   7.536 -0.0125 -1.8957  0.1737
  178MOL    H6042894   6.812   4.387   7.626  0.0503  1.0611  0.4610
  178MOL    H6142895   6.702   4.363   7.499  0.2413  0.4267  0.5527
  178MOL    O6242896   6.838   4.140   7.553 -0.1573 -0.3222 -0.0288
  178MOL    C6342897   6.861   4.001   7.532 -0.0321 -0.8854  0.1818
  178MOL    C6442898   6.894   3.973   7.386 -0.2880 -0.1565 -1.2185
  178MOL    C6542899   6.986   3.954   7.618  0.6675 -0.4277 -0.9123
  178MOL    C6642900   7.119   4.032   7.588  0.1099 -0.0647 -0.0037
  178MOL    O6742901   7.167   4.065   7.477  0.2123 -0.1399  0.1437
  178MOL    H6842902   6.780   3.933   7.558 -0.0932 -0.9286 -0.1153
  178MOL    H6942903   6.806   3.968   7.322 -1.1649 -0.9651  0.0305
  178MOL    H7042904   6.931   3.871   7.387 -3.0229 -1.1742  0.7177
  178MOL    H7142905   6.966   4.039   7.337  1.4574  0.7080  2.3374
  178MOL    H7242906   6.994   3.847   7.603  0.8215 -0.5782  0.1896
  178MOL    H7342907   6.960   3.959   7.724 -0.2609 -1.2969 -1.0971
  178MOL    O7442908   7.186   4.065   7.702  0.1352  1.1471  0.0536
  178MOL    C7542909   7.325   4.103   7.709  0.3856 -0.6705 -0.0458
  178MOL    C7642910   7.342   4.256   7.719 -0.2439  0.3058  0.0466
  178MOL    C7742911   7.395   4.031   7.821 -0.3252  0.5582 -0.6134
  178MOL    C7842912   7.387   3.878   7.823 -0.2361 -0.8482 -0.0345
  178MOL    O7942913   7.329   3.813   7.731 -0.1962  0.1364 -0.1324
  178MOL    H8042914   7.374   4.083   7.613 -0.2732  2.6479 -1.1470
  178MOL    H8142915   7.449   4.274   7.714 -0.0843 -0.8309 -0.8696
  178MOL    H8242916   7.301   4.287   7.815  1.1987 -0.8686  1.0603
  178MOL    H8342917   7.292   4.302   7.634  0.3255 -0.3616 -0.6590
  178MOL    H8442918   7.367   4.075   7.916 -0.0204 -1.0019  0.2009
  178MOL    H8542919   7.502   4.045   7.802 -0.0710  1.2135  1.2818
  178MOL    O8642920   7.441   3.825   7.925 -0.5184  0.1776 -0.3474
  178MOL    C8742921   7.448   3.685   7.949  0.1360  0.4442  0.1470
  178MOL    C8842922   7.568   3.649   0.052 -0.1441 -0.0504 -0.1506
  178MOL    C8942923   7.312   3.619   0.015 -0.1176  0.7331 -0.5581
  178MOL    C9042924   7.259   3.668   0.147  0.3142 -0.2097  0.4911
  178MOL    O9142925   7.189   3.767   0.162  0.2043  0.3970  0.0093
  178MOL    H9242926   7.461   3.649   7.847 -3.1186 -1.5569  0.3672
  178MOL    H9342927   7.657   3.689   0.004 -0.5621  1.7352  0.5411
  178MOL    H9442928   7.571   3.545   0.085 -3.2196  0.5281  2.2403
  178MOL    H9542929   7.561   3.699   0.149 -0.3529 -0.3386 -0.0174
  178MOL    H9642930   7.320   3.511   0.025  1.9656  0.8450 -0.8437
  178MOL    H9742931   7.233   3.634   7.921 -1.1145 -2.6472 -0.2480
  178MOL    O9842932   7.289   3.572   0.243 -0.1388  0.1615  0.0048
  178MOL    C9942933   7.244   3.603   0.379 -0.3064 -0.2782  0.9338
  178MOL   C10042934   7.161   3.476   0.411  0.4177  0.6793 -0.3466
  178MOL   C10142935   7.364   3.616   0.473  0.3183  0.0705  0.1852
  178MOL   C10242936   7.421   3.757   0.500  0.8260  0.9117  0.5878
  178MOL   O10342937   7.438   3.784   0.618 -0.7625 -0.6415 -0.0509
  178MOL   H10442938   7.176   3.688   0.382  0.3895  0.2993  0.3882
  178MOL   H10542939   7.071   3.468   0.350  1.7852 -1.1716 -2.1902
  178MOL   H10642940   7.140   3.456   0.516  0.5480  1.5546 -0.1461
  178MOL   H10742941   7.210   3.388   0.372 -0.3147  0.7229 -1.3864
  178MOL   H10842942   7.444   3.546   0.451  0.5008 -0.3255  2.0740
  178MOL   H10942943   7.325   3.576   0.566 -0.8134 -2.0806 -1.1800
  178MOL   O11042944   7.478   3.820   0.388 -0.1079  0.8554  0.3644
  178MOL   C11142945   7.554   3.937   0.402 -0.0011 -0.2280 -0.0339
  178MOL   C11242946   7.707   3.906   0.406  0.3424  0.5252 -0.6006
  178MOL   C11342947   7.529   4.035   0.290  0.7249 -0.3692  0.7069
  178MOL   C11442948   7.404   4.118   0.303 -0.4671  0.7305 -0.8012
  178MOL   O11542949   7.388   4.183   0.402  0.6296 -0.2737 -0.1679
  178MOL   H11642950   7.517   3.983   0.495 -0.5976 -0.2508 -0.2551
  178MOL   H11742951   7.733   3.852   0.497  1.5143  2.9499  0.5333
  178MOL   H11842952   7.766   3.997   0.396  1.2508 -0.0172 -0.2701
  178MOL   H11942953   7.748   3.834   0.334  0.6191 -1.2968  1.3195
  178MOL   H12042954   7.534   3.990   0.191 -0.4520 -0.0195  0.4811
  178MOL   H12142955   7.612   4.104   0.302 -0.4766  0.8381  2.3578
  178MOL   O12242956   7.307   4.101   0.216  0.7661  0.3024 -0.3029
  178MOL   C12342957   7.179   4.168   0.233  0.4193 -0.1980  0.2690
  178MOL   C12442958   7.108   4.189   0.097 -0.5991 -0.1514  0.6891
  178MOL   C12542959   7.092   4.077   0.328 -0.3276  0.6695  0.4446
  178MOL   C12642960   6.955   4.138   0.369 -0.1551  0.5420  0.0484
  178MOL   O12742961   6.855   4.067   0.375 -0.0422  0.9047 -0.5883
  178MOL   H12842962   7.190   4.258   0.294  1.5609 -0.4670  0.4773
  178MOL   H12942963   7.088   4.091   0.053 -2.1000  0.7305 -0.6799
  178MOL   H13042964   7.177   4.235   0.026 -1.7615 -0.5565 -0.7420
  178MOL   H13142965   7.013   4.241   0.108  0.6924  2.4780 -0.1740
  178MOL   H13242966   7.145   4.079   0.423 -1.4985  1.5659  1.0899
  178MOL   H13342967   7.093   3.972   0.300 -0.9198  0.7835 -0.0381
  178MOL   O13442968   6.958   4.275   0.378 -0.2295  0.2421  0.3488
  178MOL   C13542969   6.833   4.351   0.376  0.5457  0.2745  1.1067
  178MOL   C13642970   6.863   4.450   0.489 -0.1884  0.9812 -0.6042
  178MOL   C13742971   6.820   4.415   0.236 -0.1565 -0.4022 -0.0925
  178MOL   C13842972   6.734   4.338   0.129 -0.2177  0.3858  0.2326
  178MOL   O13942973   6.779   4.328   0.014 -0.2679 -0.2921 -1.4705
  178MOL   H14042974   6.751   4.283   0.399  0.6434 -0.9622 -2.0097
  178MOL   H14142975   6.900   4.399   0.578 -0.9377  1.7071  0.1243
  178MOL   H14242976   6.785   4.519   0.520 -0.9614 -0.0949 -0.1412
  178MOL   H14342977   6.940   4.524   0.465  0.7782  0.6073  1.2087
  178MOL   H14442978   6.914   4.453   0.197 -0.7718  1.1352 -0.1267
  178MOL   H14542979   6.752   4.500   0.238  0.1118 -0.2144  1.7119
  178MOL   O14642980   6.619   4.270   0.168 -0.0652 -0.0271 -0.5527
  178MOL   C14742981   6.539   4.203   0.070 -0.2252  0.9332  0.2560
  178MOL   C14842982   6.596   4.062   0.036 -0.0041  0.2626  0.0541
  178MOL   C14942983   6.397   4.191   0.115  0.3542 -0.0025  0.1921
  178MOL   C15042984   6.306   4.317   0.108  0.1451 -0.1405  0.5801
  178MOL   O15142985   6.352   4.419   0.060 -0.1262 -0.2679 -0.0552
  178MOL   H15242986   6.539   4.257   7.955  2.1162  0.4589 -0.0333
  178MOL   H15342987   6.523   4.019   7.947 -1.5182  1.8437  0.6599
  178MOL   H15442988   6.586   4.011   0.132  0.8277  2.4929  1.3729
  178MOL   H15542989   6.700   4.046   0.009 -0.1049  1.4723 -1.0624
  178MOL   H15642990   6.398   4.147   0.214 -1.9750  1.0411  0.7344
  178MOL   H15742991   6.352   4.119   0.046 -1.9355  0.6751  0.9081
  178MOL   O15842992   6.182   4.290   0.154  0.0201  0.0274 -0.0260
  178MOL   C15942993   6.087   4.391   0.155 -0.1840  0.0220  0.1103
  178MOL   C16042994   5.966   4.324   0.084 -0.6983  0.2614  0.0385
  178MOL   C16142995   6.063   4.449   0.300  0.4053  0.0894  0.0367
  178MOL   C16242996   5.986   4.346   0.391  0.1880 -1.0587 -0.2394
  178MOL   O16342997   5.900   4.390   0.466  0.2066  0.4627 -0.0848
  178MOL   H16442998   6.124   4.472   0.092 -1.9213 -0.5116 -1.6430
  178MOL   H16542999   5.957   4.218   0.105 -0.1580  0.0655 -0.7055
  178MOL   H16643000   5.961   4.334   7.956 -0.1147 -0.2206 -0.0375
  178MOL   H16743001   5.869   4.361   0.117 -0.2084  1.8001 -0.1932
  178MOL   H16843002   6.003   4.539   0.284 -0.8221 -0.5481  0.9649
  178MOL   H16943003   6.159   4.482   0.339 -0.5241  1.1460  1.5040
  178MOL   O17043004   6.033   4.216   0.381  0.9653 -0.4426  0.0844
  178MOL   C17143005   5.986   4.111   0.463 -0.1653 -0.3036 -0.1755
  178MOL   C17243006   5.852   4.065   0.404  0.4039 -0.4561 -0.3690
  178MOL   C17343007   6.098   4.001   0.476  0.0174 -0.2524  0.3136
  178MOL   C17443008   6.219   4.033   0.562 -0.8838  0.4014  0.3653
  178MOL   O17543009   6.260   3.947   0.642 -0.2220  0.0649  0.1705
  178MOL   H17643010   5.978   4.153   0.563 -0.3655  0.2772 -0.4399
  178MOL   H17743011   5.792   4.152   0.380  0.3571 -0.8201 -1.6119
  178MOL   H17843012   5.796   3.998   0.469 -0.1489  0.4175  0.0478
  178MOL   H17943013   5.866   4.000   0.317  2.1249 -0.7847  0.1333
  178MOL   H18043014   6.138   3.986   0.376  0.1066 -0.2813  0.3529
  178MOL   H18143015   6.057   3.911   0.521  1.4351 -1.0004  0.1617
  178MOL   O18243016   6.268   4.157   0.533 -0.1296  0.2822 -0.3823
  178MOL   C18343017   6.385   4.209   0.597  0.0099  0.0120  0.3281
  178MOL   C18443018   6.505   4.151   0.525  0.1690  0.4161 -0.1502
  178MOL   C18543019   6.378   4.361   0.577 -0.1593 -0.8849  0.6360
  178MOL   C18643020   6.246   4.424   0.641 -0.4529 -0.2431 -0.5739
  178MOL   O18743021   6.180   4.511   0.584  0.2576  0.4409  0.1690
  178MOL   H18843022   6.393   4.193   0.705 -0.0712 -0.1861  0.3032
  178MOL   H18943023   6.495   4.139   0.417  1.5821  2.6834 -0.5597
  178MOL   H19043024   6.526   4.055   0.572  0.7826  0.6392  0.0322
  178MOL   H19143025   6.584   4.225   0.527 -0.9639  1.6065  1.1850
  178MOL   H19243026   6.389   4.390   0.473 -0.4019 -1.9343  0.3101
  178MOL   H19343027   6.470   4.389   0.628 -0.1297  2.1437 -0.9306
  178MOL   O19443028   6.218   4.374   0.765  0.4058 -0.1377  0.4022
  178MOL   C19543029   6.099   4.418   0.832 -0.6981 -0.7431 -0.4118
  178MOL   C19643030   6.046   4.312   0.932  0.3252 -0.4788 -0.3041
  178MOL   C19743031   6.125   4.551   0.892 -0.6572 -0.0568 -0.3001
  178MOL   C19843032   6.012   4.618   0.960  0.7653 -0.0898  0.1410
  178MOL   O19943033   5.896   4.585   0.934  0.2087  0.3364 -0.2937
  178MOL   H20043034   6.025   4.442   0.756  1.0377  3.6309 -0.8530
  178MOL   H20143035   5.980   4.243   0.881  2.3231 -0.7918 -2.5125
  178MOL   H20243036   5.985   4.355   1.012  2.6052 -0.4271  1.4540
  178MOL   H20343037   6.128   4.257   0.977  2.1052  1.0670 -1.5633
  178MOL   H20443038   6.159   4.616   0.811  2.9442 -0.7485  0.5439
  178MOL   H20543039   6.215   4.551   0.954  0.7905  0.4593 -2.3346
  178MOL   O20643040   6.056   4.716   1.039 -0.2407 -0.5363 -0.4486
  178MOL   C20743041   5.970   4.803   1.105  0.9638  0.2803 -0.2538
  178MOL   C20843042   5.999   4.790   1.254  0.5064  0.9261 -0.4982
  178MOL   C20943043   5.985   4.946   1.052 -0.3135  0.0959 -0.4660
  178MOL   C21043044   5.909   4.979   0.928 -0.5293  0.2659 -0.3115
  178MOL   O21143045   5.837   4.901   0.868  0.2109 -0.4515  0.1427
  178MOL   H21243046   5.867   4.793   1.072  1.7814 -1.8167 -2.2816
  178MOL   H21343047   5.980   4.692   1.299 -0.5744  1.4961  0.3061
  178MOL   H21443048   5.925   4.860   1.291 -1.0980 -0.0547 -1.7596
  178MOL   H21543049   6.097   4.828   1.281 -0.3264  0.9762  2.6199
  178MOL   H21643050   6.091   4.965   1.034 -0.2843  0.9515  0.5486
  178MOL   H21743051   5.949   5.014   1.129  0.4797  1.6411 -1.4247
  178MOL   O21843052   5.922   5.106   0.896 -0.1885 -0.9557 -0.2297
  178MOL   C21943053   5.851   5.159   0.783 -0.2750  0.4592 -0.3269
  178MOL   C22043054   5.785   5.289   0.850  0.3694  0.2006 -0.0635
  178MOL   C22143055   5.947   5.193   0.661 -0.5573 -0.0336 -0.3743
  178MOL   C22243056   5.890   5.262   0.539  0.3789  0.6791  0.4465
  178MOL   O22343057   5.949   5.335   0.466  0.0161  0.2882 -0.4120
  178MOL   H22443058   5.770   5.096   0.745 -0.5522  0.0960  0.8419
  178MOL   H22543059   5.732   5.261   0.941 -0.7934  2.0067 -0.1479
  178MOL   H22643060   5.708   5.338   0.789 -1.2518  0.0941  1.8465
  178MOL   H22743061   5.859   5.365   0.873  0.1955  0.4703 -0.3726
  178MOL   H22843062   6.000   5.103   0.628  1.0862 -0.5178  3.3803
  178MOL   H22943063   6.023   5.258   0.703  0.2532 -2.8552  2.7545
  178MOL   O23043064   5.765   5.225   0.523 -0.2083 -0.0019 -0.1547
  178MOL   C23143065   5.680   5.288   0.426 -1.1198 -0.3132 -0.2403
  178MOL   C23243066   5.582   5.188   0.367  0.8602  0.7662 -0.2827
  178MOL   C23343067   5.620   5.416   0.494  0.6239  0.2946 -0.2417
  178MOL   C23443068   5.553   5.515   0.396 -0.4688  0.0421 -0.3197
  178MOL   O23543069   5.558   5.497   0.275  0.5568 -0.4806 -0.6579
  178MOL   H23643070   5.744   5.330   0.348  0.1245 -0.7636  0.5207
  178MOL   H23743071   5.648   5.113   0.323 -0.0066  1.1720 -2.3372
  178MOL   H23843072   5.526   5.219   0.279 -1.2227 -0.4615  0.5863
  178MOL   H23943073   5.525   5.138   0.446  2.6894 -1.8564 -0.5725
  178MOL   H24043074   5.696   5.474   0.547  0.4202  1.3758 -1.1237
  178MOL   H24143075   5.544   5.391   0.567  0.9825  2.5032  0.9499
  178MOL   H24243076   5.493   5.597   0.437 -1.2537  0.3375 -2.0053
  179MOL     O143077   2.381   0.405   4.663 -0.1313  0.2509  0.5357
  179MOL     C243078   2.440   0.288   4.608  0.7716  0.1512  0.0054
  179MOL     C343079   2.580   0.275   4.673 -0.7499  0.4789 -0.6175
  179MOL     C443080   2.352   0.169   4.620  0.3045  0.3572 -0.0683
  179MOL     C543081   2.393   0.054   4.524  0.0193 -0.1922 -0.9397
  179MOL     O643082   2.508   0.051   4.480  0.1626 -0.1759 -0.3706
  179MOL     H743083   2.466   0.302   4.504  1.2613 -1.4769 -0.1071
  179MOL     H843084   2.654   0.215   4.620 -0.2425 -1.5312  2.2832
  179MOL     H943085   2.575   0.251   4.779  0.5837 -0.8062 -0.8210
  179MOL    H1043086   2.624   0.375   4.679 -0.1385  0.1493  0.5268
  179MOL    H1143087   2.252   0.187   4.580  0.4345 -2.9715 -2.1391
  179MOL    H1243088   2.338   0.128   4.720  2.2035 -1.1821 -0.3928
  179MOL    H1343089   2.385   0.386   4.756 -0.5017 -2.1622  0.0910
  179MOL    O1443090   2.294   7.946   4.510 -0.0700  0.1994  0.1742
  179MOL    C1543091   2.290   7.839   4.421  0.1633 -0.5263 -0.1121
  179MOL    C1643092   2.310   7.704   4.483  0.3423 -0.1075  0.1117
  179MOL    C1743093   2.153   7.843   4.352 -0.6121 -0.7233 -0.2067
  179MOL    C1843094   2.134   7.940   4.245  0.5743 -0.0262 -0.3582
  179MOL    O1943095   2.231   0.018   4.194 -0.7254  0.0114  0.2783
  179MOL    H2043096   2.364   7.853   4.342  0.6977 -0.0122  0.4689
  179MOL    H2143097   2.311   7.617   4.417 -2.1410 -0.8401  0.9855
  179MOL    H2243098   2.228   7.688   4.553  0.6320  1.8147  0.9291
  179MOL    H2343099   2.399   7.697   4.544 -0.4080  0.8955  1.3361
  179MOL    H2443100   2.081   7.867   4.431 -0.4953 -0.8982 -0.0456
  179MOL    H2543101   2.131   7.744   4.313  1.1367 -0.4956 -1.8299
  179MOL    O2643102   2.001   7.951   4.204 -0.3203 -0.2089  0.1212
  179MOL    C2743103   1.963   0.027   4.080 -0.0252  0.9256 -0.8054
  179MOL    C2843104   1.992   7.918   3.962 -0.3223 -0.2830 -0.1426
  179MOL    C2943105   1.818   0.074   4.079 -0.3183 -0.2441  0.8067
  179MOL    C3043106   1.797   0.196   4.169  0.2192  0.5716  0.3507
  179MOL    O3143107   1.734   0.194   4.279 -0.5610  0.6937 -0.6024
  179MOL    H3243108   2.025   0.117   4.073  0.4142  0.6805 -0.1326
  179MOL    H3343109   1.942   7.822   3.970  1.5864 -1.2136  0.9063
  179MOL    H3443110   2.099   7.907   3.943  0.1172  0.9561  1.4596
  179MOL    H3543111   1.962   7.966   3.869 -0.5384  1.8386  0.9796
  179MOL    H3643112   1.749   0.006   4.129 -0.8294  0.4787  1.1022
  179MOL    H3743113   1.770   0.103   3.986 -1.7693  0.5582  1.7828
  179MOL    O3843114   1.858   0.305   4.129  0.3791 -0.4174 -0.0218
  179MOL    C3943115   1.835   0.427   4.200 -0.5475 -0.5605 -0.5297
  179MOL    C4043116   1.943   0.440   4.307  0.3435  0.0912  0.2043
  179MOL    C4143117   1.837   0.542   4.102 -0.0315 -0.2307  0.2500
  179MOL    C4243118   1.786   0.672   4.153 -0.0490  0.3006  0.0015
  179MOL    O4343119   1.860   0.761   4.199 -0.5332  0.4037 -0.7481
  179MOL    H4443120   1.731   0.420   4.232  0.1619  1.1352  2.3396
  179MOL    H4543121   1.945   0.360   4.381 -0.6334 -1.4121 -1.3548
  179MOL    H4643122   1.934   0.540   4.351 -0.2785  0.9020 -1.7099
  179MOL    H4743123   2.040   0.445   4.257  1.4466  0.7656  2.3600
  179MOL    H4843124   1.791   0.516   4.007 -0.5984 -1.2212  0.7856
  179MOL    H4943125   1.942   0.553   4.078 -0.5475  1.0606 -1.5295
  179MOL    O5043126   1.655   0.679   4.128 -0.2030  0.2308 -0.2733
  179MOL    C5143127   1.574   0.798   4.147  0.6244 -0.4159 -0.3444
  179MOL    C5243128   1.545   0.861   4.002 -0.1923 -0.8549 -0.2019
  179MOL    C5343129   1.442   0.740   4.211  0.5938  0.5994  0.0215
  179MOL    C5443130   1.349   0.853   4.247  0.5649 -0.3576  0.0871
  179MOL    O5543131   1.229   0.836   4.276 -0.0765  0.5269  0.2988
  179MOL    H5643132   1.624   0.866   4.216 -1.4671 -1.8403  2.6737
  179MOL    H5743133   1.460   0.807   3.960 -2.4400  2.5730 -0.2999
  179MOL    H5843134   1.636   0.866   3.943  0.0751  0.1600  0.2787
  179MOL    H5943135   1.517   0.966   4.004 -2.7945 -1.5117 -0.5257
  179MOL    H6043136   1.466   0.671   4.292 -1.1092 -1.3209 -1.0773
  179MOL    H6143137   1.396   0.691   4.126  0.2993  0.7067  0.1200
  179MOL    O6243138   1.415   0.972   4.266  0.3630 -0.3803  0.0872
  179MOL    C6343139   1.338   1.093   4.290 -0.4531 -0.3018  0.7701
  179MOL    C6443140   1.396   1.150   4.416 -0.2449 -0.2746 -0.4364
  179MOL    C6543141   1.345   1.196   4.176 -0.1951  0.2346  0.2673
  179MOL    C6643142   1.483   1.274   4.164 -0.0132 -0.6695  0.1592
  179MOL    O6743143   1.495   1.401   4.178 -0.7263  0.8683 -0.4001
  179MOL    H6843144   1.232   1.075   4.310 -0.7455 -0.7289 -1.0897
  179MOL    H6943145   1.342   1.098   4.495 -0.0479 -2.2269 -1.5448
  179MOL    H7043146   1.371   1.254   4.436  0.8633 -0.4412  2.0031
  179MOL    H7143147   1.504   1.136   4.423 -0.0798  0.7027 -0.8406
  179MOL    H7243148   1.272   1.275   4.195 -1.0334 -0.6163  0.6632
  179MOL    H7343149   1.319   1.137   4.088 -4.5794 -1.8920  2.7792
  179MOL    O7443150   1.581   1.188   4.137  0.0364 -0.0414 -0.5328
  179MOL    C7543151   1.714   1.222   4.157  0.2631 -0.2210 -0.2292
  179MOL    C7643152   1.791   1.095   4.202 -0.1836  0.9459 -0.0331
  179MOL    C7743153   1.764   1.284   4.016 -0.0081 -0.3141 -0.4447
  179MOL    C7843154   1.896   1.363   4.031  0.3928  0.3430 -0.4229
  179MOL    O7943155   1.997   1.345   3.964  0.6295 -0.1491  0.2957
  179MOL    H8043156   1.727   1.294   4.237 -1.9556 -0.0365 -0.0025
  179MOL    H8143157   1.896   1.104   4.230 -0.7761  1.8641  2.0004
  179MOL    H8243158   1.780   1.018   4.124 -1.9548  0.2457  0.8619
  179MOL    H8343159   1.746   1.052   4.292 -1.2888  0.6711 -0.7067
  179MOL    H8443160   1.699   1.367   3.989  0.3306 -0.3287 -1.3282
  179MOL    H8543161   1.774   1.197   3.951 -3.5051 -1.3444  0.2929
  179MOL    O8643162   1.882   1.451   4.132 -0.1973 -0.0486 -0.2631
  179MOL    C8743163   2.010   1.520   4.160 -0.0415 -0.1281 -0.1673
  179MOL    C8843164   1.989   1.667   4.139  0.0133  0.4414  0.2669
  179MOL    C8943165   2.053   1.483   4.303 -0.8589 -0.1601 -0.3290
  179MOL    C9043166   2.084   1.340   4.328 -0.2857  0.3948 -0.4387
  179MOL    O9143167   2.009   1.272   4.406 -0.0188 -0.5485  0.3438
  179MOL    H9243168   2.095   1.493   4.097  1.2027 -1.3406  1.9675
  179MOL    H9343169   1.906   1.707   4.198 -0.8815 -0.3285 -0.4562
  179MOL    H9443170   1.980   1.690   4.033 -1.6852 -0.8968  0.0997
  179MOL    H9543171   2.082   1.712   4.173 -0.1307  0.5149  0.5702
  179MOL    H9643172   1.980   1.524   4.373  2.3156  2.9260  1.3352
  179MOL    H9743173   2.151   1.525   4.323 -0.5511 -0.0714 -1.9266
  179MOL    O9843174   2.187   1.297   4.247 -0.0104 -0.0445 -0.3350
  179MOL    C9943175   2.224   1.158   4.238  0.0280 -0.2951  0.2504
  179MOL   C10043176   2.199   1.098   4.101 -0.1896 -0.5008 -0.0217
  179MOL   C10143177   2.372   1.146   4.290 -0.3413 -0.0634 -0.8200
  179MOL   C10243178   2.478   1.227   4.214  0.0978 -0.2754  0.1452
  179MOL   O10343179   2.565   1.170   4.147  0.7663  0.2042 -0.1405
  179MOL   H10443180   2.158   1.107   4.308 -0.1726  0.6109  0.7235
  179MOL   H10543181   2.282   1.120   4.035 -0.5559  0.7578 -0.0728
  179MOL   H10643182   2.100   1.124   4.065 -0.6418 -0.5447  1.1468
  179MOL   H10743183   2.199   0.989   4.104 -3.0706 -0.6176 -1.8225
  179MOL   H10843184   2.396   1.040   4.292  0.6977  0.1732  2.3904
  179MOL   H10943185   2.374   1.165   4.397  1.7608 -1.4210 -0.5812
  179MOL   O11043186   2.479   1.350   4.244 -0.1785 -0.0855 -0.5022
  179MOL   C11143187   2.546   1.446   4.164  0.1556  0.1441 -0.6047
  179MOL   C11243188   2.478   1.583   4.193  0.8436 -0.5908 -0.6168
  179MOL   C11343189   2.699   1.444   4.211  0.7331  0.3953  0.0725
  179MOL   C11443190   2.794   1.512   4.112 -0.1966  0.3515 -0.2027
  179MOL   O11543191   2.891   1.454   4.070 -0.0575  0.4373  0.4934
  179MOL   H11643192   2.541   1.415   4.060  1.5692 -1.6391 -0.1751
  179MOL   H11743193   2.372   1.581   4.166  0.2439 -2.7881  1.6912
  179MOL   H11843194   2.515   1.668   4.136 -0.1282  0.0682 -0.2813
  179MOL   H11943195   2.481   1.616   4.296  2.5095 -2.4826 -0.0333
  179MOL   H12043196   2.722   1.337   4.212 -0.1659  0.1941  0.4101
  179MOL   H12143197   2.723   1.489   4.308  1.3690  2.4100 -0.9920
  179MOL   O12243198   2.761   1.636   4.075 -0.0322  0.3642  0.1518
  179MOL   C12343199   2.832   1.714   3.984  0.3321  0.1890  0.3697
  179MOL   C12443200   2.732   1.713   3.872  0.1645  0.1329 -0.1524
  179MOL   C12543201   2.866   1.852   4.035 -0.3336  0.0260  0.0983
  179MOL   C12643202   2.968   1.851   4.144  0.0272 -0.4058  0.4956
  179MOL   O12743203   2.943   1.898   4.257 -0.0933  0.8289 -0.1029
  179MOL   H12843204   2.921   1.668   3.941 -0.2162 -1.2017  0.6879
  179MOL   H12943205   2.769   1.770   3.787  0.6340  0.8344  0.5154
  179MOL   H13043206   2.632   1.746   3.900 -0.0658  0.3037 -1.1736
  179MOL   H13143207   2.719   1.609   3.844  1.9963  0.0574 -0.7749
  179MOL   H13243208   2.771   1.894   4.068 -0.6682 -1.0835  0.5712
  179MOL   H13343209   2.895   1.908   3.946  1.6543  2.2317  2.0573
  179MOL   O13443210   3.083   1.789   4.095  0.4901  0.6492 -0.1170
  179MOL   C13543211   3.181   1.746   4.183  0.0780  0.3790  0.0957
  179MOL   C13643212   3.236   1.620   4.112  0.1823 -0.0645 -0.4820
  179MOL   C13743213   3.296   1.851   4.204  0.3802  0.1649 -0.3488
  179MOL   C13843214   3.265   1.963   4.308  0.4100  0.1799  0.2769
  179MOL   O13943215   3.208   2.072   4.287 -0.3781  0.4137 -0.2817
  179MOL   H14043216   3.145   1.717   4.282 -1.3629  2.1339  0.1236
  179MOL   H14143217   3.334   1.596   4.153 -0.3695 -1.4347  0.0506
  179MOL   H14243218   3.251   1.638   4.006 -1.4173 -1.6548 -1.0044
  179MOL   H14343219   3.174   1.531   4.106 -1.1918  0.8033  0.5381
  179MOL   H14443220   3.330   1.904   4.115 -0.6513  1.2092 -0.1377
  179MOL   H14543221   3.388   1.803   4.240  0.9397  0.0525 -1.8964
  179MOL   O14643222   3.301   1.925   4.434  0.1170 -0.3086  0.2030
  179MOL   C14743223   3.263   2.001   4.546  0.8637  0.0952  0.3578
  179MOL   C14843224   3.178   1.907   4.623  0.9609  0.4660 -0.5479
  179MOL   C14943225   3.402   2.035   4.613  0.3199  0.0574 -0.1766
  179MOL   C15043226   3.390   2.139   4.725 -0.2772 -0.1505  0.2817
  179MOL   O15143227   3.478   2.147   4.808 -0.0076  0.1805  0.0363
  179MOL   H15243228   3.203   2.087   4.515  1.4203  0.6727  0.8562
  179MOL   H15343229   3.245   1.834   4.669  1.1031  1.0078  0.1329
  179MOL   H15443230   3.100   1.858   4.565  1.3583  1.1843 -1.7158
  179MOL   H15543231   3.129   1.965   4.702  1.4070 -2.1622  1.7415
  179MOL   H15643232   3.474   2.072   4.540  1.6511  1.0470  1.6013
  179MOL   H15743233   3.456   1.951   4.657  2.6239  1.9928  0.7999
  179MOL   O15843234   3.278   2.205   4.734 -0.6463 -0.2712  0.3738
  179MOL   C15943235   3.246   2.279   4.855 -0.5586  0.0666  0.4039
  179MOL   C16043236   3.292   2.421   4.824 -0.1076  0.1739 -0.0595
  179MOL   C16143237   3.091   2.273   4.876 -0.4089  0.0819  0.2546
  179MOL   C16243238   3.047   2.162   4.978  0.2008 -0.1280  0.3388
  179MOL   O16343239   3.097   2.157   5.090 -0.6120 -0.1289  0.0366
  179MOL   H16443240   3.299   2.235   4.939 -0.9111 -0.8741  0.1322
  179MOL   H16543241   3.263   2.494   4.900 -1.8765 -1.8110  1.2444
  179MOL   H16643242   3.245   2.453   4.731 -0.2099 -1.1828 -0.4853
  179MOL   H16743243   3.399   2.433   4.806  0.8139 -0.8824  4.0214
  179MOL   H16843244   3.031   2.258   4.786  1.7948 -1.2894 -1.0225
  179MOL   H16943245   3.040   2.363   4.912 -0.6549  0.2038 -0.3983
  179MOL   O17043246   2.940   2.093   4.945  0.6707 -0.4314  0.0380
  179MOL   C17143247   2.883   1.995   5.024 -0.0113 -0.5253 -0.1871
  179MOL   C17243248   2.730   2.010   5.001  0.0873 -0.0875 -1.0105
  179MOL   C17343249   2.928   1.852   4.982 -0.1086 -0.0276 -0.0727
  179MOL   C17443250   3.062   1.806   5.044  0.4337 -0.0965  0.6101
  179MOL   O17543251   3.068   1.758   5.158 -0.3629 -0.3727  0.4124
  179MOL   H17643252   2.911   2.012   5.128 -0.1819 -1.1416 -0.0345
  179MOL   H17743253   2.666   1.943   5.058 -0.9741  2.6722  1.1662
  179MOL   H17843254   2.695   2.005   4.898  0.2738  1.1327 -1.1427
  179MOL   H17943255   2.704   2.106   5.046 -0.2147  0.3554 -2.0982
  179MOL   H18043256   2.930   1.849   4.873  1.7646 -1.9487 -0.0072
  179MOL   H18143257   2.852   1.782   5.016 -0.1236 -0.2453 -0.5481
  179MOL   O18243258   3.170   1.812   4.947 -0.3343 -0.1750 -0.1615
  179MOL   C18343259   3.308   1.783   4.994 -0.0349  0.3545 -0.1821
  179MOL   C18443260   3.383   1.699   4.888  0.2153 -0.1444  0.0510
  179MOL   C18543261   3.374   1.920   5.018  0.4794 -0.4983 -0.1003
  179MOL   C18643262   3.397   1.947   5.166 -0.0940 -0.2554  0.1605
  179MOL   O18743263   3.508   1.977   5.212  0.4689  0.4761  0.2839
  179MOL   H18843264   3.306   1.725   5.087 -1.6925 -1.3157 -1.2326
  179MOL   H18943265   3.349   1.595   4.890 -2.9017  0.7788 -1.7495
  179MOL   H19043266   3.491   1.698   4.899  0.3438  1.4738 -0.9241
  179MOL   H19143267   3.372   1.740   4.788  1.9294  0.7593  0.2225
  179MOL   H19243268   3.310   2.001   4.984 -0.8460 -2.0301 -1.4256
  179MOL   H19343269   3.469   1.917   4.964  0.4958 -1.8710 -0.0154
  179MOL   O19443270   3.279   1.945   5.243 -0.1024 -0.4528 -0.4771
  179MOL   C19543271   3.288   1.954   5.379 -0.2987  0.5306  0.0477
  179MOL   C19643272   3.241   2.099   5.412 -0.3197 -0.3676  0.2429
  179MOL   C19743273   3.199   1.845   5.439  0.6942 -0.0748 -0.7906
  179MOL   C19843274   3.276   1.710   5.448 -0.1132  0.4317 -0.3261
  179MOL   O19943275   3.246   1.616   5.377 -0.2392 -0.0591 -0.1081
  179MOL   H20043276   3.386   1.936   5.425  0.1144 -0.3910 -1.1817
  179MOL   H20143277   3.233   2.119   5.518  3.9069  0.9340  0.3869
  179MOL   H20243278   3.148   2.132   5.366 -0.3036  1.3542  1.4419
  179MOL   H20343279   3.317   2.170   5.381 -0.4177 -0.7180 -0.8431
  179MOL   H20443280   3.101   1.829   5.394  0.4372  0.6943 -0.5008
  179MOL   H20543281   3.168   1.873   5.540  0.5419  0.3732 -0.9594
  179MOL   O20643282   3.372   1.709   5.533 -0.3599  0.6177  0.0955
  179MOL   C20743283   3.452   1.585   5.553  0.1892 -0.4219  0.1506
  179MOL   C20843284   3.581   1.601   5.472 -0.6394 -0.0882  0.6012
  179MOL   C20943285   3.493   1.563   5.698 -0.4480  0.8007 -0.3560
  179MOL   C21043286   3.562   1.433   5.726 -0.8979 -0.3985 -0.0722
  179MOL   O21143287   3.682   1.428   5.743 -0.0778 -0.3166  0.1598
  179MOL   H21243288   3.400   1.495   5.521 -0.9044  0.1907  0.1716
  179MOL   H21343289   3.658   1.525   5.486 -1.4943 -1.3751 -1.4712
  179MOL   H21443290   3.622   1.695   5.509  0.6333 -0.9654  1.4951
  179MOL   H21543291   3.555   1.612   5.367  0.8066  1.1248  0.3568
  179MOL   H21643292   3.405   1.573   5.761 -0.5035 -0.7344 -0.1968
  179MOL   H21743293   3.567   1.637   5.729  1.2741 -0.7226 -0.7652
  179MOL   O21843294   3.480   1.332   5.726 -0.0312  0.6234 -0.1727
  179MOL   C21943295   3.537   1.198   5.726 -0.5773 -0.0584  0.8029
  179MOL   C22043296   3.476   1.119   5.858  0.1423 -0.2200  0.6451
  179MOL   C22143297   3.486   1.124   5.599  0.5785 -0.1133  0.7923
  179MOL   C22243298   3.341   1.098   5.584  0.6359  0.0316  0.7020
  179MOL   O22343299   3.290   0.990   5.544 -0.2815 -0.4365  0.0492
  179MOL   H22443300   3.645   1.188   5.730 -0.3321  1.8393 -0.5870
  179MOL   H22543301   3.372   1.087   5.847  0.1886 -0.2385  0.2839
  179MOL   H22643302   3.469   1.198   5.934 -0.6207 -0.4410  0.8109
  179MOL   H22743303   3.544   1.048   5.903  1.7734  0.3017 -0.9424
  179MOL   H22843304   3.533   1.025   5.594 -1.4418 -1.0408 -0.4699
  179MOL   H22943305   3.527   1.176   5.512 -1.7937 -0.4952 -0.5981
  179MOL   O23043306   3.272   1.210   5.595 -0.0737  0.2034 -0.4520
  179MOL   C23143307   3.126   1.212   5.595 -0.2157  0.4370 -0.4028
  179MOL   C23243308   3.072   1.148   5.723 -0.1984 -0.7674 -0.5267
  179MOL   C23343309   3.066   1.351   5.574 -0.6689  1.2819 -0.4484
  179MOL   C23443310   3.099   1.453   5.692  0.4489  0.5796 -0.3908
  179MOL   O23543311   3.006   1.489   5.769  0.7069 -0.2441 -0.2560
  179MOL   H23643312   3.098   1.153   5.508 -1.4847  1.8247 -0.9516
  179MOL   H23743313   2.970   1.177   5.750  0.7297 -0.7266  3.2974
  179MOL   H23843314   3.129   1.172   5.812 -1.1032  1.7577 -0.5803
  179MOL   H23943315   3.076   1.040   5.714 -0.5765 -0.8100 -0.2289
  179MOL   H24043316   2.958   1.343   5.566 -0.5024  0.7627 -2.5753
  179MOL   H24143317   3.094   1.391   5.476  3.3782  0.4792  0.2934
  179MOL   H24243318   3.203   1.482   5.701  0.6621  0.1166 -1.2734
  180MOL     O143319   6.368   5.755   7.681 -0.2090 -0.2632 -0.1974
  180MOL     C243320   6.354   5.895   7.699  0.0187 -0.0261 -0.0408
  180MOL     C343321   6.395   5.970   7.571 -0.7001  0.1190 -0.0890
  180MOL     C443322   6.208   5.926   7.732  0.9386  0.2896 -0.4210
  180MOL     C543323   6.179   6.068   7.765  0.1474 -0.7385 -0.2515
  180MOL     O643324   6.100   6.133   7.699 -0.0119  0.1467  1.0540
  180MOL     H743325   6.413   5.924   7.786  1.6023  0.1475 -1.1366
  180MOL     H843326   6.498   5.941   7.547  0.0823  1.7685  1.1862
  180MOL     H943327   6.389   6.078   7.574  0.0209  0.1467  0.4834
  180MOL    H1043328   6.322   5.953   7.492 -2.6149 -1.7795  2.0039
  180MOL    H1143329   6.183   5.880   7.828 -0.1029  0.7711 -0.4531
  180MOL    H1243330   6.132   5.902   7.657 -0.3530  1.4865  0.4622
  180MOL    H1343331   6.388   5.715   7.764 -1.6167 -0.0149  0.2784
  180MOL    O1443332   6.247   6.112   7.874  0.0056 -0.1501  0.0228
  180MOL    C1543333   6.244   6.252   7.913  0.4172  0.1434 -0.1377
  180MOL    C1643334   6.332   6.251   0.056  0.1083  0.3725  0.3914
  180MOL    C1743335   6.326   6.334   7.810 -0.0892  0.2134  0.2536
  180MOL    C1843336   6.242   6.422   7.713  0.1887 -0.7164 -0.1309
  180MOL    O1943337   6.232   6.397   7.591 -0.2413  0.3048 -0.0901
  180MOL    H2043338   6.145   6.291   7.933  0.3973  0.8739 -1.6350
  180MOL    H2143339   6.437   6.227   0.039  0.4401  2.8343 -1.3141
  180MOL    H2243340   6.295   6.181   0.131 -3.7744  3.0044  1.0680
  180MOL    H2343341   6.334   6.347   0.107  2.0285 -0.1723  1.4037
  180MOL    H2443342   6.379   6.270   7.740  0.5425 -1.0438  1.8403
  180MOL    H2543343   6.407   6.398   7.845 -1.1039  0.5025  2.1631
  180MOL    O2643344   6.181   6.523   7.777 -0.0109 -0.6881 -0.0375
  180MOL    C2743345   6.108   6.618   7.710 -0.3888  0.5690  0.0143
  180MOL    C2843346   5.960   6.597   7.748  0.3086  0.1463 -0.4005
  180MOL    C2943347   6.158   6.755   7.756 -0.2758  0.2204  0.5696
  180MOL    C3043348   6.147   6.876   7.656 -0.0804  0.0251  0.1036
  180MOL    O3143349   6.236   6.896   7.573 -0.6473 -0.7736  0.4356
  180MOL    H3243350   6.121   6.601   7.603 -1.1455 -0.3376  0.0570
  180MOL    H3343351   5.960   6.571   7.854 -0.3315 -0.4079 -0.5302
  180MOL    H3443352   5.911   6.520   7.687 -0.8016  1.7860 -1.6263
  180MOL    H3543353   5.911   6.693   7.757 -0.4486 -0.3620  1.0533
  180MOL    H3643354   6.264   6.738   7.778  0.6934  3.4060 -1.1434
  180MOL    H3743355   6.098   6.792   7.838 -0.4576 -2.2290  1.5750
  180MOL    O3843356   6.034   6.936   7.662 -0.0006  0.5274 -0.2598
  180MOL    C3943357   5.990   7.028   7.561  0.4308  0.0541 -0.3635
  180MOL    C4043358   5.866   6.965   7.507 -0.1751 -0.2243  0.5974
  180MOL    C4143359   5.950   7.161   7.634 -1.4804 -0.3452  0.8135
  180MOL    C4243360   6.071   7.253   7.639 -0.0293  0.6692  0.8264
  180MOL    O4343361   6.107   7.323   7.544 -0.2839 -0.0182 -0.0851
  180MOL    H4443362   6.065   7.048   7.485  0.5732  0.0383 -0.2247
  180MOL    H4543363   5.836   7.027   7.422 -0.8436 -0.6007  0.5529
  180MOL    H4643364   5.785   6.961   7.579 -1.3691  1.1079 -0.6476
  180MOL    H4743365   5.885   6.863   7.473  1.5737 -0.0051  0.8533
  180MOL    H4843366   5.922   7.141   7.738  0.3657 -0.6934  1.2815
  180MOL    H4943367   5.869   7.217   7.589 -0.6883 -0.1707 -0.4284
  180MOL    O5043368   6.131   7.259   7.760 -0.3997 -0.6759  0.3301
  180MOL    C5143369   6.256   7.322   7.786 -0.0016  0.5658  0.1541
  180MOL    C5243370   6.221   7.472   7.806 -0.1262  0.3140 -0.4403
  180MOL    C5343371   6.328   7.259   7.913  0.3213 -0.7921  0.2409
  180MOL    C5443372   6.471   7.298   7.926 -0.3724 -0.3101  0.7425
  180MOL    O5543373   6.518   7.403   7.881 -0.2823 -0.8470 -0.2669
  180MOL    H5643374   6.320   7.313   7.698  0.7872 -1.7640  0.9145
  180MOL    H5743375   6.204   7.527   7.714 -1.6320 -0.2635 -0.5246
  180MOL    H5843376   6.282   7.532   7.874  0.4949 -0.1251 -0.6095
  180MOL    H5943377   6.123   7.474   7.854 -0.2181 -0.1852 -0.6083
  180MOL    H6043378   6.326   7.151   7.904 -0.1506 -0.6504 -1.5946
  180MOL    H6143379   6.285   7.282   0.031  1.3419 -0.6493  0.6575
  180MOL    O6243380   6.540   7.227   0.041  0.2122 -0.1549  0.4912
  180MOL    C6343381   6.673   7.254   0.090 -0.3745 -0.0855 -0.3173
  180MOL    C6443382   6.700   7.183   0.226  0.7918 -0.6798  0.8035
  180MOL    C6543383   6.776   7.225   7.961  0.1662 -0.7694 -0.3611
  180MOL    C6643384   6.781   7.075   7.925 -0.2647 -0.2449 -0.5467
  180MOL    O6743385   6.857   6.995   7.978 -0.1113 -0.8361  0.7015
  180MOL    H6843386   6.687   7.359   0.116 -1.5717  0.2011 -0.8135
  180MOL    H6943387   6.797   7.220   0.258  1.5413 -1.9181 -0.0249
  180MOL    H7043388   6.701   7.074   0.230  3.0885 -0.7664 -1.1577
  180MOL    H7143389   6.622   7.206   0.299  1.2578  1.1904  0.7496
  180MOL    H7243390   6.866   7.269   0.025 -1.5304  1.9012  0.6068
  180MOL    H7343391   6.749   7.285   7.874 -3.0820  0.0339  1.0961
  180MOL    O7443392   6.690   7.046   7.827  0.1135 -0.0367 -0.0981
  180MOL    C7543393   6.668   6.913   7.800  0.4657  0.2930  0.3124
  180MOL    C7643394   6.511   6.889   7.818 -0.2434 -0.8329 -0.8474
  180MOL    C7743395   6.726   6.890   7.654  0.0437 -0.0338  0.0279
  180MOL    C7843396   6.876   6.907   7.634 -0.2613  0.9239  0.3993
  180MOL    O7943397   6.960   6.822   7.672 -0.3720 -0.1698  0.5081
  180MOL    H8043398   6.725   6.838   7.856  0.0222 -0.9695 -0.8804
  180MOL    H8143399   6.467   6.935   7.906  1.3564  1.3230 -1.1135
  180MOL    H8243400   6.487   6.784   7.832  0.7572 -0.9455  0.0613
  180MOL    H8343401   6.453   6.917   7.729 -1.1326 -1.1029 -0.3572
  180MOL    H8443402   6.671   6.956   7.587 -1.4736  0.1704  1.4702
  180MOL    H8543403   6.689   6.790   7.633 -3.1668  0.3350  3.4496
  180MOL    O8643404   6.913   7.025   7.574 -0.2172 -0.0343 -0.0670
  180MOL    C8743405   7.046   7.068   7.576  0.0434 -0.6399  0.1219
  180MOL    C8843406   7.078   7.105   7.432  0.2995  0.1948 -0.7030
  180MOL    C8943407   7.050   7.195   7.667  0.7226  0.4190  0.0294
  180MOL    C9043408   7.179   7.256   7.683  0.5588  0.3864  0.1322
  180MOL    O9143409   7.255   7.210   7.773 -0.4009  0.5540 -0.5744
  180MOL    H9243410   7.108   6.995   7.629  2.3028  1.5698  0.6381
  180MOL    H9343411   6.995   7.156   7.383  0.2475  0.0771 -0.7388
  180MOL    H9443412   7.085   7.008   7.383 -0.7805  0.1161 -0.7281
  180MOL    H9543413   7.169   7.163   7.417  0.9042 -0.8312 -1.0122
  180MOL    H9643414   7.010   7.169   7.765  0.4472  1.6113  0.2479
  180MOL    H9743415   6.992   7.277   7.624 -0.5893 -0.3688  0.2956
  180MOL    O9843416   7.198   7.343   7.588  0.4861 -0.0240 -0.4959
  180MOL    C9943417   7.316   7.423   7.586  0.5839  0.2173 -0.5662
  180MOL   C10043418   7.386   7.414   7.451 -0.2319 -0.1072 -0.4937
  180MOL   C10143419   7.278   7.574   7.626  0.4229 -0.3358 -0.2373
  180MOL   C10243420   7.188   7.642   7.517 -0.0529  0.2508 -0.4293
  180MOL   O10343421   7.064   7.647   7.530  0.3571  1.1444 -0.0578
  180MOL   H10443422   7.388   7.400   7.664  0.3650 -0.5430 -0.5902
  180MOL   H10543423   7.469   7.483   7.444 -0.6399  0.3979 -0.3635
  180MOL   H10643424   7.318   7.438   7.369 -0.9642  0.2594  0.2103
  180MOL   H10743425   7.428   7.314   7.435  0.9824  0.4346 -0.7442
  180MOL   H10843426   7.379   7.617   7.630 -0.2868  1.2914  0.6151
  180MOL   H10943427   7.227   7.567   7.722  0.0174 -1.2772 -0.5198
  180MOL   O11043428   7.260   7.683   7.411  0.3608  0.0833 -0.4457
  180MOL   C11143429   7.202   7.746   7.295 -0.1735  0.6251  0.3847
  180MOL   C11243430   7.176   7.894   7.339  0.0248 -0.5194 -0.1293
  180MOL   C11343431   7.272   7.718   7.156 -0.1947 -0.4183 -0.3000
  180MOL   C11443432   7.404   7.789   7.137  0.5246  0.5463 -0.1945
  180MOL   O11543433   7.436   7.883   7.208  0.0415  0.1715 -0.2568
  180MOL   H11643434   7.102   7.706   7.287  0.3359 -1.0368  2.1870
  180MOL   H11743435   7.256   7.928   7.405  0.9125 -2.7234 -0.0039
  180MOL   H11843436   7.082   7.908   7.393 -1.0254  1.2175 -2.3531
  180MOL   H11943437   7.185   7.954   7.249  0.2683  0.6756  0.6675
  180MOL   H12043438   7.206   7.758   7.078 -1.9766 -1.2017  0.7799
  180MOL   H12143439   7.281   7.612   7.133  2.9828 -0.1934 -0.3819
  180MOL   O12243440   7.478   7.731   7.037 -0.3907 -0.4682 -0.2131
  180MOL   C12343441   7.595   7.809   7.000  0.2786  0.5068  0.0795
  180MOL   C12443442   7.714   7.720   7.042 -0.2689 -0.2970 -0.2338
  180MOL   C12543443   7.606   7.838   6.852  0.4919  0.2447 -0.2013
  180MOL   C12643444   7.501   7.943   6.802 -0.8906 -0.4637  0.4696
  180MOL   O12743445   7.390   7.946   6.858  0.6856 -0.7158  0.4529
  180MOL   H12843446   7.605   7.902   7.056 -0.1259  1.3234 -1.1881
  180MOL   H12943447   7.707   7.695   7.148  0.4895 -0.9355 -0.3295
  180MOL   H13043448   7.813   7.762   7.021 -1.1915  2.7624  1.1728
  180MOL   H13143449   7.717   7.626   6.987  2.5429 -1.1245  1.2348
  180MOL   H13243450   7.598   7.750   6.787 -0.5163  1.2225 -1.4447
  180MOL   H13343451   7.706   7.880   6.840  1.3847 -2.0313 -0.9147
  180MOL   O13443452   7.547   0.031   6.688  0.7668  0.2106  0.6146
  180MOL   C13543453   7.464   0.094   6.600 -0.4347  0.4271 -0.1087
  180MOL   C13643454   7.488   0.248   6.620 -0.0396  1.1904 -0.0173
  180MOL   C13743455   7.501   0.049   6.457  0.2656 -0.2236  0.3985
  180MOL   C13843456   7.455   7.884   6.439 -0.8803  0.6899  0.1880
  180MOL   O13943457   7.539   7.796   6.456 -0.0004 -0.1861 -0.0172
  180MOL   H14043458   7.359   0.076   6.626 -0.8138  1.0311 -1.1911
  180MOL   H14143459   7.430   0.314   6.556  0.5505  0.6999 -1.0676
  180MOL   H14243460   7.592   0.283   6.618  0.0469  1.0825  1.5148
  180MOL   H14343461   7.458   0.274   6.722  0.0037  1.3445 -0.0444
  180MOL   H14443462   7.604   0.060   6.421  0.3687 -0.1930  0.7012
  180MOL   H14543463   7.452   0.110   6.381 -0.3045 -0.7559  0.3341
  180MOL   O14643464   7.328   7.868   6.419 -0.4718 -0.2160  0.2598
  180MOL   C14743465   7.262   7.746   6.444  0.1774  0.2067 -0.2736
  180MOL   C14843466   7.110   7.771   6.452  0.9380 -0.4247  0.3216
  180MOL   C14943467   7.295   7.644   6.326  0.7401 -0.0099 -0.2078
  180MOL   C15043468   7.247   7.690   6.185  0.3851  0.2763  0.0471
  180MOL   O15143469   7.297   7.789   6.124  0.1421  0.0028  0.5529
  180MOL   H15243470   7.293   7.709   6.542  0.9107  0.2168 -0.5019
  180MOL   H15343471   7.058   7.675   6.458  1.5600 -0.6874  1.4473
  180MOL   H15443472   7.076   7.837   6.372 -0.9914 -1.1360  0.5279
  180MOL   H15543473   7.090   7.827   6.543  1.7551 -0.0968  0.3044
  180MOL   H15643474   7.239   7.553   6.347  2.4566 -1.0065  0.1416
  180MOL   H15743475   7.403   7.628   6.326  0.3751 -2.6650  1.1638
  180MOL   O15843476   7.147   7.613   6.140  0.2113 -0.3725 -0.1657
  180MOL   C15943477   7.082   7.634   6.015  0.3887 -0.0297  0.5557
  180MOL   C16043478   7.059   7.488   5.959  0.0035 -0.3143  0.1250
  180MOL   C16143479   6.949   7.714   6.033  0.0867 -0.5207 -0.1901
  180MOL   C16243480   6.953   7.862   6.055  0.0965  0.0798  0.3949
  180MOL   O16343481   6.916   7.910   6.165 -0.6556 -0.7218 -0.0071
  180MOL   H16443482   7.155   7.686   5.952 -1.2636  1.9181  0.2032
  180MOL   H16543483   7.022   7.489   5.857 -2.8009 -3.7941  1.0288
  180MOL   H16643484   6.998   7.419   6.017 -0.6212  1.3741  1.5086
  180MOL   H16743485   7.151   7.430   5.947 -0.1472 -0.6792  0.7034
  180MOL   H16843486   6.893   7.670   6.116 -0.2228  0.6345  0.2215
  180MOL   H16943487   6.892   7.693   5.942 -1.2169 -2.9996  1.1356
  180MOL   O17043488   7.004   7.922   5.949  0.2605 -0.0287 -0.7524
  180MOL   C17143489   7.042   0.087   5.953 -0.0434 -0.0375  0.6125
  180MOL   C17243490   7.175   0.087   5.883 -0.5409  0.9476  0.4867
  180MOL   C17343491   6.945   0.178   5.884  0.0408 -0.6934 -0.1153
  180MOL   C17443492   6.829   0.207   5.980  0.0744  0.4861  0.9189
  180MOL   O17543493   6.845   0.275   6.079 -0.2110  0.2782 -0.3320
  180MOL   H17643494   7.070   0.126   6.051  0.8299  1.2938 -0.1508
  180MOL   H17743495   7.155   0.043   5.786 -1.2797  0.0287  1.0485
  180MOL   H17843496   7.260   0.030   5.922  0.6102  3.4337  1.7832
  180MOL   H17943497   7.204   0.191   5.863  2.1214  0.2867  0.6732
  180MOL   H18043498   6.915   0.116   5.800  1.2129 -0.6006 -0.6218
  180MOL   H18143499   6.987   0.270   5.843 -0.1478 -0.2657  0.6527
  180MOL   O18243500   6.710   0.147   5.940  0.4796 -0.4322 -0.6236
  180MOL   C18343501   6.614   0.124   6.040  0.5925  0.3349 -0.7729
  180MOL   C18443502   6.487   0.168   5.971  0.4421 -0.4533 -0.4273
  180MOL   C18543503   6.604   7.957   6.098  0.4268 -0.4861 -0.4748
  180MOL   C18643504   6.564   7.843   6.008 -0.0023  0.0566 -0.1449
  180MOL   O18743505   6.643   7.772   5.945  0.0868  1.1629  0.1435
  180MOL   H18843506   6.629   0.191   6.125 -0.4687 -1.4364  0.8630
  180MOL   H18943507   6.498   0.260   5.913  1.1550 -0.4023 -0.2160
  180MOL   H19043508   6.401   0.159   6.037 -1.5456  1.2429 -2.7057
  180MOL   H19143509   6.474   0.094   5.892  0.1147  0.0649 -0.8584
  180MOL   H19243510   6.538   7.953   6.184  2.3662 -1.1683  1.0341
  180MOL   H19343511   6.691   7.937   6.161  0.9916  2.2035 -0.3472
  180MOL   O19443512   6.425   7.834   6.006 -1.1044 -0.0369 -0.2903
  180MOL   C19543513   6.365   7.753   5.899  0.4915 -0.5608  0.1668
  180MOL   C19643514   6.306   7.634   5.974 -0.5010  0.3594  0.5231
  180MOL   C19743515   6.261   7.833   5.819  0.5000  0.5120  0.9212
  180MOL   C19843516   6.146   7.893   5.901  0.9948 -0.1909  0.7979
  180MOL   O19943517   6.174   0.011   5.970 -0.0100 -0.5536 -0.7691
  180MOL   H20043518   6.450   7.727   5.836  2.1277 -0.6724  2.3643
  180MOL   H20143519   6.214   7.666   6.023 -1.0335  2.0372 -1.5339
  180MOL   H20243520   6.374   7.616   6.058 -1.8478  0.6451  1.7036
  180MOL   H20343521   6.292   7.546   5.912 -1.2139  0.4401  0.5644
  180MOL   H20443522   6.226   7.776   5.733 -0.4497  0.8896  1.0603
  180MOL   H20543523   6.311   7.920   5.775  0.1534  0.2561  0.0134
  180MOL   O20643524   6.027   7.830   5.893 -0.1080 -0.0865  0.0448
  180MOL   C20743525   5.912   7.897   5.949 -0.3056 -0.3959 -0.0440
  180MOL   C20843526   5.862   0.030   5.855  0.9820 -0.6996  0.0875
  180MOL   C20943527   5.804   7.792   5.978 -0.0363  0.3872 -0.0112
  180MOL   C21043528   5.829   7.712   6.113 -0.0827 -0.6258 -0.3109
  180MOL   O21143529   5.768   7.734   6.218  0.7242 -0.2257  0.3395
  180MOL   H21243530   5.941   7.937   6.046 -1.4017  0.9087 -0.2451
  180MOL   H21343531   5.783   0.085   5.907  1.5059  0.7532 -0.6189
  180MOL   H21443532   5.824   0.010   5.755 -1.4146  2.2952  0.3049
  180MOL   H21543533   5.942   0.102   5.839  1.3815 -0.9750  0.8177
  180MOL   H21643534   5.822   7.723   5.896  1.4036 -0.6009  1.1098
  180MOL   H21743535   5.704   7.833   5.968 -0.8119 -0.8639  2.1294
  180MOL   O21843536   5.925   7.623   6.092 -0.4497  0.3084  0.6087
  180MOL   C21943537   5.947   7.528   6.192  0.3620 -0.2930 -1.4714
  180MOL   C22043538   5.998   7.402   6.125  0.0752  0.3593 -0.5035
  180MOL   C22143539   6.041   7.586   6.295  0.4617 -0.0281  0.7648
  180MOL   C22243540   5.996   7.564   6.435 -0.3607  0.4191 -0.4393
  180MOL   O22343541   6.014   7.452   6.484  0.4590 -0.3922 -0.1706
  180MOL   H22443542   5.856   7.497   6.243  1.3279 -0.3241  0.2725
  180MOL   H22543543   5.930   7.376   6.043 -2.6042  1.2049  1.3860
  180MOL   H22643544   6.012   7.314   6.188 -0.6005  0.9290  0.4608
  180MOL   H22743545   6.091   7.427   6.075  0.6829 -3.5908 -1.5623
  180MOL   H22843546   6.044   7.694   6.283  1.3785  0.1834  2.6050
  180MOL   H22943547   6.135   7.539   6.266 -1.0323 -1.8892 -1.2410
  180MOL   O23043548   5.933   7.660   6.489  0.2608 -0.5297 -0.5474
  180MOL   C23143549   5.890   7.658   6.622 -0.3394  0.0486  0.3467
  180MOL   C23243550   5.937   7.800   6.673  0.0972 -0.5776  0.0117
  180MOL   C23343551   5.738   7.630   6.634  0.0229 -0.3473 -0.1154
  180MOL   C23443552   5.686   7.645   6.778  0.5366  0.5496 -0.3302
  180MOL   O23543553   5.680   7.756   6.827  0.4849  0.2112 -0.2533
  180MOL   H23643554   5.952   7.585   6.674  0.8364  1.2353  0.6392
  180MOL   H23743555   5.864   7.873   6.638 -0.0621  0.0921  1.7145
  180MOL   H23843556   6.035   7.838   6.646 -0.3246  0.2586 -0.3764
  180MOL   H23943557   5.924   7.798   6.781 -0.5243  1.0593 -0.0176
  180MOL   H24043558   5.712   7.529   6.603  0.6013 -0.9309  1.2631
  180MOL   H24143559   5.686   7.704   6.573 -0.0378 -0.0644  0.2772
  180MOL   H24243560   5.643   7.557   6.826 -1.2338  1.2406 -0.6154
  181MOL     O143561   0.179   3.017   2.882  0.4121  0.1921 -0.2485
  181MOL     C243562   0.131   2.896   2.826 -0.4535  0.1143  0.2613
  181MOL     C343563   7.964   2.877   2.859 -0.2568 -0.4058  0.7498
  181MOL     C443564   0.172   2.888   2.678 -0.6378  0.8944 -0.8238
  181MOL     C543565   0.124   2.757   2.610 -0.8433 -0.0875  0.2384
  181MOL     O643566   0.032   2.756   2.531  0.3902  0.0927 -0.4318
  181MOL     H743567   0.175   2.818   2.888  0.8041  1.4907  1.1269
  181MOL     H843568   7.949   2.873   2.967  0.8578  2.6575  1.0569
  181MOL     H943569   7.924   2.783   2.820  0.5674 -1.3242  2.0767
  181MOL    H1043570   7.901   2.958   2.822 -0.9761 -1.2845  0.0094
  181MOL    H1143571   0.281   2.892   2.678 -0.6241  0.8677 -2.1567
  181MOL    H1243572   0.136   2.978   2.627 -0.0061 -0.1451 -3.1790
  181MOL    H1343573   0.183   3.008   2.976 -0.3961  2.6929  0.0510
  181MOL    O1443574   0.181   2.650   2.660  0.6701 -0.0962 -0.0337
  181MOL    C1543575   0.125   2.529   2.638  0.2379 -0.4139  0.4193
  181MOL    C1643576   0.238   2.419   2.635  0.4083  0.3383 -0.0867
  181MOL    C1743577   0.015   2.499   2.744 -0.0228 -0.6541  0.4697
  181MOL    C1843578   0.060   2.483   2.888 -0.3836  0.2842 -0.4351
  181MOL    O1943579   0.058   2.582   2.954 -0.2707 -0.0595 -0.2645
  181MOL    H2043580   0.075   2.520   2.542  0.6954 -0.4079  0.1784
  181MOL    H2143581   0.291   2.418   2.540  0.9988 -0.4783  0.2451
  181MOL    H2243582   0.215   2.319   2.670 -0.6776  0.2967 -0.9211
  181MOL    H2343583   0.309   2.448   2.713  2.5945 -0.2425 -1.8156
  181MOL    H2443584   7.960   2.402   2.708  0.3578 -1.0963  1.2795
  181MOL    H2543585   7.911   2.567   2.733  1.3660  1.0636  0.3608
  181MOL    O2643586   0.102   2.358   2.922  0.8132 -0.0944  0.0799
  181MOL    C2743587   0.176   2.340   3.044 -0.0982 -0.2938  0.4639
  181MOL    C2843588   0.119   2.226   3.129 -0.6404  0.5903 -0.6024
  181MOL    C2943589   0.325   2.305   3.022 -0.1841 -0.0262 -0.3436
  181MOL    C3043590   0.407   2.428   3.012 -0.2846  0.2187 -0.8059
  181MOL    O3143591   0.482   2.442   2.917 -0.1745 -0.2080  0.4618
  181MOL    H3243592   0.167   2.426   3.110 -0.8633  0.5316 -0.6874
  181MOL    H3343593   0.114   2.134   3.071 -0.6479 -0.5143  1.1058
  181MOL    H3443594   0.017   2.247   3.163 -0.3543 -2.7252  2.5615
  181MOL    H3543595   0.178   2.214   3.220  1.2390  0.7170 -1.7999
  181MOL    H3643596   0.327   2.255   2.925  1.0668  2.5020 -1.6572
  181MOL    H3743597   0.366   2.251   3.107 -1.8826 -0.3867  0.2830
  181MOL    O3843598   0.376   2.526   3.103  0.5870  0.0594  0.1423
  181MOL    C3943599   0.424   2.657   3.085 -0.8177  0.5319 -0.0492
  181MOL    C4043600   0.326   2.746   3.158  0.1961 -0.4755  0.2006
  181MOL    C4143601   0.579   2.658   3.126 -0.2595 -0.0142  0.0257
  181MOL    C4243602   0.608   2.624   3.272  0.7844  0.0329  0.4524
  181MOL    O4343603   0.570   2.694   3.361  0.2915 -0.2899 -0.0705
  181MOL    H4443604   0.422   2.681   2.978 -0.3978 -0.2077 -0.2325
  181MOL    H4543605   0.231   2.752   3.105  0.7327 -2.0392 -1.0175
  181MOL    H4643606   0.361   2.849   3.159 -1.5336  0.1294 -0.0404
  181MOL    H4743607   0.303   2.712   3.259 -3.1049 -0.0303 -0.3388
  181MOL    H4843608   0.628   2.756   3.121 -2.6018  1.1173 -2.4312
  181MOL    H4943609   0.626   2.590   3.055  0.9538  0.9184 -0.0789
  181MOL    O5043610   0.691   2.509   3.289  0.3069  0.2109  0.2334
  181MOL    C5143611   0.711   2.444   3.407 -0.5389  0.5201  0.2546
  181MOL    C5243612   0.593   2.346   3.441  0.2766 -0.1912 -0.1940
  181MOL    C5343613   0.847   2.376   3.410  0.8812 -0.1091 -0.2568
  181MOL    C5443614   0.966   2.477   3.443  0.2130 -0.1616  0.3017
  181MOL    O5543615   1.053   2.451   3.524 -0.4312 -0.1766  0.5969
  181MOL    H5643616   0.715   2.527   3.478 -1.2855 -0.2465  1.2016
  181MOL    H5743617   0.496   2.389   3.412  0.0103  0.1054  1.1130
  181MOL    H5843618   0.588   2.322   3.547  1.8259 -2.3616 -0.5934
  181MOL    H5943619   0.606   2.254   3.385 -0.1077  0.1460 -0.8462
  181MOL    H6043620   0.873   2.331   3.315 -1.7254 -0.4207 -0.8487
  181MOL    H6143621   0.857   2.304   3.491 -1.9932  0.9709  1.1421
  181MOL    O6243622   0.965   2.592   3.372 -0.2463 -0.8271 -0.7746
  181MOL    C6343623   1.083   2.665   3.356 -0.3996  0.4373  0.3687
  181MOL    C6443624   1.189   2.596   3.262  0.1627  0.2626  0.1865
  181MOL    C6543625   1.034   2.801   3.311 -0.6571 -0.3177 -0.5232
  181MOL    C6643626   1.134   2.908   3.321 -0.5279  0.2192  0.1080
  181MOL    O6743627   1.119   3.007   3.388 -0.4700  0.2155  0.0906
  181MOL    H6843628   1.132   2.688   3.451 -3.3335 -0.6585  2.2108
  181MOL    H6943629   1.167   2.583   3.156  0.9793  0.5905 -0.0322
  181MOL    H7043630   1.212   2.497   3.302 -0.4196  0.4477  0.9941
  181MOL    H7143631   1.286   2.646   3.275  0.2673  0.0640  0.1686
  181MOL    H7243632   0.946   2.830   3.368 -1.1125  0.5472 -1.6703
  181MOL    H7343633   1.002   2.801   3.207  1.7891 -0.6866 -1.3184
  181MOL    O7443634   1.239   2.894   3.239  0.0749 -0.6103  0.3981
  181MOL    C7543635   1.351   2.982   3.233  0.1369  0.2674  0.3392
  181MOL    C7643636   1.460   2.918   3.319  0.2789  0.3865 -0.5972
  181MOL    C7743637   1.394   3.007   3.085  0.2429 -0.5078 -0.1520
  181MOL    C7843638   1.520   3.093   3.065  0.7305 -0.1804  0.2674
  181MOL    O7943639   1.562   3.163   3.157 -0.2511  0.1936  0.2301
  181MOL    H8043640   1.325   3.077   3.280  0.5669  1.0619 -1.0074
  181MOL    H8143641   1.505   2.833   3.267 -0.0249 -1.2616  1.7175
  181MOL    H8243642   1.427   2.881   3.417 -1.5829 -0.1784 -1.4181
  181MOL    H8343643   1.542   2.983   3.349  0.3501 -1.4134  3.4463
  181MOL    H8443644   1.309   3.058   3.042  0.3320 -1.2468 -1.2163
  181MOL    H8543645   1.403   2.912   3.031  0.3314 -0.6399  0.0943
  181MOL    O8643646   1.598   3.066   2.947 -0.0694  0.3363 -0.3044
  181MOL    C8743647   1.714   3.148   2.931  0.3728 -0.6301 -0.6634
  181MOL    C8843648   1.836   3.084   3.002 -0.0949 -0.2242 -0.0320
  181MOL    C8943649   1.732   3.175   2.774  0.0878  0.2266  0.6233
  181MOL    C9043650   1.654   3.293   2.727 -0.0430  0.3914 -0.4676
  181MOL    O9143651   1.533   3.283   2.741 -0.2268  0.4677 -0.7119
  181MOL    H9243652   1.698   3.246   2.977  1.1002 -0.4641 -0.7553
  181MOL    H9343653   1.925   3.145   2.984  0.2889 -0.7971 -0.0703
  181MOL    H9443654   1.858   2.981   2.974  1.8920 -0.2089  1.3076
  181MOL    H9543655   1.822   3.081   3.110 -1.5944  0.8043 -0.1817
  181MOL    H9643656   1.709   3.081   2.725 -1.0197  1.6260 -1.6066
  181MOL    H9743657   1.838   3.197   2.758  0.1205  1.1373  1.9840
  181MOL    O9843658   1.724   3.404   2.685  0.7142  0.7475 -0.2658
  181MOL    C9943659   1.658   3.525   2.669  0.0223 -0.2445  0.0867
  181MOL   C10043660   1.676   3.613   2.787 -0.1322  0.4028  0.1361
  181MOL   C10143661   1.709   3.613   2.551  0.5646 -0.3021  0.4111
  181MOL   C10243662   1.686   3.549   2.423 -0.1290  0.1590  0.5169
  181MOL   O10343663   1.582   3.566   2.364  0.3947 -0.0263 -0.1910
  181MOL   H10443664   1.551   3.508   2.656  0.2096 -1.7565  0.5152
  181MOL   H10543665   1.659   3.555   2.878 -3.1794  0.0006 -0.6154
  181MOL   H10643666   1.614   3.702   2.796 -0.5339 -0.0416  1.9418
  181MOL   H10743667   1.779   3.646   2.798  1.4518 -3.2534 -2.6740
  181MOL   H10843668   1.816   3.633   2.550  0.8236 -1.6643 -1.6022
  181MOL   H10943669   1.668   3.714   2.548 -0.6975 -0.7908  0.9400
  181MOL   O11043670   1.796   3.481   2.382  0.2677  0.0572 -0.0317
  181MOL   C11143671   1.802   3.417   2.259 -0.6794  0.4295 -0.0270
  181MOL   C11243672   1.947   3.392   2.227  0.5204  0.2455  0.2010
  181MOL   C11343673   1.714   3.294   2.269 -0.4328 -0.1149 -1.0541
  181MOL   C11443674   1.705   3.216   2.136  0.5620 -0.5934 -0.1720
  181MOL   O11543675   1.717   3.096   2.131  0.5962 -0.3593 -0.0191
  181MOL   H11643676   1.773   3.490   2.184 -0.9189 -1.0941 -1.4418
  181MOL   H11743677   1.993   3.313   2.286 -1.5771  0.4799  2.2226
  181MOL   H11843678   2.014   3.473   2.252  0.1661  0.4877  0.3716
  181MOL   H11943679   1.975   3.371   2.124 -2.8805 -1.4204 -0.4569
  181MOL   H12043680   1.620   3.333   2.308 -0.4683 -0.3491 -0.9072
  181MOL   H12143681   1.751   3.222   2.342  2.3844  0.6729 -1.6272
  181MOL   O12243682   1.677   3.294   2.028 -0.7646  0.5586 -0.7295
  181MOL   C12343683   1.656   3.232   1.894 -0.1693  0.5633  0.2075
  181MOL   C12443684   1.509   3.267   1.853  0.4061  0.1935  0.3209
  181MOL   C12543685   1.754   3.286   1.789 -0.1121  0.4341  0.6514
  181MOL   C12643686   1.893   3.221   1.807 -0.8099 -0.0690 -0.3849
  181MOL   O12743687   1.947   3.243   1.917 -0.2496  0.4155  0.2042
  181MOL   H12843688   1.682   3.126   1.897 -1.7082  0.2185  1.6983
  181MOL   H12943689   1.491   3.213   1.760 -1.1462 -0.4062  0.9411
  181MOL   H13043690   1.491   3.371   1.826 -2.9392 -0.6530 -0.9543
  181MOL   H13143691   1.435   3.236   1.928 -0.1469  0.4200 -0.1271
  181MOL   H13243692   1.777   3.392   1.797 -1.7741  0.8129  0.5815
  181MOL   H13343693   1.727   3.267   1.685  0.4447  1.7888  0.2516
  181MOL   O13443694   1.940   3.130   1.716  1.0326 -0.5078 -0.6806
  181MOL   C13543695   2.052   3.052   1.732  0.1962  1.2735  0.3543
  181MOL   C13643696   2.023   2.905   1.763 -0.0943  0.3772 -0.2283
  181MOL   C13743697   2.120   3.064   1.593  0.7051 -0.6215 -0.5033
  181MOL   C13843698   2.200   3.189   1.583  0.0564 -0.2325 -0.4379
  181MOL   O13943699   2.162   3.280   1.511  0.6515 -0.0606  0.3786
  181MOL   H14043700   2.109   3.095   1.814  1.8295 -0.1166 -0.0082
  181MOL   H14143701   1.945   2.901   1.839 -0.8225 -0.7275 -1.0268
  181MOL   H14243702   2.111   2.852   1.799  0.6843  0.4418 -1.9489
  181MOL   H14343703   1.988   2.855   1.673 -1.2935  0.1296  0.3795
  181MOL   H14443704   2.049   3.048   1.511  0.1472 -1.1984  0.0873
  181MOL   H14543705   2.183   2.975   1.590  0.6482 -0.7310  1.3260
  181MOL   O14643706   2.322   3.176   1.640  0.1208  0.8487 -0.3712
  181MOL   C14743707   2.417   3.285   1.627  0.4237 -0.3009 -0.5925
  181MOL   C14843708   2.392   3.374   1.750 -0.5487 -0.1378  0.1064
  181MOL   C14943709   2.563   3.231   1.626 -0.1154  0.2754 -0.0862
  181MOL   C15043710   2.681   3.331   1.623  1.1160  0.1423 -0.6098
  181MOL   O15143711   2.665   3.446   1.580  0.4313  0.5126  0.3858
  181MOL   H15243712   2.398   3.350   1.542  0.0394 -1.5855 -1.5059
  181MOL   H15343713   2.417   3.314   1.837  1.0916  0.9270  0.4186
  181MOL   H15443714   2.289   3.400   1.774 -0.0270  2.1715  0.0281
  181MOL   H15543715   2.444   3.470   1.750 -1.2353  0.2351 -0.1301
  181MOL   H15643716   2.576   3.169   1.537  0.8498 -0.0621  0.2801
  181MOL   H15743717   2.574   3.164   1.711 -0.6371  0.4845  0.1454
  181MOL   O15843718   2.798   3.281   1.681  0.2369 -0.1988 -0.3895
  181MOL   C15943719   2.917   3.366   1.694  0.1077  0.2988  0.4093
  181MOL   C16043720   2.975   3.338   1.835  0.3955  0.0463  0.6006
  181MOL   C16143721   3.004   3.323   1.577 -0.7123 -0.6286  0.0987
  181MOL   C16243722   3.085   3.445   1.534 -0.1257 -0.4858 -0.1777
  181MOL   O16343723   3.092   3.468   1.414  0.3892 -0.1723 -0.0034
  181MOL   H16443724   2.889   3.471   1.679 -3.3976 -0.9283 -2.3695
  181MOL   H16543725   2.994   3.231   1.843 -0.1763  0.0151  1.5726
  181MOL   H16643726   2.917   3.370   1.921  1.5880  0.2277  1.3465
  181MOL   H16743727   3.079   3.370   1.844  2.0879 -4.3710 -1.5775
  181MOL   H16843728   2.947   3.301   1.487 -0.6026 -0.8775  0.0883
  181MOL   H16943729   3.063   3.231   1.588  0.8523  0.4871  1.2321
  181MOL   O17043730   3.151   3.504   1.629  0.2535  0.1235  0.3145
  181MOL   C17143731   3.241   3.609   1.607 -0.2506  0.3613 -0.1707
  181MOL   C17243732   3.159   3.739   1.602 -0.7292 -0.2579 -0.1957
  181MOL   C17343733   3.333   3.591   1.719  0.3925  0.2455  0.2644
  181MOL   C17443734   3.467   3.664   1.708  0.8410 -0.0254  1.1744
  181MOL   O17543735   3.474   3.787   1.681  0.5166  0.4038 -0.1981
  181MOL   H17643736   3.288   3.579   1.513 -0.4720 -0.4515 -0.0272
  181MOL   H17743737   3.216   3.830   1.624 -0.3345 -0.6134  0.2656
  181MOL   H17843738   3.086   3.744   1.683 -2.4222  0.5627 -1.7289
  181MOL   H17943739   3.103   3.734   1.508 -0.0811  0.1766 -0.6158
  181MOL   H18043740   3.352   3.488   1.748  0.5560  0.3676  0.6045
  181MOL   H18143741   3.283   3.632   1.807  0.4863  2.6331 -0.7533
  181MOL   O18243742   3.570   3.588   1.745  0.5333 -0.0871 -0.6349
  181MOL   C18343743   3.702   3.633   1.735 -0.2385 -0.4367 -0.7783
  181MOL   C18443744   3.725   3.712   1.865  0.9308  0.6898 -0.4355
  181MOL   C18543745   3.795   3.501   1.718  0.4801 -0.5766 -0.0303
  181MOL   C18643746   3.936   3.521   1.668 -0.6605 -0.0103 -0.1890
  181MOL   O18743747   3.995   3.627   1.701 -0.2311 -0.4063  0.2387
  181MOL   H18843748   3.716   3.705   1.655  3.2561  1.0408  1.0296
  181MOL   H18943749   3.690   3.664   1.956  0.7497  2.3362  0.3676
  181MOL   H19043750   3.680   3.811   1.866 -0.0084  0.3590 -3.4217
  181MOL   H19143751   3.833   3.723   1.868  1.1584 -1.5563  0.4314
  181MOL   H19243752   3.742   3.434   1.651 -0.6217  1.3362 -1.0889
  181MOL   H19343753   3.802   3.455   1.817  0.5922  1.2827  0.8341
  181MOL   O19443754   3.985   3.422   1.588 -0.6936 -0.2779 -0.1996
  181MOL   C19543755   4.128   3.407   1.567  0.5432 -0.8237  0.4530
  181MOL   C19643756   4.161   3.296   1.656 -0.2602  0.2802  0.7999
  181MOL   C19743757   4.153   3.400   1.416 -0.1106  0.5198 -0.1120
  181MOL   C19843758   4.298   3.418   1.381 -0.5232  0.7105 -0.0095
  181MOL   O19943759   4.384   3.417   1.467 -0.2450  0.0961  0.8695
  181MOL   H20043760   4.171   3.500   1.604  0.0275 -1.1320  1.8775
  181MOL   H20143761   4.263   3.257   1.644 -0.1888  0.3308  1.2387
  181MOL   H20243762   4.103   3.209   1.626  0.5677  0.1564 -0.4629
  181MOL   H20343763   4.131   3.320   1.758 -0.8299  1.4119  0.3771
  181MOL   H20443764   4.100   3.482   1.368 -0.1391 -0.6473 -2.1122
  181MOL   H20543765   4.113   3.311   1.368  1.3732 -0.2721  0.0754
  181MOL   O20643766   4.307   3.435   1.248 -0.2292  0.4118  0.4354
  181MOL   C20743767   4.437   3.462   1.194 -0.4995  0.3792 -0.0392
  181MOL   C20843768   4.491   3.347   1.108 -0.4220 -0.1276  0.4357
  181MOL   C20943769   4.422   3.598   1.112 -0.0536 -0.2245 -0.9527
  181MOL   C21043770   4.429   3.722   1.198 -0.2854 -0.8362 -0.2113
  181MOL   O21143771   4.417   3.832   1.144  0.2742 -1.0103  0.4571
  181MOL   H21243772   4.506   3.477   1.278 -0.7857  0.3445  0.2050
  181MOL   H21343773   4.590   3.362   1.066 -0.2360 -0.1349  0.8723
  181MOL   H21443774   4.434   3.335   1.015  1.1040 -0.4638 -0.4746
  181MOL   H21543775   4.491   3.254   1.165  3.5834 -1.3263 -1.3222
  181MOL   H21643776   4.326   3.596   1.061 -1.2481 -3.6558  1.2387
  181MOL   H21743777   4.493   3.612   1.031 -0.7809 -2.3254 -1.9990
  181MOL   O21843778   4.443   3.704   1.333 -0.3340 -0.9715  0.1988
  181MOL   C21943779   4.449   3.818   1.415 -1.0572  0.0142 -0.2233
  181MOL   C22043780   4.308   3.832   1.464  0.1700  0.6237  0.1820
  181MOL   C22143781   4.534   3.794   1.544  0.7922  0.2223  1.1410
  181MOL   C22243782   4.684   3.775   1.534 -0.0870 -0.1122  0.2340
  181MOL   O22343783   4.751   3.757   1.431  0.3809 -0.0889  0.0330
  181MOL   H22443784   4.483   3.907   1.362  0.6365  0.0434  0.8614
  181MOL   H22543785   4.244   3.842   1.376  1.2299 -1.6059 -0.8660
  181MOL   H22643786   4.289   3.914   1.534 -1.0619 -1.1231  1.9491
  181MOL   H22743787   4.269   3.743   1.513  1.2227  1.3917  2.4907
  181MOL   H22843788   4.488   3.709   1.593 -0.0514  0.7623  1.2936
  181MOL   H22943789   4.520   3.873   1.618  0.3967  0.4959  0.7809
  181MOL   O23043790   4.728   3.774   1.661 -0.0782 -0.0428  0.4729
  181MOL   C23143791   4.863   3.744   1.680 -0.1664  0.2910  0.9475
  181MOL   C23243792   4.902   3.819   1.809 -0.0463  0.3327 -0.7066
  181MOL   C23343793   4.880   3.587   1.692  0.1445 -0.0926 -1.3224
  181MOL   C23443794   5.018   3.542   1.733 -0.6658  0.4650  0.7600
  181MOL   O23543795   5.106   3.538   1.643 -0.1059  0.2105  0.1990
  181MOL   H23643796   4.923   3.777   1.595  0.6151 -1.3675  0.8422
  181MOL   H23743797   5.002   3.796   1.844 -0.3451  0.8892  0.5580
  181MOL   H23843798   4.837   3.803   1.895  1.3854  1.0532  0.5275
  181MOL   H23943799   4.891   3.927   1.800 -0.8825  0.2800 -0.4006
  181MOL   H24043800   4.840   3.532   1.607 -1.2456 -0.6676 -0.3239
  181MOL   H24143801   4.827   3.562   1.784  0.6388 -1.8954 -1.5051
  181MOL   H24243802   5.042   3.522   1.838 -1.1761 -0.1992  0.7539
  182MOL     O143803   6.832   6.963   4.266  0.3130  0.6250 -0.1879
  182MOL     C243804   6.922   6.959   4.370 -0.0774  0.4263 -0.0265
  182MOL     C343805   6.986   7.095   4.382 -0.6901  0.4099 -0.0505
  182MOL     C443806   6.859   6.884   4.490  0.1853  0.2860 -0.7657
  182MOL     C543807   6.949   6.859   4.611  0.9886 -0.5932 -0.0520
  182MOL     O643808   7.057   6.800   4.595  0.6485  0.1451  0.3979
  182MOL     H743809   6.999   6.892   4.330  0.5927  0.4690  1.1477
  182MOL     H843810   7.063   7.086   4.460 -0.8485  0.5674  0.1242
  182MOL     H943811   6.914   7.169   4.416  0.7935  0.4174  3.3033
  182MOL    H1043812   7.047   7.133   4.300 -1.6976  2.7831  0.2629
  182MOL    H1143813   6.821   6.786   4.462 -1.5968  0.3307  1.3856
  182MOL    H1243814   6.767   6.931   4.525 -0.0073 -0.6058 -0.0454
  182MOL    H1343815   6.778   7.040   4.277  0.0933  0.4160  0.1915
  182MOL    O1443816   6.899   6.914   4.727  0.0674 -0.8031  0.4865
  182MOL    C1543817   6.977   6.909   4.845  0.4370 -0.5408  0.4544
  182MOL    C1643818   6.922   7.028   4.931  0.2075 -0.1882  0.8754
  182MOL    C1743819   6.945   6.769   4.903  0.0697  0.3681  0.0647
  182MOL    C1843820   7.050   6.741   5.010 -0.1329 -0.4624  0.0248
  182MOL    O1943821   7.122   6.637   4.992 -0.1695  0.2290 -0.0418
  182MOL    H2043822   7.081   6.923   4.815 -0.2481 -0.6837 -2.1151
  182MOL    H2143823   6.983   7.019   5.021 -1.1343 -0.3594  1.7781
  182MOL    H2243824   6.820   7.007   4.963  0.8244 -2.3478  1.5540
  182MOL    H2343825   6.935   7.120   4.874 -1.3045 -2.7680 -3.9621
  182MOL    H2443826   6.944   6.691   4.827 -2.0366 -0.0419  0.4845
  182MOL    H2543827   6.847   6.781   4.949 -1.1496 -0.2759 -2.2981
  182MOL    O2643828   7.057   6.822   5.115 -0.5132 -0.3391 -0.9106
  182MOL    C2743829   7.143   6.791   5.225  0.4512  0.6260 -0.0029
  182MOL    C2843830   7.217   6.923   5.254 -0.2286 -0.1539 -0.2141
  182MOL    C2943831   7.056   6.753   5.344  0.3564  0.2020  0.0644
  182MOL    C3043832   7.131   6.744   5.480  0.5674 -0.1675 -0.7517
  182MOL    O3143833   7.081   6.783   5.590  0.0499  0.1204 -0.3943
  182MOL    H3243834   7.222   6.719   5.204  1.3545  0.9366  2.1650
  182MOL    H3343835   7.145   7.000   5.281  0.6157  0.6463 -0.1979
  182MOL    H3443836   7.273   6.961   5.169 -0.0918  0.1530  0.0096
  182MOL    H3543837   7.296   6.924   5.330 -0.3249  1.7259 -0.0996
  182MOL    H3643838   7.019   6.652   5.327  1.2249 -0.1389  0.1972
  182MOL    H3743839   6.970   6.819   5.348 -1.4450 -2.1434  1.1875
  182MOL    O3843840   7.249   6.678   5.478  1.0368 -0.8413 -0.2255
  182MOL    C3943841   7.313   6.665   5.601 -0.1980  0.2541 -0.0100
  182MOL    C4043842   7.399   6.536   5.583 -0.0300  0.3163 -1.0301
  182MOL    C4143843   7.402   6.793   5.623  0.0255  1.0130  0.0872
  182MOL    C4243844   7.449   6.818   5.764  0.5413  0.7335 -0.3708
  182MOL    O4343845   7.417   6.737   5.848  0.4335  0.2344 -0.2557
  182MOL    H4443846   7.248   6.639   5.684  0.5112  0.1029  0.4999
  182MOL    H4543847   7.348   6.441   5.572 -3.5917  1.8459  1.3812
  182MOL    H4643848   7.471   6.540   5.664  1.2105  2.6566 -2.1991
  182MOL    H4743849   7.458   6.534   5.491 -0.6278  1.5623 -1.4485
  182MOL    H4843850   7.347   6.883   5.594  0.0273  1.7571  2.2927
  182MOL    H4943851   7.487   6.793   5.555  0.6524  0.7496  0.8747
  182MOL    O5043852   7.516   6.931   5.784  0.2067  0.2036 -0.2400
  182MOL    C5143853   7.568   6.972   5.912  0.1085 -0.2157  0.2136
  182MOL    C5243854   7.708   7.041   5.890  0.0595 -0.6846  0.3995
  182MOL    C5343855   7.463   7.070   5.980 -0.3280 -0.4160 -0.0268
  182MOL    C5443856   7.352   7.002   6.056  0.1817  0.7773 -0.3819
  182MOL    O5543857   7.367   6.999   6.178  0.2608  0.4080  0.0946
  182MOL    H5643858   7.582   6.895   5.988 -2.0671  1.3770  2.3347
  182MOL    H5743859   7.702   7.111   5.807 -2.2209 -0.4458  0.7197
  182MOL    H5843860   7.786   6.971   5.863 -1.2248 -2.6347  1.5677
  182MOL    H5943861   7.747   7.083   5.983  0.2155 -0.2803  0.1496
  182MOL    H6043862   7.417   7.117   5.894  1.1523 -0.2622 -0.7569
  182MOL    H6143863   7.501   7.150   6.044 -0.2402 -0.9450  0.5924
  182MOL    O6243864   7.249   6.949   5.985  0.2385  0.1919 -0.1444
  182MOL    C6343865   7.140   6.879   6.041 -0.0565  0.8063  0.5605
  182MOL    C6443866   7.008   6.937   5.984 -0.1788  0.3358 -0.7369
  182MOL    C6543867   7.177   6.728   6.021 -0.4385 -0.3605  0.3656
  182MOL    C6643868   7.076   6.634   6.093 -0.5035  0.5023  0.0199
  182MOL    O6743869   6.979   6.596   6.031  0.7610 -0.5622 -0.3098
  182MOL    H6843870   7.131   6.912   6.144 -1.0624  2.1055  0.0629
  182MOL    H6943871   7.009   7.046   5.989  0.7502  0.2699  0.9934
  182MOL    H7043872   6.927   6.905   6.049 -0.3633  1.4929 -0.3989
  182MOL    H7143873   6.984   6.907   5.882  0.9544 -2.5134 -0.2272
  182MOL    H7243874   7.274   6.701   6.064 -1.0107 -1.1401  1.2127
  182MOL    H7343875   7.184   6.709   5.914 -1.8085  0.0055  0.2066
  182MOL    O7443876   7.088   6.612   6.222  0.0515  0.9136 -0.0978
  182MOL    C7543877   6.988   6.539   6.301 -0.0474  0.0795  0.4566
  182MOL    C7643878   7.059   6.435   6.386  0.0174 -0.1434  1.3198
  182MOL    C7743879   6.899   6.630   6.389 -0.9353  0.0206 -0.7558
  182MOL    C7843880   6.797   6.711   6.305  1.0251 -0.5110  1.6363
  182MOL    O7943881   6.800   6.835   6.292  0.1427  0.0362 -0.4255
  182MOL    H8043882   6.920   6.495   6.229 -0.8833  0.6794  0.8632
  182MOL    H8143883   7.148   6.477   6.433 -0.9146  2.5043  0.8261
  182MOL    H8243884   7.082   6.342   6.334  1.5421  0.3699  1.0369
  182MOL    H8343885   6.994   6.400   6.466  0.0101 -0.4235  1.1919
  182MOL    H8443886   6.964   6.705   6.435 -1.0824 -0.0379 -0.4473
  182MOL    H8543887   6.851   6.575   6.470 -0.7272  1.5318  0.4235
  182MOL    O8643888   6.694   6.636   6.255 -0.5346 -0.3627  0.0331
  182MOL    C8743889   6.591   6.699   6.184  0.0480  0.5153  0.1785
  182MOL    C8843890   6.621   6.700   6.034 -0.0815 -0.1434 -0.5286
  182MOL    C8943891   6.464   6.633   6.243 -0.2192 -0.1238  0.2556
  182MOL    C9043892   6.445   6.478   6.220  0.5153 -0.0368  0.0336
  182MOL    O9143893   6.404   6.409   6.309 -0.4126 -0.1162  0.1647
  182MOL    H9243894   6.573   6.804   6.210 -1.6547  0.3995 -0.4539
  182MOL    H9343895   6.697   6.770   6.000 -0.9338 -0.9842 -4.3596
  182MOL    H9443896   6.533   6.716   5.972 -1.3373 -2.2480  0.6535
  182MOL    H9543897   6.654   6.602   6.001  0.2587  0.1767 -1.1426
  182MOL    H9643898   6.384   6.677   6.183  0.4131 -1.0818 -1.3255
  182MOL    H9743899   6.452   6.653   6.349 -1.0455 -0.5993  0.2614
  182MOL    O9843900   6.489   6.432   6.106  0.1199  0.2091  0.3518
  182MOL    C9943901   6.467   6.294   6.058  0.1508  0.3324  0.1584
  182MOL   C10043902   6.426   6.312   5.912 -0.2535 -0.7362  0.1250
  182MOL   C10143903   6.595   6.212   6.081  0.4434  0.7228 -0.0375
  182MOL   C10243904   6.631   6.172   6.227 -0.3144 -0.0688 -0.1327
  182MOL   O10343905   6.735   6.215   6.284 -0.0145  0.1976 -0.4920
  182MOL   H10443906   6.380   6.249   6.106  0.4830 -0.2057  0.2444
  182MOL   H10543907   6.326   6.351   5.893 -0.5853 -0.6948  1.9134
  182MOL   H10643908   6.434   6.211   5.872 -1.4799 -1.1108  0.8037
  182MOL   H10743909   6.503   6.365   5.856  0.5181 -0.7348  1.1692
  182MOL   H10843910   6.677   6.274   6.045  0.1111  0.4557 -1.2852
  182MOL   H10943911   6.590   6.120   6.022  0.2860 -0.2166  1.4223
  182MOL   O11043912   6.544   6.096   6.285  0.4106  0.1868 -0.1648
  182MOL   C11143913   6.554   6.056   6.426  1.0622  0.0671  0.2242
  182MOL   C11243914   6.449   6.130   6.505  0.4627 -0.5233 -0.4605
  182MOL   C11343915   6.526   5.905   6.443 -0.2165  0.0343  0.2480
  182MOL   C11443916   6.647   5.823   6.407  0.0467 -0.0310 -0.2970
  182MOL   O11543917   6.724   5.790   6.497 -0.2926 -0.0025  0.1197
  182MOL   H11643918   6.653   6.076   6.465  1.6910 -1.3473 -0.5786
  182MOL   H11743919   6.476   6.235   6.514 -1.5306 -0.1890  2.5354
  182MOL   H11843920   6.450   6.101   6.611 -2.7175 -1.7267 -0.7057
  182MOL   H11943921   6.351   6.106   6.464 -0.5258  0.4287  1.2941
  182MOL   H12043922   6.428   5.876   6.404  0.4446 -3.2422  0.8737
  182MOL   H12143923   6.519   5.885   6.550 -1.3985 -0.0946  0.1596
  182MOL   O12243924   6.652   5.788   6.278 -0.6311 -0.3241  0.0482
  182MOL   C12343925   6.762   5.706   6.231  0.0634  0.4590 -0.1421
  182MOL   C12443926   6.721   5.556   6.264  0.5410  0.6355  0.4457
  182MOL   C12543927   6.776   5.722   6.079 -0.4970 -0.3307  0.3229
  182MOL   C12643928   6.841   5.853   6.046 -0.3504 -0.2028 -0.1148
  182MOL   O12743929   6.780   5.959   6.018 -0.3649  0.1513  0.6078
  182MOL   H12843930   6.853   5.733   6.284  0.2164  0.5642 -0.4564
  182MOL   H12943931   6.639   5.514   6.205  0.7339  0.0114  0.6167
  182MOL   H13043932   6.674   5.538   6.361  0.3761  0.0369  0.2612
  182MOL   H13143933   6.805   5.487   6.253 -0.2289  0.0566 -2.2574
  182MOL   H13243934   6.675   5.722   6.039  0.5457  2.5327 -2.5801
  182MOL   H13343935   6.839   5.644   6.036 -1.2853  0.1642 -1.7838
  182MOL   O13443936   6.974   5.841   6.045 -0.1620 -0.3572 -0.0423
  182MOL   C13543937   7.052   5.955   6.000 -0.7680 -0.0492 -0.0401
  182MOL   C13643938   7.082   6.065   6.097  0.0206  0.1686 -0.4393
  182MOL   C13743939   7.183   5.902   5.940 -0.3166 -0.4634  0.0473
  182MOL   C13843940   7.252   5.997   5.838 -0.7632  0.6393 -0.3557
  182MOL   O13943941   7.198   6.096   5.792 -0.3241 -0.0425 -0.3644
  182MOL   H14043942   6.992   5.998   5.920  0.0253 -0.0795 -0.6579
  182MOL   H14143943   7.102   6.018   6.194 -0.7410  2.8561  1.0837
  182MOL   H14243944   7.008   6.144   6.107 -1.4622 -0.9045 -2.7477
  182MOL   H14343945   7.175   6.115   6.071  1.0350 -0.3432  2.0382
  182MOL   H14443946   7.161   5.814   5.879 -0.0868  0.6145 -1.6130
  182MOL   H14543947   7.261   5.879   6.012 -0.4945 -1.1519  0.0227
  182MOL   O14643948   7.377   5.966   5.809  0.1065 -0.0405 -0.2374
  182MOL   C14743949   7.456   6.053   5.732 -0.0487  0.7127 -0.0068
  182MOL   C14843950   7.599   6.042   5.780 -0.4701 -0.0532  0.2444
  182MOL   C14943951   7.424   6.033   5.581  0.2988 -0.1978 -0.3464
  182MOL   C15043952   7.500   6.118   5.474  0.5146  0.6878  0.0369
  182MOL   O15143953   7.458   6.225   5.435  0.2148  0.9275 -0.0812
  182MOL   H15243954   7.434   6.156   5.759 -0.4689  1.0491 -1.5544
  182MOL   H15343955   7.632   5.940   5.759  1.4030 -0.0303  2.8131
  182MOL   H15443956   7.614   6.046   5.888  3.0052 -2.3737 -0.0840
  182MOL   H15543957   7.652   6.116   5.721 -0.2572  0.4064  1.0106
  182MOL   H15643958   7.317   6.032   5.560  0.5645  0.4872 -1.8604
  182MOL   H15743959   7.433   5.927   5.557  0.7842 -0.4281  0.8443
  182MOL   O15843960   7.623   6.080   5.444 -0.0065 -0.2747  0.1123
  182MOL   C15943961   7.695   6.148   5.335  0.3778  0.1102 -0.2144
  182MOL   C16043962   7.785   6.254   5.401 -0.1009  0.1817 -0.1393
  182MOL   C16143963   7.774   6.046   5.249 -0.0732  0.3064 -0.2475
  182MOL   C16243964   7.877   5.958   5.320 -0.6933 -0.2795  0.4938
  182MOL   O16343965   0.021   5.980   5.318  0.4083 -0.9336  0.5345
  182MOL   H16443966   7.627   6.191   5.261  0.2878 -0.0523 -0.2264
  182MOL   H16543967   7.725   6.322   5.460 -1.1463  0.2339 -1.2356
  182MOL   H16643968   7.845   6.317   5.334  3.6397 -0.8893  2.0473
  182MOL   H16743969   7.845   6.204   5.477  0.3101  2.2977  0.9694
  182MOL   H16843970   7.828   6.090   5.165 -1.5330  2.2991 -0.1908
  182MOL   H16943971   7.696   5.988   5.199 -1.2711  0.6092  1.2284
  182MOL   O17043972   7.822   5.851   5.383 -0.3716 -0.0186 -0.8155
  182MOL   C17143973   7.901   5.744   5.442  0.0146  0.5502 -0.2804
  182MOL   C17243974   7.803   5.675   5.543  0.0163  0.6789  0.0631
  182MOL   C17343975   7.967   5.647   5.331  0.9202  0.4253 -0.1411
  182MOL   C17443976   7.863   5.581   5.226 -0.0587 -0.1645 -0.2649
  182MOL   O17543977   7.868   5.626   5.111 -0.3763  0.1061 -0.2385
  182MOL   H17643978   0.001   5.792   5.500 -1.3469 -0.3835  2.4352
  182MOL   H17743979   7.846   5.591   5.597  0.3148  0.4460 -0.5373
  182MOL   H17843980   7.716   5.646   5.483 -0.6983  2.5299  0.1589
  182MOL   H17943981   7.776   5.755   5.612 -1.5730  1.3507 -1.3035
  182MOL   H18043982   0.026   5.561   5.385  0.7184 -0.4030 -1.3030
  182MOL   H18143983   0.072   5.694   5.283  2.0964 -0.2973  1.2082
  182MOL   O18243984   7.781   5.486   5.282 -0.4044  0.4662  0.1781
  182MOL   C18343985   7.694   5.408   5.194 -0.3485  0.4944 -0.5240
  182MOL   C18443986   7.766   5.278   5.141 -0.4687 -0.6606  0.3905
  182MOL   C18543987   7.566   5.386   5.273 -0.4302  0.2272 -0.1325
  182MOL   C18643988   7.569   5.294   5.395  0.4010  0.3762  0.1183
  182MOL   O18743989   7.542   5.174   5.379 -0.2252  0.2388 -0.1472
  182MOL   H18843990   7.675   5.461   5.101  0.5532  0.2933 -0.8182
  182MOL   H18943991   7.799   5.213   5.223  0.1683  1.2888  1.6970
  182MOL   H19043992   7.847   5.302   5.073 -0.0693 -2.0695  0.3418
  182MOL   H19143993   7.704   5.215   5.077 -1.1658  2.0608 -1.6897
  182MOL   H19243994   7.491   5.351   5.202  0.2009  2.8252 -2.1424
  182MOL   H19343995   7.534   5.483   5.311 -1.0249 -0.3449  0.8385
  182MOL   O19443996   7.594   5.363   5.517  0.6091 -0.3662  0.1783
  182MOL   C19543997   7.591   5.292   5.640  0.3368 -0.6264 -0.3918
  182MOL   C19643998   7.686   5.354   5.737 -1.1770 -0.2494 -0.1229
  182MOL   C19743999   7.445   5.292   5.696 -0.1167 -0.2004 -0.0028
  182MOL   C19844000   7.376   5.430   5.719  0.2691  0.0768 -0.9896
  182MOL   O19944001   7.391   5.483   5.830 -0.0628  0.2136 -0.0543
  182MOL   H20044002   7.625   5.189   5.630 -0.5830 -0.9646 -0.1031
  182MOL   H20144003   7.648   5.447   5.779 -2.0912  0.5727 -2.6214
  182MOL   H20244004   7.779   5.383   5.688 -0.2382 -1.0138  1.1889
  182MOL   H20344005   7.721   5.283   5.811  1.4680  1.4560  0.2947
  182MOL   H20444006   7.444   5.245   5.794  1.1756  2.6765  1.4698
  182MOL   H20544007   7.393   5.223   5.630 -1.0655 -0.5260  1.0594
  182MOL   O20644008   7.290   5.484   5.618  0.2509 -0.2651  0.2429
  182MOL   C20744009   7.202   5.588   5.641  0.3345  0.1188  0.2061
  182MOL   C20844010   7.248   5.710   5.564 -0.1592 -0.2094  0.5555
  182MOL   C20944011   7.063   5.557   5.595 -0.5931 -0.1634 -0.0439
  182MOL   C21044012   6.949   5.616   5.687  0.1016 -0.0492  0.5423
  182MOL   O21144013   6.929   5.582   5.803 -0.4210 -0.1388  0.4072
  182MOL   H21244014   7.200   5.611   5.748 -4.1484 -2.0419  0.7110
  182MOL   H21344015   7.200   5.803   5.595 -2.7172 -1.2380 -0.2631
  182MOL   H21444016   7.231   5.700   5.457  0.3176 -0.4799  0.5060
  182MOL   H21544017   7.355   5.727   5.580 -0.0150 -0.3031 -0.2674
  182MOL   H21644018   7.051   5.449   5.601  2.4527 -0.6507 -1.7932
  182MOL   H21744019   7.044   5.590   5.493 -0.5944  0.4295  0.1433
  182MOL   O21844020   6.875   5.704   5.627  0.4006 -0.1121  0.3680
  182MOL   C21944021   6.767   5.780   5.681  0.1244 -0.2615 -0.5231
  182MOL   C22044022   6.796   5.923   5.685 -0.3996 -0.3648 -0.1377
  182MOL   C22144023   6.638   5.728   5.624  0.3601 -0.4444  0.0340
  182MOL   C22244024   6.514   5.789   5.692  0.3135 -0.0706 -0.2263
  182MOL   O22344025   6.466   5.896   5.658  0.0827  0.2756  0.7498
  182MOL   H22444026   6.764   5.753   5.787 -0.0633  1.4614 -0.0682
  182MOL   H22544027   6.883   5.942   5.747  0.3620 -1.4571 -0.8514
  182MOL   H22644028   6.717   5.977   5.738 -0.1699 -1.5675  1.4603
  182MOL   H22744029   6.800   5.964   5.584  0.8221 -2.1191 -0.8114
  182MOL   H22844030   6.638   5.619   5.635  0.7934 -0.2494  2.2126
  182MOL   H22944031   6.629   5.762   5.521  1.4907 -0.1829  0.0146
  182MOL   O23044032   6.487   5.707   5.799 -0.1551 -0.1058  0.3504
  182MOL   C23144033   6.372   5.716   5.887  0.0744  0.0405 -0.1918
  182MOL   C23244034   6.334   5.579   5.946 -0.4332  0.2930 -0.3454
  182MOL   C23344035   6.402   5.816   5.996 -0.1767 -0.0283  0.1510
  182MOL   C23444036   6.282   5.880   6.063  0.2808  0.3264 -0.0228
  182MOL   O23544037   6.169   5.863   6.011  0.3792 -0.0902 -0.2192
  182MOL   H23644038   6.292   5.747   5.820  1.2852  2.8119 -0.4090
  182MOL   H23744039   6.309   5.510   5.865 -1.7558  1.2007 -0.7400
  182MOL   H23844040   6.255   5.584   6.021  0.3379  1.0595  0.4215
  182MOL   H23944041   6.429   5.544   5.986  0.1875  2.1395 -0.1743
  182MOL   H24044042   6.443   5.910   5.958  0.3934  0.4051  1.7892
  182MOL   H24144043   6.459   5.781   6.082  0.9857 -1.2913 -1.0971
  182MOL   H24244044   6.292   5.944   6.151 -1.6624 -0.9668  1.1819
  183MOL     O144045   7.049   4.864   7.708  0.1199  0.0947 -0.5944
  183MOL     C244046   7.040   4.997   7.689 -0.1437  0.0261 -0.1721
  183MOL     C344047   7.125   5.065   7.797  0.2035  0.2566  0.6509
  183MOL     C444048   7.070   5.042   7.550 -0.1753  0.2981 -0.0180
  183MOL     C544049   7.030   5.188   7.522 -0.3403 -0.4026  0.0937
  183MOL     O644050   7.110   5.280   7.532 -0.4561  0.5331 -0.2857
  183MOL     H744051   6.934   5.018   7.699 -0.4487 -1.6240  0.1019
  183MOL     H844052   7.076   5.028   7.887 -1.8371  0.0665 -0.5056
  183MOL     H944053   7.116   5.173   7.808 -2.1589 -0.0441  1.9160
  183MOL    H1044054   7.227   5.027   7.792  0.5758  1.0829  1.7859
  183MOL    H1144055   7.033   4.983   7.466 -0.7573  0.5177  0.0843
  183MOL    H1244056   7.178   5.044   7.541 -0.1161  1.3067  0.7908
  183MOL    H1344057   6.984   4.816   7.659  0.4221 -0.6374 -0.2940
  183MOL    O1444058   6.898   5.207   7.500  0.5231 -0.0347  0.4308
  183MOL    C1544059   6.847   5.340   7.468 -0.5665 -0.1500  0.4218
  183MOL    C1644060   6.856   5.348   7.311 -0.1234 -0.7771 -0.8197
  183MOL    C1744061   6.697   5.357   7.523 -0.0791 -0.1765 -0.2683
  183MOL    C1844062   6.698   5.410   7.662 -0.0745  0.6105 -0.4861
  183MOL    O1944063   6.655   5.515   7.694  0.5271  0.1638 -0.0515
  183MOL    H2044064   6.904   5.426   7.502  0.2885 -0.1990 -0.8850
  183MOL    H2144065   6.819   5.445   7.278 -0.0135 -0.6809 -0.6610
  183MOL    H2244066   6.801   5.265   7.267 -0.5077 -0.3047 -1.2390
  183MOL    H2344067   6.954   5.340   7.265  0.9197 -0.2121  1.2725
  183MOL    H2444068   6.635   5.267   7.520  0.0331 -0.4010  2.6590
  183MOL    H2544069   6.641   5.433   7.469 -0.0086  1.3783  1.8264
  183MOL    O2644070   6.756   5.328   7.745 -0.5636  0.3073 -0.0909
  183MOL    C2744071   6.787   5.365   7.881  0.1232  0.3043 -0.0681
  183MOL    C2844072   6.787   5.225   7.945  0.3150  0.3830  0.3775
  183MOL    C2944073   6.927   5.434   7.891 -0.1518  0.4478  0.3660
  183MOL    C3044074   6.941   5.565   7.821 -0.3443 -0.4288  0.1880
  183MOL    O3144075   7.032   5.583   7.741  0.1213  0.1913 -0.4299
  183MOL    H3244076   6.706   5.429   7.914 -0.3596  0.0017 -0.6415
  183MOL    H3344077   6.868   5.162   7.907  0.3943  0.3142  0.6579
  183MOL    H3444078   6.695   5.171   7.926  0.0691  0.3581  1.5928
  183MOL    H3544079   6.811   5.237   0.071 -0.8309  1.5645  0.5077
  183MOL    H3644080   7.010   5.368   7.864  1.4982  3.0690 -1.2604
  183MOL    H3744081   6.947   5.446   0.018 -1.6741 -0.4980  0.7649
  183MOL    O3844082   6.857   5.664   7.865  0.1417  0.2504  0.8041
  183MOL    C3944083   6.862   5.800   7.818 -0.2033  0.7868  0.1972
  183MOL    C4044084   6.714   5.858   7.816 -0.1483 -0.5728  0.2839
  183MOL    C4144085   6.975   5.879   7.888  0.1419 -0.4621 -0.2141
  183MOL    C4244086   6.949   5.928   0.051  0.0035 -0.1428 -0.0779
  183MOL    O4344087   6.899   6.040   0.076 -0.3208  0.6180  0.5073
  183MOL    H4444088   6.902   5.805   7.717  0.2612  3.3025  0.4801
  183MOL    H4544089   6.647   5.801   7.752 -0.1157 -0.0743 -0.2045
  183MOL    H4644090   6.718   5.957   7.769 -1.7125 -0.9353 -0.6633
  183MOL    H4744091   6.672   5.877   7.915 -2.6244 -0.4180 -0.7612
  183MOL    H4844092   6.990   5.975   7.840 -0.7312 -0.7366 -1.0372
  183MOL    H4944093   7.071   5.827   7.884  1.3708  1.7111 -0.0265
  183MOL    O5044094   6.984   5.834   0.144 -0.0034 -0.6524 -0.0904
  183MOL    C5144095   6.951   5.856   0.282 -0.2812 -0.6034  0.3227
  183MOL    C5244096   6.895   5.724   0.328  0.3125  0.6975 -0.4848
  183MOL    C5344097   7.080   5.904   0.362  0.4097  0.0657  0.6999
  183MOL    C5444098   7.064   5.923   0.513 -0.5162  0.7719 -0.4304
  183MOL    O5544099   7.112   5.848   0.595 -0.0988 -0.0905 -0.2182
  183MOL    H5644100   6.874   5.932   0.297 -0.1105 -0.4218  0.2764
  183MOL    H5744101   6.967   5.644   0.316 -0.6793 -0.0456 -1.6401
  183MOL    H5844102   6.808   5.694   0.270 -0.0104  0.9043 -0.1150
  183MOL    H5944103   6.866   5.742   0.432 -0.5812  0.4046 -0.6805
  183MOL    H6044104   7.103   6.003   0.322 -0.8457 -0.8907 -2.5351
  183MOL    H6144105   7.170   5.844   0.344  1.3200  1.7401 -0.5159
  183MOL    O6244106   6.982   6.021   0.542 -0.0699 -0.3886 -0.2914
  183MOL    C6344107   6.932   6.037   0.676  0.5401  0.0530 -0.2925
  183MOL    C6444108   7.030   6.099   0.772 -0.6912  0.5586 -0.3055
  183MOL    C6544109   6.814   6.133   0.666  0.6787  0.7387  0.4124
  183MOL    C6644110   6.690   6.059   0.637 -0.1023 -0.0452 -0.0465
  183MOL    O6744111   6.688   5.966   0.559 -0.0180 -0.1498 -0.4139
  183MOL    H6844112   6.903   5.938   0.711  0.8663 -0.9484 -2.7976
  183MOL    H6944113   6.964   6.116   0.857 -1.2057 -1.2676 -0.3178
  183MOL    H7044114   7.081   6.190   0.739 -3.6722  2.1688 -0.6892
  183MOL    H7144115   7.107   6.027   0.798 -0.8727 -0.0246 -1.3658
  183MOL    H7244116   6.816   6.201   0.581 -0.7492  1.6173  1.0600
  183MOL    H7344117   6.798   6.192   0.756 -2.9914  0.4859  0.0173
  183MOL    O7444118   6.587   6.118   0.689  0.2176  0.3412 -0.2352
  183MOL    C7544119   6.453   6.068   0.670 -0.7004  0.2101 -0.0267
  183MOL    C7644120   6.370   6.100   0.798  0.4012  0.0250  0.0039
  183MOL    C7744121   6.392   6.122   0.536 -0.6478 -0.0335  0.3932
  183MOL    C7844122   6.252   6.080   0.506 -0.4019  0.0824  0.4766
  183MOL    O7944123   6.195   5.979   0.557 -0.0772  0.3369  0.8290
  183MOL    H8044124   6.458   5.959   0.662 -0.9142  0.0070  2.1341
  183MOL    H8144125   6.359   6.206   0.821  2.2960  0.3167 -0.3998
  183MOL    H8244126   6.397   6.041   0.886 -0.4285 -0.0213  0.2308
  183MOL    H8344127   6.264   6.076   0.785 -0.1186  1.3859  1.5489
  183MOL    H8444128   6.460   6.106   0.452  0.9220  0.4152  1.5458
  183MOL    H8544129   6.385   6.231   0.533 -3.3465 -0.1509  1.2161
  183MOL    O8644130   6.200   6.154   0.404  0.1529 -0.7075  0.3469
  183MOL    C8744131   6.083   6.129   0.342  0.4523  0.2583 -0.4162
  183MOL    C8844132   6.047   6.268   0.282 -0.2280  0.1118 -0.4188
  183MOL    C8944133   6.095   6.012   0.241 -0.4303 -0.5116 -0.0939
  183MOL    C9044134   5.969   5.986   0.163 -0.1275  0.3408  0.0413
  183MOL    O9144135   5.976   5.989   0.041  0.2917 -0.1814 -0.1788
  183MOL    H9244136   5.998   6.095   0.402  1.5565 -0.2557  0.8595
  183MOL    H9344137   5.986   6.262   0.192  1.9083 -0.4016 -1.8728
  183MOL    H9444138   6.133   6.329   0.253 -0.3129  0.0225 -0.8627
  183MOL    H9544139   5.995   6.326   0.358  1.2566 -2.2842  2.5003
  183MOL    H9644140   6.114   5.927   0.305 -0.4501  0.0399  0.6440
  183MOL    H9744141   6.179   6.019   0.171 -0.4344 -2.0352 -0.2650
  183MOL    O9844142   5.858   5.991   0.234  0.2809  0.2111  0.3179
  183MOL    C9944143   5.734   5.964   0.176  0.2161 -0.2548  0.4073
  183MOL   C10044144   5.678   5.842   0.258 -0.9799  0.3330  0.9451
  183MOL   C10144145   5.640   6.083   0.182 -0.0902  0.4324 -0.3503
  183MOL   C10244146   5.696   6.202   0.104 -0.6851  0.4722 -0.1249
  183MOL   O10344147   5.736   6.305   0.159  0.1496 -0.5474 -0.0015
  183MOL   H10444148   5.752   5.942   0.071  2.1202  0.1172  0.6493
  183MOL   H10544149   5.741   5.762   0.222 -1.5652 -0.0010  0.6564
  183MOL   H10644150   5.576   5.814   0.230 -0.9081  0.8241  0.1616
  183MOL   H10744151   5.684   5.846   0.367  0.8981  0.2202  0.8509
  183MOL   H10844152   5.615   6.113   0.284 -0.9275 -0.5109 -0.2659
  183MOL   H10944153   5.541   6.066   0.139 -0.2501 -0.0221  0.1989
  183MOL   O11044154   5.679   6.181   7.951 -0.0677  0.0118 -0.4066
  183MOL   C11144155   5.705   6.289   7.857 -0.0540  0.3200  0.6643
  183MOL   C11244156   5.798   6.233   7.747  0.3817  0.0093 -0.2024
  183MOL   C11344157   5.578   6.348   7.805  0.3674 -0.6873 -0.0653
  183MOL   C11444158   5.505   6.447   7.901 -0.3186 -0.1009  0.5464
  183MOL   O11544159   5.537   6.565   7.898  0.4123  0.0448 -0.2667
  183MOL   H11644160   5.751   6.371   7.912  0.2581  0.1012  0.7321
  183MOL   H11744161   5.829   6.311   7.678  0.7149 -1.4788 -1.7615
  183MOL   H11844162   5.751   6.153   7.690 -0.0616 -0.9024  1.4005
  183MOL   H11944163   5.875   6.184   7.807 -1.6596 -1.3810  1.3643
  183MOL   H12044164   5.505   6.276   7.766 -1.5620  2.5823 -2.6956
  183MOL   H12144165   5.596   6.407   7.716 -2.3943 -1.1772 -0.9980
  183MOL   O12244166   5.408   6.383   7.972  0.6077  0.0680 -0.2304
  183MOL   C12344167   5.312   6.455   0.071 -0.4282 -0.3649  0.1334
  183MOL   C12444168   5.181   6.445   7.976 -0.1592 -0.0757 -0.0842
  183MOL   C12544169   5.292   6.403   0.212  0.2190 -0.4406 -0.2295
  183MOL   C12644170   5.206   6.483   0.304  0.7845  0.6581  0.9503
  183MOL   O12744171   5.253   6.558   0.385  0.3762 -0.6249  0.0776
  183MOL   H12844172   5.336   6.562   0.079  1.3959 -0.6624 -1.0403
  183MOL   H12944173   5.109   6.520   0.028 -0.5740 -0.6877  0.4119
  183MOL   H13044174   5.135   6.346   7.978  0.0957 -0.2102 -0.6772
  183MOL   H13144175   5.194   6.474   7.872  1.0720  0.2968  0.1543
  183MOL   H13244176   5.391   6.406   0.258 -0.0155  1.2543  0.1949
  183MOL   H13344177   5.264   6.297   0.217  2.6992 -1.1203 -0.0798
  183MOL   O13444178   5.076   6.472   0.277  0.2700 -0.2104 -0.2651
  183MOL   C13544179   4.973   6.542   0.346  0.2315  0.4373  0.2689
  183MOL   C13644180   4.881   6.596   0.240  0.6844  0.6010  0.5135
  183MOL   C13744181   4.903   6.470   0.455 -0.1022  0.1087 -0.2053
  183MOL   C13844182   4.985   6.426   0.576  0.4093  0.4888 -0.1601
  183MOL   O13944183   5.027   6.311   0.580  0.0496  0.4697 -0.0310
  183MOL   H14044184   5.017   6.626   0.400  0.6951 -0.6701  1.6402
  183MOL   H14144185   4.818   6.672   0.287  0.5272  0.1777  0.9901
  183MOL   H14244186   4.818   6.518   0.196  1.8051  0.7613 -1.4569
  183MOL   H14344187   4.932   6.647   0.158  1.3695 -1.1142 -0.1639
  183MOL   H14444188   4.855   6.385   0.408 -1.4662  1.5975 -1.5623
  183MOL   H14544189   4.818   6.527   0.492  0.4385 -0.2853  1.6922
  183MOL   O14644190   4.987   6.520   0.677  0.4177  0.0782  0.1367
  183MOL   C14744191   5.043   6.499   0.802 -0.6973 -0.5058 -0.1664
  183MOL   C14844192   5.134   6.621   0.821  0.5324  0.2255  0.8224
  183MOL   C14944193   4.934   6.489   0.916 -0.2989  0.0328  1.2147
  183MOL   C15044194   4.992   6.483   1.056 -0.1969  0.5695  0.4309
  183MOL   O15144195   4.982   6.585   1.124 -0.0779  0.4194  0.3532
  183MOL   H15244196   5.105   6.410   0.795 -1.0460 -0.8345  0.7807
  183MOL   H15344197   5.197   6.633   0.733 -0.9872 -0.4322 -0.3877
  183MOL   H15444198   5.201   6.597   0.904 -2.2774 -0.1980  3.0551
  183MOL   H15544199   5.085   6.717   0.835  1.7086  1.0054 -0.3525
  183MOL   H15644200   4.876   6.397   0.917  1.0022 -0.8312 -0.1386
  183MOL   H15744201   4.864   6.571   0.902 -2.5485 -2.1338 -0.5301
  183MOL   O15844202   5.053   6.374   1.088 -0.5101  0.3571 -0.1894
  183MOL   C15944203   5.130   6.365   1.204 -0.0009  0.1934 -0.4266
  183MOL   C16044204   5.122   6.216   1.243 -0.3042  0.2751 -0.8228
  183MOL   C16144205   5.272   6.427   1.194 -0.3023  0.5296 -0.0660
  183MOL   C16244206   5.366   6.358   1.092 -0.6474  0.5311  0.6781
  183MOL   O16344207   5.352   6.379   0.970  0.1161 -0.7648  0.5353
  183MOL   H16444208   5.082   6.426   1.281  0.3459  1.1395 -0.9534
  183MOL   H16544209   5.021   6.184   1.265  0.1881 -0.8834 -0.2191
  183MOL   H16644210   5.182   6.207   1.333 -3.9758  0.7565  1.7524
  183MOL   H16744211   5.171   6.153   1.168  0.3275 -0.3452  0.1057
  183MOL   H16844212   5.331   6.443   1.284  0.5539 -1.8827 -0.1599
  183MOL   H16944213   5.256   6.526   1.151  3.4366  1.4117  0.4689
  183MOL   O17044214   5.451   6.269   1.155  0.2753 -0.0218  0.2980
  183MOL   C17144215   5.561   6.198   1.087 -0.3120 -0.6922  0.3849
  183MOL   C17244216   5.674   6.298   1.060  0.3093  0.0475  0.3785
  183MOL   C17344217   5.593   6.083   1.183 -0.0386 -0.1177 -0.4144
  183MOL   C17444218   5.732   6.018   1.165  1.0076 -0.2261  0.1993
  183MOL   O17544219   5.823   6.065   1.096  0.1162  0.1445  0.9579
  183MOL   H17644220   5.520   6.169   0.990 -1.3696  1.3752  0.1717
  183MOL   H17744221   5.745   6.307   1.142  0.7702  1.7224 -0.1687
  183MOL   H17844222   5.638   6.399   1.037 -0.7429  0.2421  2.7941
  183MOL   H17944223   5.728   6.261   0.973  0.2307  1.9594 -0.5170
  183MOL   H18044224   5.515   6.006   1.181 -0.6678  0.5333 -1.7657
  183MOL   H18144225   5.594   6.112   1.288  2.3232 -3.7896  0.6727
  183MOL   O18244226   5.742   5.903   1.234 -0.1591  0.1130 -0.0797
  183MOL   C18344227   5.869   5.826   1.230 -0.0164 -0.3661  0.6499
  183MOL   C18444228   5.972   5.882   1.329 -1.0958 -0.2209 -0.1505
  183MOL   C18544229   5.839   5.674   1.245  0.2828 -0.1002 -0.2394
  183MOL   C18644230   5.759   5.606   1.132  0.4160  0.6251 -0.4468
  183MOL   O18744231   5.820   5.564   1.029  0.1298  0.3645  0.3615
  183MOL   H18844232   5.935   5.835   1.145 -0.3970  0.0809  0.4001
  183MOL   H18944233   5.997   5.985   1.304  0.4344 -0.4319  0.4808
  183MOL   H19044234   6.063   5.822   1.332 -0.4732  0.7513  1.1601
  183MOL   H19144235   5.927   5.867   1.427  0.3680  2.7086  1.0390
  183MOL   H19244236   5.784   5.667   1.339  1.0936  0.5623  0.2954
  183MOL   H19344237   5.929   5.615   1.262  0.2277 -0.1253 -0.0380
  183MOL   O19444238   5.620   5.588   1.155 -0.0050  0.0436  0.2011
  183MOL   C19544239   5.546   5.517   1.057 -0.1321  0.3780 -0.3869
  183MOL   C19644240   5.452   5.425   1.131 -0.6201 -0.4448 -0.6444
  183MOL   C19744241   5.487   5.609   0.950 -0.0043 -0.2715 -0.6563
  183MOL   C19844242   5.395   5.710   1.013 -0.8525  0.7805 -0.6617
  183MOL   O19944243   5.439   5.825   1.033 -0.3863  0.3475  0.5295
  183MOL   H20044244   5.611   5.452   0.998  0.6415  0.4168  0.4228
  183MOL   H20144245   5.512   5.375   1.207 -1.3314  2.9167  2.2873
  183MOL   H20244246   5.418   5.341   1.071 -0.4654  0.0771 -1.4770
  183MOL   H20344247   5.370   5.473   1.184  0.7182 -1.2020  2.2743
  183MOL   H20444248   5.426   5.553   0.879  0.3115 -0.4169 -0.8143
  183MOL   H20544249   5.572   5.638   0.888 -0.1383  0.9787 -0.2689
  183MOL   O20644250   5.273   5.664   1.049 -0.6831 -0.0409  0.7499
  183MOL   C20744251   5.184   5.753   1.122  0.3947  0.8350  1.0612
  183MOL   C20844252   5.102   5.847   1.024 -0.5134 -0.0366 -0.8143
  183MOL   C20944253   5.092   5.662   1.206  0.0838  0.3469 -0.4828
  183MOL   C21044254   5.003   5.710   1.324  0.0144 -0.3366  0.0615
  183MOL   O21144255   4.882   5.690   1.315 -0.0522 -0.2074  0.0985
  183MOL   H21244256   5.247   5.819   1.182  1.7995  1.2543 -0.8132
  183MOL   H21344257   5.042   5.776   0.967 -1.1969 -0.5251  0.5022
  183MOL   H21444258   5.171   5.909   0.967  0.0872  0.8919  0.8845
  183MOL   H21544259   5.032   5.907   1.081 -0.6963 -1.9160  1.0277
  183MOL   H21644260   5.151   5.578   1.244  0.1981 -0.3790 -2.2528
  183MOL   H21744261   5.016   5.621   1.139  0.8636 -0.9921 -0.5571
  183MOL   O21844262   5.074   5.764   1.420  0.0822  0.0672  0.1339
  183MOL   C21944263   5.017   5.837   1.530  0.4778  0.2181  0.2281
  183MOL   C22044264   5.052   5.746   1.653  0.6202 -0.0916  0.1798
  183MOL   C22144265   5.069   5.986   1.530 -0.2046  0.5604 -0.3285
  183MOL   C22244266   5.005   6.063   1.646 -0.5314 -0.2126  0.7291
  183MOL   O22344267   5.031   6.050   1.767  0.0913  0.1600 -0.3362
  183MOL   H22444268   4.910   5.826   1.509  0.5705 -0.7290  0.1960
  183MOL   H22544269   5.160   5.749   1.668  0.9214  0.2100 -1.9041
  183MOL   H22644270   5.016   5.646   1.632  0.6557  0.6343 -3.7542
  183MOL   H22744271   4.998   5.787   1.739 -0.6157  0.6743 -0.9358
  183MOL   H22844272   5.045   6.027   1.432  0.1275 -3.4659 -2.2054
  183MOL   H22944273   5.178   5.987   1.540 -0.4514  0.8344  3.0304
  183MOL   O23044274   4.903   6.146   1.602 -0.2205  0.6796 -0.1104
  183MOL   C23144275   4.815   6.209   1.697  0.5760 -0.9941 -0.3140
  183MOL   C23244276   4.893   6.325   1.769 -0.2579 -0.0791 -0.1150
  183MOL   C23344277   4.680   6.250   1.632 -0.1127  0.0583 -1.0081
  183MOL   C23444278   4.562   6.273   1.725  0.1962  0.8882  0.0340
  183MOL   O23544279   4.575   6.272   1.847  0.9090 -0.1169  0.0333
  183MOL   H23644280   4.797   6.129   1.769  0.0288  0.4437  1.1913
  183MOL   H23744281   4.992   6.283   1.781 -0.8379 -0.7494  2.5743
  183MOL   H23844282   4.857   6.352   1.868  1.0767  1.9499 -0.1546
  183MOL   H23944283   4.891   6.414   1.706  1.1020  1.7105  2.2992
  183MOL   H24044284   4.654   6.169   1.565  1.4176 -0.2779 -1.2003
  183MOL   H24144285   4.692   6.329   1.558 -0.5545  0.6917 -0.4222
  183MOL   H24244286   4.462   6.279   1.681  0.5756 -3.3792 -1.6177
  184MOL     O144287   5.064   3.767   5.455  0.3916  0.2572 -0.5011
  184MOL     C244288   5.185   3.761   5.383 -0.2489 -0.3561  0.1974
  184MOL     C344289   5.164   3.750   5.232 -0.5087 -0.2376  0.6063
  184MOL     C444290   5.259   3.893   5.430 -0.8882  0.4874 -0.2833
  184MOL     C544291   5.400   3.860   5.471  0.4793 -0.2865 -0.2096
  184MOL     O644292   5.496   3.899   5.406 -0.3012  0.3205 -0.2524
  184MOL     H744293   5.250   3.682   5.421  1.8482  0.7776 -0.9671
  184MOL     H844294   5.098   3.830   5.199  1.4351  1.7884  1.4743
  184MOL     H944295   5.110   3.657   5.218  2.2610 -1.6188 -1.3963
  184MOL    H1044296   5.253   3.749   5.169 -0.6857  1.0602  0.3264
  184MOL    H1144297   5.215   3.940   5.518  1.9173 -0.4999  1.6976
  184MOL    H1244298   5.244   3.968   5.352  0.2721  0.0961 -0.8820
  184MOL    H1344299   5.081   3.771   5.548 -0.8775  0.9336 -0.2883
  184MOL    O1444300   5.417   3.762   5.568 -0.6800 -0.7435  0.1219
  184MOL    C1544301   5.549   3.723   5.607 -0.1742  0.5888  0.1679
  184MOL    C1644302   5.559   3.692   5.763 -0.4827 -0.3384 -0.5235
  184MOL    C1744303   5.595   3.605   5.516 -0.2162  0.1784  0.4029
  184MOL    C1844304   5.745   3.577   5.510 -0.0763  0.1869  0.0847
  184MOL    O1944305   5.813   3.574   5.612 -0.9511  0.1845 -0.6682
  184MOL    H2044306   5.615   3.807   5.584 -1.9666  1.9482 -0.2220
  184MOL    H2144307   5.536   3.783   5.818  0.8146  0.1557 -0.7715
  184MOL    H2244308   5.656   3.657   5.799 -0.2781 -1.0496 -1.7348
  184MOL    H2344309   5.480   3.621   5.786 -0.1141 -0.0520  1.7049
  184MOL    H2444310   5.561   3.620   5.413  1.6262 -0.7732 -0.3787
  184MOL    H2544311   5.547   3.515   5.555  4.0103 -2.4291  0.0164
  184MOL    O2644312   5.787   3.539   5.380 -0.5264 -0.6404  0.4959
  184MOL    C2744313   5.921   3.507   5.350  0.1887 -0.7938 -0.1216
  184MOL    C2844314   5.936   3.370   5.279 -0.3102 -0.1449  0.1844
  184MOL    C2944315   5.986   3.615   5.262  0.4858  0.3076  0.2460
  184MOL    C3044316   6.137   3.600   5.251 -0.5203 -0.7517  0.0072
  184MOL    O3144317   6.188   3.549   5.154 -1.1806 -0.4334 -0.1978
  184MOL    H3244318   5.978   3.495   5.442 -3.2258 -2.5381  1.8608
  184MOL    H3344319   6.012   3.309   5.327 -2.1637 -2.6887 -0.0188
  184MOL    H3444320   5.959   3.374   5.172 -0.7084 -0.1726  0.0974
  184MOL    H3544321   5.843   3.317   5.297  0.2234 -0.6043  1.6749
  184MOL    H3644322   5.980   3.718   5.299  0.8899  0.2552  0.4535
  184MOL    H3744323   5.927   3.619   5.170 -0.5305  2.0527  0.9323
  184MOL    O3844324   6.190   3.640   5.367 -0.4717 -0.0815 -0.6528
  184MOL    C3944325   6.326   3.621   5.397 -0.2707 -0.1180 -0.7457
  184MOL    C4044326   6.392   3.727   5.483 -0.3498  0.0509  0.0609
  184MOL    C4144327   6.306   3.488   5.479 -0.4469  0.1743  0.3730
  184MOL    C4244328   6.428   3.406   5.506 -0.5617 -0.3590  0.0707
  184MOL    O4344329   6.530   3.408   5.434  0.4437  0.2245  0.1905
  184MOL    H4444330   6.387   3.613   5.307  0.6369 -0.3456 -0.1132
  184MOL    H4544331   6.500   3.718   5.492 -0.3044  0.4313 -0.0864
  184MOL    H4644332   6.342   3.719   5.580 -3.8652  0.2582 -1.6743
  184MOL    H4744333   6.367   3.822   5.436 -0.2831  0.7115  1.3335
  184MOL    H4844334   6.220   3.427   5.452 -1.2182  0.4687  2.0345
  184MOL    H4944335   6.267   3.525   5.574  0.0559 -0.5579  0.8692
  184MOL    O5044336   6.413   3.331   5.611  0.1045  0.6381  0.4127
  184MOL    C5144337   6.509   3.257   5.684 -0.2401 -1.2139  0.7592
  184MOL    C5244338   6.495   3.309   5.827  0.8375 -0.0075 -0.2429
  184MOL    C5344339   6.484   3.109   5.654  0.0275  0.8561 -0.4633
  184MOL    C5444340   6.587   3.010   5.708 -0.3886 -1.0320 -0.3609
  184MOL    O5544341   6.703   3.050   5.736  0.0010  0.1507 -0.1664
  184MOL    H5644342   6.613   3.278   5.657 -0.7268 -0.4257 -0.5732
  184MOL    H5744343   6.502   3.418   5.834  2.2912 -0.1206  0.3229
  184MOL    H5844344   6.577   3.274   5.889 -0.1489  1.7449  2.1381
  184MOL    H5944345   6.401   3.278   5.873  0.4066  0.4224 -0.8174
  184MOL    H6044346   6.485   3.108   5.545 -1.5121 -0.8867 -0.4994
  184MOL    H6144347   6.379   3.090   5.678 -0.3556  2.8628 -0.4936
  184MOL    O6244348   6.538   2.889   5.713 -0.2378  0.5639 -0.3085
  184MOL    C6344349   6.613   2.779   5.752 -1.1929 -0.1009 -0.1429
  184MOL    C6444350   6.543   2.728   5.876  0.5128 -0.3649 -0.1561
  184MOL    C6544351   6.606   2.675   5.643  0.2104  0.2332 -0.1997
  184MOL    C6644352   6.711   2.561   5.667 -0.7844 -0.0256  0.7381
  184MOL    O6744353   6.769   2.541   5.772 -0.4293 -0.4398  0.3796
  184MOL    H6844354   6.716   2.812   5.768 -1.5032  0.3742  0.8722
  184MOL    H6944355   6.440   2.703   5.850  0.6166  0.1039 -1.0375
  184MOL    H7044356   6.542   2.804   5.955  1.4848 -1.2101  0.6876
  184MOL    H7144357   6.591   2.640   5.918  0.0187 -1.9983 -2.8964
  184MOL    H7244358   6.622   2.712   5.542 -1.8686  0.8071 -0.3267
  184MOL    H7344359   6.507   2.629   5.643  0.2046  0.2337 -1.2629
  184MOL    O7444360   6.719   2.479   5.562  0.2543  0.6245  0.2755
  184MOL    C7544361   6.800   2.365   5.561 -0.4722 -0.4264  0.1673
  184MOL    C7644362   6.746   2.259   5.655  0.2432  0.0430  0.5638
  184MOL    C7744363   6.805   2.319   5.417  0.1929 -0.1201 -0.2845
  184MOL    C7844364   6.891   2.409   5.325  0.4562  0.5136  0.4118
  184MOL    O7944365   6.990   2.367   5.264 -0.1646 -0.2327 -0.2342
  184MOL    H8044366   6.894   2.401   5.601 -0.6676 -0.6291  0.8081
  184MOL    H8144367   6.797   2.164   5.642  0.6468  0.6288 -2.4984
  184MOL    H8244368   6.638   2.248   5.642  0.3303 -2.6912  1.8665
  184MOL    H8344369   6.760   2.302   5.754  0.7421  0.0099  0.5110
  184MOL    H8444370   6.703   2.307   5.381  0.5635  0.0266 -1.4229
  184MOL    H8544371   6.840   2.216   5.424 -0.1079 -0.1734  0.3987
  184MOL    O8644372   6.840   2.528   5.317  0.6819  0.1854  0.1569
  184MOL    C8744373   6.913   2.627   5.241  0.7302 -0.1394  0.3178
  184MOL    C8844374   6.822   2.687   5.136  0.0116  0.3505  0.1911
  184MOL    C8944375   6.998   2.721   5.321 -0.6877 -0.4991 -0.2257
  184MOL    C9044376   6.927   2.818   5.416  0.6277 -0.6412  0.0033
  184MOL    O9144377   6.899   2.795   5.536 -0.2806 -0.2582 -0.3340
  184MOL    H9244378   6.990   2.569   5.189  0.1684 -0.3355 -0.3028
  184MOL    H9344379   6.887   2.731   5.061 -1.6211  2.1685 -0.2267
  184MOL    H9444380   6.751   2.763   5.172  0.0979  0.0437  1.0204
  184MOL    H9544381   6.772   2.604   5.087 -0.9539  1.2455 -0.3834
  184MOL    H9644382   7.065   2.783   5.261 -1.4090  0.7041  0.1952
  184MOL    H9744383   7.065   2.675   5.393 -0.6199  2.2280  1.5224
  184MOL    O9844384   6.910   2.935   5.354  0.5214  0.3485  0.2414
  184MOL    C9944385   6.857   3.051   5.417  0.9529 -0.0508  0.5153
  184MOL   C10044386   6.969   3.154   5.468 -0.2012  0.1262 -0.3044
  184MOL   C10144387   6.750   3.117   5.335 -0.1521  0.3763  1.0582
  184MOL   C10244388   6.610   3.054   5.328  0.0024  0.4155 -0.1989
  184MOL   O10344389   6.586   2.946   5.380  0.3332  0.0924 -0.4481
  184MOL   H10444390   6.800   3.017   5.503 -1.2983 -2.3994 -1.8182
  184MOL   H10544391   7.058   3.106   5.509 -0.8732 -0.8610  0.0006
  184MOL   H10644392   6.924   3.207   5.552  2.2519  0.1053  1.0666
  184MOL   H10744393   6.996   3.234   5.399  1.7094 -0.0707  0.1729
  184MOL   H10844394   6.792   3.149   5.240 -1.3930 -1.7100 -0.2204
  184MOL   H10944395   6.710   3.211   5.373 -1.1356  0.5818 -0.4380
  184MOL   O11044396   6.524   3.133   5.245 -0.3093 -0.0214 -0.0948
  184MOL   C11144397   6.402   3.083   5.202  0.0753 -0.2851 -0.2419
  184MOL   C11244398   6.298   3.206   5.210  0.4116 -0.0346  0.5478
  184MOL   C11344399   6.429   3.022   5.057 -0.8444  0.4025  0.3975
  184MOL   C11444400   6.307   2.947   4.999 -0.1983  0.6948  0.3128
  184MOL   O11544401   6.319   2.827   4.963  0.6346 -0.1922 -0.0255
  184MOL   H11644402   6.354   3.012   5.270  0.3450  1.2604  1.6291
  184MOL   H11744403   6.307   3.281   5.132 -2.6462 -0.5776 -0.3660
  184MOL   H11844404   6.312   3.266   5.300  1.5652  1.9777 -0.9212
  184MOL   H11944405   6.195   3.173   5.209 -0.1871  1.7696 -0.7343
  184MOL   H12044406   6.518   2.959   5.061 -1.4365 -0.6002 -1.8448
  184MOL   H12144407   6.445   3.111   4.996 -0.4561  0.7919  1.0521
  184MOL   O12244408   6.198   3.020   4.990 -0.3017 -0.4008  0.0276
  184MOL   C12344409   6.067   2.972   4.966  0.0531 -0.0284  0.2963
  184MOL   C12444410   5.957   3.054   5.049 -0.1563 -0.0177 -0.2193
  184MOL   C12544411   6.022   2.986   4.820 -0.6409 -0.1952  0.6349
  184MOL   C12644412   6.100   2.902   4.718  0.6141 -0.1085  0.4888
  184MOL   O12744413   6.163   2.953   4.622  0.0088  0.1663 -0.1746
  184MOL   H12844414   6.062   2.868   4.998  2.6313 -1.4674 -3.6250
  184MOL   H12944415   5.857   3.023   5.016 -0.9622  2.7452 -0.4937
  184MOL   H13044416   5.976   3.159   5.029  2.1484 -0.3300  0.1694
  184MOL   H13144417   5.972   3.038   5.155  0.4206 -0.0408 -0.3009
  184MOL   H13244418   6.030   3.092   4.796 -1.9219 -0.6356 -1.8844
  184MOL   H13344419   5.918   2.954   4.808 -0.6071  0.1997 -0.8020
  184MOL   O13444420   6.067   2.768   4.739 -0.1382  0.1287 -0.0463
  184MOL   C13544421   6.111   2.666   4.649  0.4089  0.5655 -0.4768
  184MOL   C13644422   6.229   2.611   4.726  0.0301 -0.2764 -0.4254
  184MOL   C13744423   5.988   2.568   4.625  0.3963  0.1788 -0.0289
  184MOL   C13844424   5.875   2.639   4.546  0.8533  0.0581 -0.0584
  184MOL   O13944425   5.890   2.673   4.428  0.4524  0.3480 -0.7350
  184MOL   H14044426   6.147   2.700   4.552 -1.4724 -2.3187 -2.2831
  184MOL   H14144427   6.313   2.679   4.708  1.6775 -2.1878 -0.1292
  184MOL   H14244428   6.272   2.521   4.682 -0.0694 -0.2723 -0.5324
  184MOL   H14344429   6.218   2.595   4.833  4.1500  0.9298  0.2951
  184MOL   H14444430   5.953   2.527   4.720 -0.2526  1.0956  0.1343
  184MOL   H14544431   6.024   2.483   4.566  2.5800  1.7242 -1.0062
  184MOL   O14644432   5.769   2.667   4.629  0.2415  0.1448 -0.3959
  184MOL   C14744433   5.655   2.729   4.582  0.2725  0.4267 -0.7593
  184MOL   C14844434   5.535   2.650   4.642 -0.3955  0.3903  0.2833
  184MOL   C14944435   5.669   2.876   4.609 -0.9579  0.4256 -0.2614
  184MOL   C15044436   5.559   2.954   4.552 -0.2690  0.3976 -0.2523
  184MOL   O15144437   5.570   2.983   4.434 -0.3507 -0.4474 -0.1990
  184MOL   H15244438   5.641   2.722   4.474 -1.3251  0.1021 -0.5352
  184MOL   H15344439   5.442   2.702   4.618 -0.2492  1.8088  2.6036
  184MOL   H15444440   5.532   2.637   4.750 -0.6034  1.4202  0.4098
  184MOL   H15544441   5.524   2.555   4.590  1.0438  0.3866 -0.0321
  184MOL   H15644442   5.766   2.911   4.571 -1.5432  1.8762 -0.4585
  184MOL   H15744443   5.672   2.896   4.716  1.0288 -4.1153  0.6780
  184MOL   O15844444   5.466   2.993   4.645 -0.1771 -0.1444 -0.0254
  184MOL   C15944445   5.355   3.076   4.608  0.4533 -0.7475  0.4665
  184MOL   C16044446   5.222   3.029   4.673  0.6776 -0.1495  0.1093
  184MOL   C16144447   5.399   3.221   4.632  0.4769  0.0366 -0.2236
  184MOL   C16244448   5.304   3.318   4.555 -0.1834  0.6625 -0.6094
  184MOL   O16344449   5.320   3.328   4.435  0.7306 -0.2471 -0.0204
  184MOL   H16444450   5.361   3.069   4.499  1.1012  0.7774  0.3850
  184MOL   H16544451   5.233   3.029   4.782 -1.6839  1.6756  0.3898
  184MOL   H16644452   5.197   2.926   4.648  0.9811 -0.0932 -0.4328
  184MOL   H16744453   5.127   3.077   4.650 -0.3747 -1.5066  1.5369
  184MOL   H16844454   5.497   3.240   4.588  2.7029  0.0907  4.4694
  184MOL   H16944455   5.400   3.238   4.739  0.7997  2.0526 -0.5278
  184MOL   O17044456   5.226   3.402   4.641  0.4538 -0.5674 -0.4347
  184MOL   C17144457   5.150   3.509   4.599  0.3186 -0.5593  0.3813
  184MOL   C17244458   5.018   3.495   4.665  0.3847 -0.4207  0.7900
  184MOL   C17344459   5.230   3.639   4.628  0.0981 -0.3136  0.3856
  184MOL   C17444460   5.195   3.747   4.515  0.0774 -0.1607 -0.0451
  184MOL   O17544461   5.271   3.786   4.426  0.4638 -0.2075 -0.4805
  184MOL   H17644462   5.132   3.497   4.493 -1.0104  1.6061  0.3249
  184MOL   H17744463   5.024   3.523   4.771  1.0572 -0.3109  0.7253
  184MOL   H17844464   4.969   3.398   4.653 -0.7605 -0.1749  3.1575
  184MOL   H17944465   4.957   3.574   4.620  2.1448  0.6036  0.1813
  184MOL   H18044466   5.339   3.630   4.638 -0.1611 -2.6294  1.5281
  184MOL   H18144467   5.199   3.684   4.723  0.1420  0.5029  0.0170
  184MOL   O18244468   5.082   3.809   4.545  0.8514 -0.3657  0.0433
  184MOL   C18344469   5.057   3.932   4.474 -0.0141 -0.6881 -0.0898
  184MOL   C18444470   4.905   3.935   4.494 -0.2461 -0.0213  0.4404
  184MOL   C18544471   5.137   4.043   4.549  0.1262 -0.4091  0.8197
  184MOL   C18644472   5.122   4.184   4.505 -0.2922  0.1732 -0.0776
  184MOL   O18744473   5.024   4.246   4.539  0.1002 -1.2214 -0.5789
  184MOL   H18844474   5.061   3.918   4.366 -2.6987 -1.5098 -0.1346
  184MOL   H18944475   4.853   4.002   4.425 -1.6782  0.8580  2.3196
  184MOL   H19044476   4.880   3.947   4.600  1.2101  0.9865  0.6814
  184MOL   H19144477   4.866   3.840   4.457  0.8954 -0.0066 -0.8544
  184MOL   H19244478   5.243   4.021   4.539  0.6316  1.9421  0.6238
  184MOL   H19344479   5.109   4.035   4.654 -2.2895  2.3620  0.4572
  184MOL   O19444480   5.220   4.253   4.433 -0.8854  0.0406  0.4973
  184MOL   C19544481   5.221   4.398   4.428  0.9538  0.1635 -0.4419
  184MOL   C19644482   5.251   4.467   4.559 -0.4492 -0.5259 -0.3753
  184MOL   C19744483   5.325   4.434   4.332 -0.6087  0.2432 -0.4185
  184MOL   C19844484   5.289   4.559   4.257 -0.3234  0.0084  0.4690
  184MOL   O19944485   5.193   4.568   4.188 -0.4697  0.6289 -0.4442
  184MOL   H20044486   5.120   4.420   4.394  0.8664 -1.0007 -0.9413
  184MOL   H20144487   5.175   4.461   4.636 -0.7560  0.4453 -0.5878
  184MOL   H20244488   5.266   4.575   4.557 -0.3839 -0.5482 -2.5541
  184MOL   H20344489   5.338   4.417   4.601 -1.1131  0.2372  1.9640
  184MOL   H20444490   5.372   4.349   4.283 -0.2522  0.5189 -0.5569
  184MOL   H20544491   5.415   4.457   4.389  1.1941 -0.5394 -2.8602
  184MOL   O20644492   5.379   4.658   4.286  0.3473 -0.4464 -0.0811
  184MOL   C20744493   5.359   4.786   4.232  0.4890 -0.1782 -0.2411
  184MOL   C20844494   5.368   4.883   4.344  0.1775  0.7494 -0.2105
  184MOL   C20944495   5.462   4.809   4.111 -0.3643  0.3843  0.1214
  184MOL   C21044496   5.406   4.896   3.998 -0.5157 -0.5956 -0.3616
  184MOL   O21144497   5.310   4.967   4.015  0.1570 -0.0836  0.2012
  184MOL   H21244498   5.264   4.787   4.178  1.2308 -2.0344 -1.6075
  184MOL   H21344499   5.474   4.883   4.373 -0.3309 -2.2030  1.9072
  184MOL   H21444500   5.308   4.864   4.433 -1.3146  1.6760 -1.0115
  184MOL   H21544501   5.341   4.985   4.316 -0.4417  0.1510 -1.8837
  184MOL   H21644502   5.499   4.711   4.082 -2.8525 -0.0069 -1.8936
  184MOL   H21744503   5.555   4.858   4.139 -0.1358  0.2363 -0.3685
  184MOL   O21844504   5.486   4.884   3.884  0.0998  0.8273  0.5273
  184MOL   C21944505   5.448   4.946   3.766 -0.2278 -0.0276 -0.3370
  184MOL   C22044506   5.509   5.086   3.748  0.7528  0.7020  0.0013
  184MOL   C22144507   5.494   4.847   3.656 -0.4712 -0.1464  0.1205
  184MOL   C22244508   5.644   4.812   3.655  0.3839  0.2226 -0.0536
  184MOL   O22344509   5.725   4.885   3.597  0.2925 -0.0854  0.1289
  184MOL   H22444510   5.339   4.952   3.755 -0.4500 -1.6567  0.8412
  184MOL   H22544511   5.618   5.084   3.742  0.7166  2.7136 -2.4205
  184MOL   H22644512   5.478   5.136   3.839  0.9112  0.2411  0.3074
  184MOL   H22744513   5.461   5.129   3.660  0.0153  0.1273  0.1178
  184MOL   H22844514   5.470   4.900   3.564  0.8042  1.8394  0.8928
  184MOL   H22944515   5.435   4.756   3.653 -2.4266  1.0405  1.1289
  184MOL   O23044516   5.665   4.693   3.700 -0.2560 -0.2133 -0.3259
  184MOL   C23144517   5.799   4.660   3.743  0.1029  0.5634 -0.6654
  184MOL   C23244518   5.787   4.583   3.874  0.0573  0.4657 -0.4375
  184MOL   C23344519   5.876   4.580   3.640  0.0705 -0.0071 -0.4438
  184MOL   C23444520   6.035   4.608   3.633  0.9396 -0.9515 -0.7614
  184MOL   O23544521   6.094   4.652   3.729  0.2340  0.5421  0.8129
  184MOL   H23644522   5.854   4.753   3.757  0.0604  0.3041  1.3627
  184MOL   H23744523   5.854   4.500   3.893 -0.9058 -0.6385 -1.7237
  184MOL   H23844524   5.694   4.527   3.887  0.5725  0.3558  3.3359
  184MOL   H23944525   5.781   4.657   3.953 -0.1416  0.4582 -0.4461
  184MOL   H24044526   5.841   4.608   3.540  0.6534  2.2721 -0.0534
  184MOL   H24144527   5.858   4.473   3.646  1.0001 -0.0109  3.0414
  184MOL   H24244528   6.086   4.586   3.539  0.3204 -1.8103 -0.9066
  185MOL     O144529   3.484   7.048   4.538  0.0655  0.2276 -0.2034
  185MOL     C244530   3.369   6.990   4.479  0.6277 -0.2104  0.6469
  185MOL     C344531   3.268   6.989   4.589  0.0533 -0.2477 -0.5217
  185MOL     C444532   3.331   7.062   4.353  0.6250 -0.8454 -0.2960
  185MOL     C544533   3.221   6.993   4.270  0.2179 -0.1989 -0.6047
  185MOL     O644534   3.212   6.870   4.250  0.5289  0.4864  0.3172
  185MOL     H744535   3.380   6.885   4.453  0.9105 -0.2199  0.8017
  185MOL     H844536   3.306   6.922   4.666 -1.9131  0.9230  1.5284
  185MOL     H944537   3.166   6.956   4.566 -0.0788 -1.1877  1.3261
  185MOL    H1044538   3.261   7.091   4.627  2.5847  0.1375 -1.0288
  185MOL    H1144539   3.419   7.064   4.288  1.9994  3.6621  1.5644
  185MOL    H1244540   3.306   7.166   4.374 -1.0063 -1.4041  0.6459
  185MOL    H1344541   3.552   7.035   4.473 -0.3978 -1.1929 -0.4108
  185MOL    O1444542   3.152   7.095   4.217  0.1310  0.5047  0.1398
  185MOL    C1544543   3.047   7.080   4.114 -0.1571 -0.2959 -0.6245
  185MOL    C1644544   2.961   7.208   4.136 -0.4732 -0.0336 -0.4336
  185MOL    C1744545   3.134   7.068   3.988  0.3809  0.0025  0.3640
  185MOL    C1844546   3.069   7.045   3.852 -0.7680 -0.1610  0.3736
  185MOL    O1944547   2.957   6.996   3.844  0.5468 -0.0314 -0.2235
  185MOL    H2044548   2.995   6.988   4.137  1.7365 -0.9547  1.1613
  185MOL    H2144549   3.018   7.300   4.128 -1.4035  0.4152 -2.1688
  185MOL    H2244550   2.909   7.195   4.231  1.6289  0.1212  0.7639
  185MOL    H2344551   2.876   7.210   4.068  0.1584  0.8746 -1.2085
  185MOL    H2444552   3.212   6.994   4.005  0.9658  0.1266 -1.6426
  185MOL    H2544553   3.200   7.154   3.976  0.2054  0.2678  1.2469
  185MOL    O2644554   3.150   7.076   3.756 -0.1964 -0.2097  0.2649
  185MOL    C2744555   3.095   7.066   3.623 -0.1316 -0.5370  0.0169
  185MOL    C2844556   3.066   7.209   3.568 -0.0733  0.1051 -0.4527
  185MOL    C2944557   3.201   6.984   3.546  0.4745 -0.2663 -0.4786
  185MOL    C3044558   3.145   6.944   3.414  0.1316 -0.3952 -0.1894
  185MOL    O3144559   3.165   7.014   3.314  0.3383 -0.1890  0.4491
  185MOL    H3244560   2.998   7.016   3.621 -0.3374 -0.1520  0.2716
  185MOL    H3344561   3.153   7.274   3.574 -0.3931  0.5560 -0.6780
  185MOL    H3444562   2.983   7.244   3.630  1.0036 -0.4161  1.3267
  185MOL    H3544563   3.022   7.201   3.469 -0.7995  0.3065 -0.1553
  185MOL    H3644564   3.222   6.893   3.601  1.9476  0.1871 -0.2655
  185MOL    H3744565   3.300   7.030   3.538 -0.0627  1.2857  1.4289
  185MOL    O3844566   3.084   6.825   3.417 -0.0694 -0.1130 -0.1435
  185MOL    C3944567   3.053   6.756   3.297  0.1566 -0.4343  0.0483
  185MOL    C4044568   3.103   6.613   3.294 -0.0766  1.0165 -0.0435
  185MOL    C4144569   2.896   6.761   3.281  0.0518  0.7612 -0.7571
  185MOL    C4244570   2.842   6.894   3.231 -0.0263  0.7657  0.0394
  185MOL    O4344571   2.772   6.968   3.299 -0.3822  0.1216 -0.1458
  185MOL    H4444572   3.087   6.816   3.213 -1.6311 -0.8857 -1.0216
  185MOL    H4544573   3.051   6.559   3.214 -1.4418  1.7216  0.3475
  185MOL    H4644574   3.096   6.571   3.394 -0.4352  1.0495 -0.0543
  185MOL    H4744575   3.209   6.613   3.270 -0.2855 -1.2327 -1.1558
  185MOL    H4844576   2.843   6.747   3.375  2.0487  1.0597  0.4424
  185MOL    H4944577   2.854   6.706   3.197 -2.3906  0.6311  0.4815
  185MOL    O5044578   2.877   6.908   3.104 -0.2013  0.3206 -0.5986
  185MOL    C5144579   2.816   7.004   3.020  0.1585 -0.1329  0.2003
  185MOL    C5244580   2.900   7.130   3.046  1.1768 -0.0182  0.1260
  185MOL    C5344581   2.832   6.967   2.870 -0.4750 -0.0703 -0.1942
  185MOL    C5444582   2.766   7.052   2.773  0.1250 -0.1102  0.6174
  185MOL    O5544583   2.658   7.106   2.790  0.2719 -0.1412  0.4011
  185MOL    H5644584   2.714   7.016   3.058  0.8424  0.7767  1.7772
  185MOL    H5744585   2.855   7.213   2.991 -0.4433 -0.7938  0.2447
  185MOL    H5844586   3.007   7.132   3.026  0.4629  1.4511 -4.0232
  185MOL    H5944587   2.874   7.156   3.148 -1.3061 -1.5618 -0.0671
  185MOL    H6044588   2.794   6.868   2.846 -1.5144 -0.1387  1.6760
  185MOL    H6144589   2.940   6.961   2.853 -0.4417 -0.3942  0.1463
  185MOL    O6244590   2.844   7.051   2.655 -0.7645  0.3798  0.4318
  185MOL    C6344591   2.803   7.113   2.529  0.4048 -0.2038 -0.7821
  185MOL    C6444592   2.932   7.130   2.454 -0.4657 -0.0425 -0.0804
  185MOL    C6544593   2.701   7.036   2.448  0.1192  0.5292  0.4935
  185MOL    C6644594   2.635   7.136   2.350 -0.1868  0.5744  0.6996
  185MOL    O6744595   2.678   7.246   2.320  0.2957 -0.1021  0.2606
  185MOL    H6844596   2.755   7.208   2.552 -1.4638 -1.2339 -0.4048
  185MOL    H6944597   3.009   7.181   2.512 -1.0345 -0.1872  0.8034
  185MOL    H7044598   2.922   7.178   2.357 -0.6530  0.3284  0.1248
  185MOL    H7144599   2.959   7.030   2.419  0.5168 -0.0763  0.7430
  185MOL    H7244600   2.617   7.002   2.509  1.5883 -1.4977  1.4609
  185MOL    H7344601   2.744   6.953   2.393 -1.7207 -0.7133  0.8864
  185MOL    O7444602   2.532   7.085   2.289 -0.1914 -0.0658  0.6198
  185MOL    C7544603   2.465   7.149   2.174  0.3789 -0.4386  0.3131
  185MOL    C7644604   2.543   7.117   2.042 -0.4159 -0.0521 -0.0597
  185MOL    C7744605   2.315   7.113   2.165  0.2900  0.1057  0.5726
  185MOL    C7844606   2.248   7.172   2.287  0.0728 -0.0650 -0.1437
  185MOL    O7944607   2.215   7.103   2.385  0.6011  0.2734  0.4646
  185MOL    H8044608   2.472   7.257   2.188  0.2291  0.0676 -2.9402
  185MOL    H8144609   2.516   7.020   2.000  2.3839 -0.9600  0.1267
  185MOL    H8244610   2.650   7.136   2.043 -0.5976  0.9813  1.5390
  185MOL    H8344611   2.495   7.167   1.958 -1.2774  2.6272  1.9746
  185MOL    H8444612   2.308   7.004   2.171  2.8909 -0.2290 -1.5349
  185MOL    H8544613   2.269   7.148   2.073 -0.8517 -0.4168  0.9322
  185MOL    O8644614   2.231   7.310   2.287 -0.0337  0.2890  0.1422
  185MOL    C8744615   2.144   7.378   2.369  0.0199  0.3761 -0.0653
  185MOL    C8844616   2.220   7.430   2.483 -0.5606 -0.6876 -0.2664
  185MOL    C8944617   2.084   7.490   2.291  0.2076  0.2379 -0.1553
  185MOL    C9044618   1.961   7.451   2.205 -0.1424  0.2498 -0.1885
  185MOL    O9144619   1.855   7.410   2.251  0.0499  0.1882 -0.6549
  185MOL    H9244620   2.068   7.312   2.412  1.0003  0.2434  1.5245
  185MOL    H9344621   2.282   7.348   2.519  2.7067  1.2205 -1.3290
  185MOL    H9444622   2.155   7.476   2.558 -0.2910 -1.3483  0.3798
  185MOL    H9544623   2.294   7.503   2.449 -1.2641  0.7825  1.2666
  185MOL    H9644624   2.166   7.531   2.232  0.6685 -1.8814 -1.0217
  185MOL    H9744625   2.053   7.572   2.357  3.9666 -1.0740  3.4483
  185MOL    O9844626   1.989   7.451   2.074 -0.1783  0.2620  0.3174
  185MOL    C9944627   1.889   7.422   1.979 -0.6091  0.3158  0.1599
  185MOL   C10044628   1.858   7.559   1.911 -0.2135 -0.3675  0.4407
  185MOL   C10144629   1.929   7.311   1.878  0.0516 -0.2016 -0.4970
  185MOL   C10244630   1.813   7.226   1.823 -0.9666 -0.3607 -0.3782
  185MOL   O10344631   1.709   7.203   1.885  0.0526 -0.1821  0.1105
  185MOL   H10444632   1.795   7.394   2.025 -0.5823  2.0036  1.2877
  185MOL   H10544633   1.937   7.620   1.869 -2.1547  2.0858  0.2443
  185MOL   H10644634   1.797   7.609   1.986 -1.0081 -0.5726 -0.0533
  185MOL   H10744635   1.790   7.543   1.827 -0.6142 -0.4601  0.7754
  185MOL   H10844636   1.997   7.243   1.929 -0.5020 -1.2390 -1.1195
  185MOL   H10944637   1.985   7.355   1.796  1.5747 -0.2349  0.4927
  185MOL   O11044638   1.849   7.177   1.706 -0.7056 -0.0546  0.0552
  185MOL   C11144639   1.763   7.092   1.629 -0.0462 -0.1322  0.0197
  185MOL   C11244640   1.754   7.164   1.494 -0.1407  0.7607 -0.3050
  185MOL   C11344641   1.819   6.951   1.633  0.6046  0.5158 -0.0193
  185MOL   C11444642   1.960   6.924   1.585 -0.3557 -0.1823 -0.8278
  185MOL   O11544643   1.981   6.857   1.485  0.7755 -0.1935 -0.2452
  185MOL   H11644644   1.668   7.081   1.681  1.0031 -1.3711  1.7075
  185MOL   H11744645   1.702   7.259   1.509 -1.2813  0.3508 -1.6285
  185MOL   H11844646   1.703   7.102   1.421 -0.6169  2.1533 -1.1653
  185MOL   H11944647   1.853   7.183   1.452  0.0891  1.0283  0.3380
  185MOL   H12044648   1.745   6.881   1.592 -1.2322  1.1974  2.0194
  185MOL   H12144649   1.818   6.912   1.735 -0.4209 -0.5471 -0.4145
  185MOL   O12244650   2.052   6.975   1.675 -0.2310  0.0743  0.1074
  185MOL   C12344651   2.189   6.960   1.648  0.4831  0.4180  0.7549
  185MOL   C12444652   2.231   7.059   1.537 -0.2528  0.3892  1.0323
  185MOL   C12544653   2.266   6.971   1.777  0.1881 -0.3051  0.3308
  185MOL   C12644654   2.250   6.855   1.880 -0.2088  0.6409 -0.7494
  185MOL   O12744655   2.187   6.879   1.985 -0.3169  0.3624  0.5085
  185MOL   H12844656   2.212   6.859   1.615  0.5833  0.8644 -0.5431
  185MOL   H12944657   2.166   7.061   1.449  0.4373  0.4848  0.5275
  185MOL   H13044658   2.331   7.029   1.508 -0.8024  0.4988 -1.0185
  185MOL   H13144659   2.241   7.158   1.581  0.4084  1.5667 -1.7000
  185MOL   H13244660   2.239   7.068   1.819 -2.4681 -2.0784  2.8985
  185MOL   H13344661   2.368   6.954   1.744 -0.7187 -4.0182 -0.8717
  185MOL   O13444662   2.304   6.732   1.849  0.6053 -0.2862 -1.0105
  185MOL   C13544663   2.285   6.622   1.935 -0.5808  0.9979  0.5800
  185MOL   C13644664   2.206   6.520   1.851  0.5428  0.2622 -0.0065
  185MOL   C13744665   2.410   6.569   2.005  0.4365  0.2930 -0.3185
  185MOL   C13844666   2.451   6.676   2.109 -0.0086 -0.9941 -0.5598
  185MOL   O13944667   2.490   6.789   2.077  0.2360 -0.6983  0.0633
  185MOL   H14044668   2.207   6.648   2.005  0.8839  2.0549  1.8620
  185MOL   H14144669   2.114   6.575   1.827 -0.2766 -1.4579 -0.8889
  185MOL   H14244670   2.188   6.429   1.908 -2.4508 -0.3013 -1.7391
  185MOL   H14344671   2.260   6.504   1.758  1.6260  0.6597  0.5503
  185MOL   H14444672   2.496   6.528   1.951 -1.4420 -1.4502 -2.0764
  185MOL   H14544673   2.369   6.482   2.058 -0.4084 -0.1128 -1.6301
  185MOL   O14644674   2.441   6.630   2.236 -0.4911 -0.4619  0.1509
  185MOL   C14744675   2.428   6.719   2.346  0.6685 -1.0072  0.3119
  185MOL   C14844676   2.271   6.746   2.356  0.5900 -0.4747  0.7519
  185MOL   C14944677   2.484   6.640   2.467  0.0411  0.7492  0.0125
  185MOL   C15044678   2.513   6.725   2.591 -0.0814  0.4515  0.7341
  185MOL   O15144679   2.632   6.731   2.641 -0.0599  0.0938  0.3151
  185MOL   H15244680   2.494   6.805   2.332  2.0104 -2.0237  0.2491
  185MOL   H15344681   2.246   6.794   2.450  1.1902 -0.0731  0.7078
  185MOL   H15444682   2.211   6.659   2.327  1.1755  0.4422 -3.5380
  185MOL   H15544683   2.231   6.805   2.274 -2.4777  1.6494  3.6317
  185MOL   H15644684   2.585   6.605   2.447  0.4464  1.5206  0.6754
  185MOL   H15744685   2.424   6.550   2.484 -0.4557  1.0147 -0.2962
  185MOL   O15844686   2.403   6.777   2.644  0.2878  0.2276 -0.6206
  185MOL   C15944687   2.414   6.868   2.755 -0.5538 -0.0065 -0.3105
  185MOL   C16044688   2.350   7.007   2.730 -0.4323  0.5240  0.3743
  185MOL   C16144689   2.365   6.787   2.875 -0.1186 -0.4449  1.0122
  185MOL   C16244690   2.444   6.812   3.000 -0.8161 -1.1894 -0.1479
  185MOL   O16344691   2.563   6.790   2.993  0.6873 -0.1237  0.3576
  185MOL   H16444692   2.521   6.886   2.766 -0.3719 -0.6620 -0.9880
  185MOL   H16544693   2.403   7.057   2.649  1.2123 -2.1789 -0.2737
  185MOL   H16644694   2.341   7.067   2.821  2.5225 -1.6923  2.2152
  185MOL   H16744695   2.251   6.992   2.688 -0.2670 -1.5271  0.6658
  185MOL   H16844696   2.350   6.682   2.849 -0.1596  0.2821 -2.0746
  185MOL   H16944697   2.261   6.815   2.893  0.1727  0.4893  1.2453
  185MOL   O17044698   2.366   6.860   3.107  0.0147  0.1748  0.4244
  185MOL   C17144699   2.437   6.919   3.223  0.9270 -0.0983 -0.3600
  185MOL   C17244700   2.443   7.066   3.208 -0.6349  0.4614 -0.2243
  185MOL   C17344701   2.356   6.864   3.342 -0.5730  1.0070 -0.3267
  185MOL   C17444702   2.393   6.930   3.473 -0.5095  0.3190 -0.0338
  185MOL   O17544703   2.303   6.982   3.547 -0.0507 -0.0166 -0.4344
  185MOL   H17644704   2.536   6.876   3.238  0.4051 -0.6249  1.6973
  185MOL   H17744705   2.484   7.114   3.297  1.1541 -1.7562  0.1989
  185MOL   H17844706   2.338   7.095   3.196 -0.7018  0.3876  0.1708
  185MOL   H17944707   2.485   7.100   3.114  0.6250 -0.2005  0.0820
  185MOL   H18044708   2.395   6.763   3.354 -0.2304  1.1290 -0.3928
  185MOL   H18144709   2.249   6.864   3.323 -0.1068  0.5304 -3.1949
  185MOL   O18244710   2.529   6.936   3.504 -0.0342  0.3799 -0.9005
  185MOL   C18344711   2.571   7.007   3.616  0.0858 -0.1688 -0.1692
  185MOL   C18444712   2.645   6.908   3.708  0.5130  0.0630  0.7853
  185MOL   C18544713   2.641   7.137   3.567  0.1187  0.0323  0.1231
  185MOL   C18644714   2.648   7.244   3.676 -0.6438  0.2226 -0.2742
  185MOL   O18744715   2.739   7.325   3.677  0.0091 -0.5196  0.2973
  185MOL   H18844716   2.484   7.043   3.672  0.3990  1.8082 -0.9386
  185MOL   H18944717   2.737   6.895   3.652 -0.2308  0.6002 -0.5580
  185MOL   H19044718   2.588   6.816   3.721  0.8119  0.0389  1.9982
  185MOL   H19144719   2.668   6.946   3.808 -0.7882  0.7500  0.8335
  185MOL   H19244720   2.579   7.177   3.487 -0.4090 -0.3186  0.3505
  185MOL   H19344721   2.743   7.113   3.537 -0.0802 -1.0747  0.3116
  185MOL   O19444722   2.559   7.224   3.775 -0.2090 -0.0843  0.0288
  185MOL   C19544723   2.529   7.322   3.873  0.5714  0.5472 -0.2413
  185MOL   C19644724   2.385   7.364   3.861 -0.3135  0.4543 -0.5689
  185MOL   C19744725   2.571   7.262   4.011  0.8653 -0.1149 -0.1699
  185MOL   C19844726   2.522   7.342   4.136 -0.5498 -0.0040  0.2034
  185MOL   O19944727   2.441   7.295   4.215 -0.4458  0.7512 -0.4049
  185MOL   H20044728   2.582   7.415   3.855  2.2629 -0.1035  1.2182
  185MOL   H20144729   2.350   7.383   3.759 -3.5563 -1.9916  0.0053
  185MOL   H20244730   2.370   7.457   3.916 -2.3842  1.2804 -2.4708
  185MOL   H20344731   2.312   7.291   3.895 -0.0954  1.1689  1.4704
  185MOL   H20444732   2.677   7.237   4.016  0.9767  0.2559 -0.5770
  185MOL   H20544733   2.532   7.161   4.017  1.9817 -0.6044 -0.9685
  185MOL   O20644734   2.564   7.472   4.133 -0.2366 -0.2931 -0.4636
  185MOL   C20744735   2.532   7.565   4.233  0.0845 -0.5858 -0.1583
  185MOL   C20844736   2.619   7.543   4.352 -0.6357  0.3989  0.1660
  185MOL   C20944737   2.560   7.706   4.165 -0.2560 -0.4045  0.0669
  185MOL   C21044738   2.460   7.726   4.049 -0.1366 -0.3605  0.2355
  185MOL   O21144739   2.344   7.702   4.055 -0.5801 -0.5234  0.1314
  185MOL   H21244740   2.429   7.546   4.263 -0.2611 -0.1475 -1.0422
  185MOL   H21344741   2.586   7.453   4.403  2.4840  0.0771  1.6750
  185MOL   H21444742   2.617   7.632   4.416 -1.0944 -1.0793  2.2476
  185MOL   H21544743   2.722   7.538   4.317 -0.6302  0.6874  0.1409
  185MOL   H21644744   2.663   7.723   4.134 -0.4225  1.4307  0.5192
  185MOL   H21744745   2.545   7.782   4.241 -2.0644  0.2502 -0.8966
  185MOL   O21844746   2.510   7.794   3.948 -0.0566 -0.3060  0.0098
  185MOL   C21944747   2.437   7.844   3.836  0.0754  0.3685  0.1723
  185MOL   C22044748   2.396   0.012   3.851 -0.1882  0.2169  0.2196
  185MOL   C22144749   2.520   7.825   3.707  0.2392  0.2674  0.7493
  185MOL   C22244750   2.521   7.687   3.642  0.4488 -0.1922  0.0920
  185MOL   O22344751   2.464   7.589   3.680 -0.2061  0.3739 -0.2234
  185MOL   H22444752   2.353   7.775   3.828  0.7479 -0.5495  0.9254
  185MOL   H22544753   2.479   0.082   3.861 -1.9095  2.3936 -0.4782
  185MOL   H22644754   2.337   0.014   3.942  4.1561 -0.9526  3.2587
  185MOL   H22744755   2.323   0.038   3.775 -0.1412  0.4013  0.2381
  185MOL   H22844756   2.624   7.853   3.722  0.1292  2.0889 -1.6615
  185MOL   H22944757   2.491   7.894   3.628 -0.0092 -0.5378  0.1340
  185MOL   O23044758   2.591   7.686   3.528 -0.0429 -0.5045 -0.2871
  185MOL   C23144759   2.598   7.580   3.433  0.2490 -0.5482 -0.1638
  185MOL   C23244760   2.538   7.610   3.295 -0.2871 -0.0405  0.5722
  185MOL   C23344761   2.746   7.553   3.432 -0.8896  0.1587 -0.0780
  185MOL   C23444762   2.793   7.429   3.352  0.5630 -0.0054  0.2457
  185MOL   O23544763   2.714   7.340   3.325  0.4243  0.1492  0.3821
  185MOL   H23644764   2.546   7.491   3.467  1.3759 -0.1278  2.7698
  185MOL   H23744765   2.543   7.522   3.230  0.1951 -1.8954  3.0411
  185MOL   H23844766   2.556   7.703   3.240 -1.1965  0.5241  1.2194
  185MOL   H23944767   2.430   7.621   3.298 -0.3441 -0.8599  1.9151
  185MOL   H24044768   2.779   7.533   3.534 -0.3524 -1.5683 -0.5702
  185MOL   H24144769   2.799   7.642   3.400  0.3505  0.0706  1.6294
  185MOL   H24244770   2.898   7.419   3.326  0.9023  0.5849  1.3830
  186MOL     O144771   2.262   1.761   2.279 -0.0261 -0.0249  0.1626
  186MOL     C244772   2.198   1.886   2.297  0.3331  0.4289 -0.2136
  186MOL     C344773   2.306   2.002   2.313 -0.1610  0.1055 -0.1704
  186MOL     C444774   2.114   1.901   2.168  0.1167 -0.4847 -0.3901
  186MOL     C544775   1.993   1.995   2.182  0.4914 -0.0132  0.4381
  186MOL     O644776   1.880   1.948   2.185 -0.2405 -0.9090  0.3987
  186MOL     H744777   2.127   1.889   2.379 -0.4352 -2.2014 -0.7530
  186MOL     H844778   2.353   2.005   2.412 -1.8405 -0.8308  0.6802
  186MOL     H944779   2.265   2.102   2.299 -1.2155 -0.3251 -0.1848
  186MOL    H1044780   2.394   1.987   2.251  0.9885  0.8305  1.2578
  186MOL    H1144781   2.071   1.805   2.140 -1.6858  0.0370  0.4779
  186MOL    H1244782   2.173   1.925   2.080  0.6044 -1.1786 -0.2540
  186MOL    H1344783   2.290   1.737   2.366  0.0935 -1.8871 -0.3681
  186MOL    O1444784   2.030   2.128   2.153 -0.7152 -0.2421 -0.5509
  186MOL    C1544785   1.928   2.232   2.154 -0.2520  0.1330  0.4620
  186MOL    C1644786   1.989   2.368   2.204  0.4191 -1.2372  0.8797
  186MOL    C1744787   1.865   2.253   2.008 -0.6065  0.6677  0.7560
  186MOL    C1844788   1.965   2.277   1.884 -0.2266 -0.4160  0.1018
  186MOL    O1944789   2.078   2.304   1.901 -0.0564  0.1622  0.2837
  186MOL    H2044790   1.843   2.202   2.216 -0.7617 -0.9931 -0.7640
  186MOL    H2144791   1.926   2.455   2.182  2.9673  0.4281 -0.0589
  186MOL    H2244792   2.087   2.388   2.162  0.0811  0.7252  0.9682
  186MOL    H2344793   1.995   2.370   2.313 -2.4517  1.6400  1.0880
  186MOL    H2444794   1.804   2.342   1.990 -1.6224  0.0115  0.9204
  186MOL    H2544795   1.813   2.161   1.980  1.1626 -0.4312  0.9968
  186MOL    O2644796   1.909   2.261   1.768  0.4012  0.1976  0.2063
  186MOL    C2744797   1.984   2.261   1.644  0.7570  0.0452 -0.9607
  186MOL    C2844798   2.038   2.131   1.598  0.0971 -0.5491  0.1937
  186MOL    C2944799   1.897   2.322   1.533 -0.1439 -0.4726 -0.4056
  186MOL    C3044800   1.901   2.479   1.527  0.8507  0.7165 -0.4795
  186MOL    O3144801   1.983   2.547   1.594 -0.4262 -0.1546 -0.5406
  186MOL    H3244802   2.078   2.317   1.654  1.7176 -1.3745 -1.9161
  186MOL    H3344803   2.116   2.156   1.526 -1.1625  0.6134 -0.7963
  186MOL    H3444804   1.958   2.065   1.565 -0.2911  0.4037 -0.7831
  186MOL    H3544805   2.076   2.077   1.685 -2.0652 -1.9658  0.3096
  186MOL    H3644806   1.800   2.271   1.533 -0.7338  0.6365  0.5491
  186MOL    H3744807   1.942   2.291   1.438 -0.3628 -1.3587 -0.2285
  186MOL    O3844808   1.821   2.521   1.438  0.3779  0.0886  0.6614
  186MOL    C3944809   1.816   2.666   1.410 -0.5931 -0.0292  0.3762
  186MOL    C4044810   1.772   2.665   1.263  1.0888  0.2143  0.5295
  186MOL    C4144811   1.703   2.738   1.494  0.3051 -0.4831 -0.0623
  186MOL    C4244812   1.723   2.888   1.506 -0.1976  0.2560  0.2230
  186MOL    O4344813   1.715   2.949   1.613 -0.3127  0.2169  0.0017
  186MOL    H4444814   1.909   2.721   1.426 -0.4319  0.0803 -0.8875
  186MOL    H4544815   1.673   2.621   1.253 -0.4245  3.3537  1.2894
  186MOL    H4644816   1.837   2.608   1.196  0.0699 -1.3905  0.8793
  186MOL    H4744817   1.759   2.764   1.219  0.0953 -0.6469 -1.1827
  186MOL    H4844818   1.691   2.709   1.598  1.3801  1.8745  0.7715
  186MOL    H4944819   1.606   2.734   1.446  0.9224 -1.2614 -1.2820
  186MOL    O5044820   1.749   2.952   1.389  0.4161 -0.1690  0.1709
  186MOL    C5144821   1.797   3.084   1.390 -0.0320  0.4792 -0.0145
  186MOL    C5244822   1.887   3.095   1.264  0.5048 -0.0562  0.6296
  186MOL    C5344823   1.677   3.177   1.394  0.7424 -0.0506  0.1119
  186MOL    C5444824   1.719   3.326   1.383  0.4501  0.1105 -0.5794
  186MOL    O5544825   1.824   3.364   1.429  0.7440 -0.3918 -0.0004
  186MOL    H5644826   1.860   3.109   1.475 -0.6902  0.1950  0.5603
  186MOL    H5744827   1.959   3.013   1.270 -2.5650 -2.8683  0.1202
  186MOL    H5844828   1.934   3.193   1.253  0.8419 -0.4582 -1.7108
  186MOL    H5944829   1.826   3.085   1.175  1.3910  1.1051 -0.1248
  186MOL    H6044830   1.626   3.168   1.490  1.5649 -0.2152  0.5356
  186MOL    H6144831   1.606   3.143   1.319  0.9104 -0.6798  0.2394
  186MOL    O6244832   1.623   3.406   1.330  0.0138 -0.0594  0.1066
  186MOL    C6344833   1.644   3.544   1.316 -0.5894  0.2958 -0.7063
  186MOL    C6444834   1.614   3.597   1.174  0.2817 -0.7805 -0.9743
  186MOL    C6544835   1.564   3.600   1.434 -0.0161 -0.4832 -0.1095
  186MOL    C6644836   1.541   3.751   1.436  0.3850  0.7613 -0.0085
  186MOL    O6744837   1.436   3.803   1.476 -0.5186 -0.0939 -0.3880
  186MOL    H6844838   1.749   3.564   1.338 -0.9334  0.6911  0.6220
  186MOL    H6944839   1.668   3.544   1.096  2.8157  0.1903  0.0755
  186MOL    H7044840   1.634   3.701   1.147  0.0798 -0.7397 -0.9706
  186MOL    H7144841   1.506   3.580   1.171  0.0450  0.8588 -4.2129
  186MOL    H7244842   1.610   3.583   1.532 -1.2137 -0.8813  0.3996
  186MOL    H7344843   1.467   3.549   1.438  0.5240 -1.4981  0.3717
  186MOL    O7444844   1.648   3.815   1.392  0.2716  0.0799 -0.0031
  186MOL    C7544845   1.675   3.952   1.414  0.3532 -0.2929  0.4325
  186MOL    C7644846   1.793   3.991   1.512  0.1387  0.1767 -0.1529
  186MOL    C7744847   1.695   4.033   1.282 -0.2625  0.1765 -0.1978
  186MOL    C7844848   1.674   4.179   1.290 -0.4086 -0.1992  0.8477
  186MOL    O7944849   1.626   4.234   1.391  0.0340  0.0260 -0.2976
  186MOL    H8044850   1.588   3.990   1.467 -0.4262 -1.1166 -0.2314
  186MOL    H8144851   1.883   3.930   1.501  0.7001  0.4991  2.4742
  186MOL    H8244852   1.763   3.974   1.615  1.4017  1.3101  0.4076
  186MOL    H8344853   1.821   4.096   1.508 -1.6297  0.6821  0.3127
  186MOL    H8444854   1.622   3.993   1.211  0.0345  1.9107 -1.4990
  186MOL    H8544855   1.795   4.006   1.251  0.4775  0.9900  1.4280
  186MOL    O8644856   1.705   4.241   1.178  0.0520  0.3117 -0.0117
  186MOL    C8744857   1.660   4.373   1.155  0.3183  0.0426 -0.6865
  186MOL    C8844858   1.741   4.455   1.052 -0.0096  0.2320  0.7973
  186MOL    C8944859   1.511   4.372   1.112 -0.3329  1.1970  0.9083
  186MOL    C9044860   1.478   4.275   0.993 -0.6772 -0.8530 -0.6932
  186MOL    O9144861   1.499   4.156   0.994 -0.4724 -0.0609  0.5729
  186MOL    H9244862   1.661   4.435   1.245 -1.6624 -0.0060 -0.6034
  186MOL    H9344863   1.714   4.432   0.949 -1.2850  0.6971  1.0266
  186MOL    H9444864   1.846   4.429   1.071 -0.5065 -2.3179  0.1495
  186MOL    H9544865   1.719   4.561   1.066 -1.0609 -0.1389  2.0793
  186MOL    H9644866   1.483   4.475   1.087 -2.0111  0.6460  0.4418
  186MOL    H9744867   1.452   4.338   1.197  1.7111  2.7993  3.0615
  186MOL    O9844868   1.440   4.346   0.885  0.1012 -0.1257  0.1477
  186MOL    C9944869   1.394   4.292   0.766  0.4486 -0.4948  1.2930
  186MOL   C10044870   1.254   4.351   0.749  0.4521 -0.2096 -0.2465
  186MOL   C10144871   1.484   4.328   0.649  0.6258  0.6649 -0.2492
  186MOL   C10244872   1.605   4.236   0.634 -0.2371  0.1961  0.3598
  186MOL   O10344873   1.598   4.112   0.646 -0.0757  0.3540  0.8324
  186MOL   H10444874   1.370   4.187   0.781  0.0091 -0.1631  2.9839
  186MOL   H10544875   1.249   4.460   0.750 -0.3265 -0.2593  1.1753
  186MOL   H10644876   1.178   4.318   0.819  0.5972 -3.0851 -1.3638
  186MOL   H10744877   1.220   4.310   0.654  2.0180 -1.2456 -0.3723
  186MOL   H10844878   1.512   4.434   0.652  0.3686  0.8423 -2.7836
  186MOL   H10944879   1.428   4.320   0.556  0.3064  1.0734 -0.0934
  186MOL   O11044880   1.715   4.307   0.612 -0.1016 -0.6377  0.4431
  186MOL   C11144881   1.844   4.248   0.592  0.1235  0.1365 -0.0770
  186MOL   C11244882   1.907   4.305   0.464 -0.2374  0.3027 -1.1788
  186MOL   C11344883   1.955   4.262   0.704  0.0635 -0.3934  0.3803
  186MOL   C11444884   1.923   4.187   0.829 -0.0627  0.6955 -0.2516
  186MOL   O11544885   1.944   4.235   0.941 -0.9248  0.2742  0.2480
  186MOL   H11644886   1.830   4.143   0.565  1.8757  0.0626 -0.8163
  186MOL   H11744887   2.004   4.265   0.436  0.0053 -0.8349  1.2237
  186MOL   H11844888   1.915   4.413   0.482 -0.3679  0.4961 -2.2407
  186MOL   H11944889   1.842   4.302   0.376  0.8998  0.8067 -2.0699
  186MOL   H12044890   1.992   4.359   0.738 -0.4399 -0.4343  1.0594
  186MOL   H12144891   2.049   4.223   0.666 -0.4960  0.6701 -2.1843
  186MOL   O12244892   1.881   4.061   0.799 -0.4106 -0.1707  0.1333
  186MOL   C12344893   1.858   3.967   0.903  0.3068 -0.6053  0.2701
  186MOL   C12444894   1.719   3.908   0.898  0.2736 -0.0393  0.1041
  186MOL   C12544895   1.966   3.861   0.886  0.0573  0.2557 -0.5333
  186MOL   C12644896   1.978   3.755   0.992  0.1614  0.3997 -0.1940
  186MOL   O12744897   1.955   3.775   1.108  0.6515 -0.0916  0.4669
  186MOL   H12844898   1.866   4.008   1.004 -2.4887  0.9844 -0.1093
  186MOL   H12944899   1.701   3.848   0.988 -0.8299 -0.5929 -0.4763
  186MOL   H13044900   1.696   3.851   0.808  1.6399 -1.5044  0.6384
  186MOL   H13144901   1.650   3.992   0.901  1.1478  0.7589 -1.5768
  186MOL   H13244902   2.061   3.914   0.888 -0.0824  0.5070 -0.5125
  186MOL   H13344903   1.973   3.809   0.791 -0.0101  1.4091 -1.1803
  186MOL   O13444904   2.043   3.642   0.961 -0.3913 -0.0610 -0.2571
  186MOL   C13544905   2.061   3.536   1.062  0.4235 -0.4507  0.2797
  186MOL   C13644906   1.925   3.467   1.083 -0.4861 -0.0922 -1.3369
  186MOL   C13744907   2.172   3.444   0.999  0.6274  0.1138 -0.1543
  186MOL   C13844908   2.312   3.506   1.016 -0.0739  0.5895  0.4169
  186MOL   O13944909   2.410   3.431   1.022 -0.1254 -0.3021 -0.1824
  186MOL   H14044910   2.106   3.582   1.150  0.0378 -0.9830  0.7620
  186MOL   H14144911   1.865   3.449   0.994  0.1980  0.5862 -1.9483
  186MOL   H14244912   1.863   3.525   1.152  0.1911  1.3491 -1.9119
  186MOL   H14344913   1.938   3.375   1.140  1.3676  0.6170 -0.5828
  186MOL   H14444914   2.151   3.429   0.894 -2.7506  1.8871  0.2115
  186MOL   H14544915   2.153   3.354   1.059 -1.8576  0.6553 -0.0677
  186MOL   O14644916   2.311   3.642   1.034 -0.1460  0.1831  0.3609
  186MOL   C14744917   2.420   3.719   1.048  0.1028 -0.1505 -0.5216
  186MOL   C14844918   2.366   3.859   1.027 -0.0779 -0.0764 -0.0831
  186MOL   C14944919   2.495   3.689   1.186  0.1484 -0.7377  0.3483
  186MOL   C15044920   2.418   3.734   1.308 -0.2369 -0.4559  0.3280
  186MOL   O15144921   2.472   3.805   1.393 -0.2466 -0.3597 -0.5420
  186MOL   H15244922   2.484   3.699   0.962  0.3262 -1.5341 -0.0364
  186MOL   H15344923   2.314   3.879   0.934 -0.9600  0.8514  0.5976
  186MOL   H15444924   2.440   3.940   1.028 -0.3966  0.2237  1.1942
  186MOL   H15544925   2.304   3.898   1.108 -0.1769 -0.7470  0.1671
  186MOL   H15644926   2.598   3.726   1.185  0.0746 -0.4016 -3.1902
  186MOL   H15744927   2.513   3.585   1.212  0.2544 -0.8016  0.0239
  186MOL   O15844928   2.288   3.688   1.314  0.3584  0.4352  0.1267
  186MOL   C15944929   2.201   3.741   1.423 -0.1240 -0.1948  0.3803
  186MOL   C16044930   2.147   3.879   1.391 -0.2602  0.2322 -0.4760
  186MOL   C16144931   2.101   3.630   1.459 -0.4569 -1.1170 -0.0691
  186MOL   C16244932   2.029   3.649   1.593  0.0363 -0.0064  0.5034
  186MOL   O16344933   1.905   3.656   1.592 -0.1721  0.7904  0.3371
  186MOL   H16444934   2.268   3.747   1.508 -0.8214 -0.6648  0.9702
  186MOL   H16544935   2.061   3.870   1.325 -2.1085  1.1128  1.7261
  186MOL   H16644936   2.226   3.947   1.360 -2.5974  3.4335  0.3231
  186MOL   H16744937   2.118   3.907   1.492  1.2183  1.9926 -0.5140
  186MOL   H16844938   2.160   3.539   1.471  1.7238  0.1393 -0.9829
  186MOL   H16944939   2.022   3.612   1.386 -1.7772 -0.6739  1.2348
  186MOL   O17044940   2.114   3.659   1.703 -0.0364  0.3432 -0.1106
  186MOL   C17144941   2.066   3.688   1.835 -0.6828 -0.5024  0.5408
  186MOL   C17244942   2.019   3.555   1.888 -0.2832 -0.4517  0.0623
  186MOL   C17344943   2.174   3.757   1.925 -0.1971 -0.3493 -0.1238
  186MOL   C17444944   2.151   3.911   1.937  0.1076 -0.1855 -0.3763
  186MOL   O17544945   2.143   3.963   2.046 -0.1296  0.5964 -0.2546
  186MOL   H17644946   1.976   3.748   1.825 -0.2781  0.3987  2.1100
  186MOL   H17744947   1.915   3.539   1.861 -0.7378  0.6048  1.1359
  186MOL   H17844948   2.028   3.544   1.996 -1.1515 -0.3013  0.1567
  186MOL   H17944949   2.086   3.475   1.857 -0.4237 -0.2986 -0.6500
  186MOL   H18044950   2.270   3.737   1.877 -0.7750 -1.0041 -1.0192
  186MOL   H18144951   2.180   3.709   2.023  0.3237 -1.1603 -0.5479
  186MOL   O18244952   2.182   3.964   1.821 -0.0900 -0.4463 -0.1200
  186MOL   C18344953   2.190   4.103   1.791  0.1375 -0.1272 -0.1061
  186MOL   C18444954   2.320   4.110   1.717 -0.4540  0.1963  0.5062
  186MOL   C18544955   2.065   4.152   1.722  0.5668  0.3892  0.2808
  186MOL   C18644956   2.054   4.304   1.701  0.0724 -0.1084 -0.6820
  186MOL   O18744957   2.097   4.382   1.785  0.5964  0.3135  0.1848
  186MOL   H18844958   2.204   4.160   1.883 -0.5021  0.3490 -0.2938
  186MOL   H18944959   2.402   4.072   1.779 -1.9370 -0.5441  2.0686
  186MOL   H19044960   2.346   4.211   1.688  2.4649 -0.8667 -0.7853
  186MOL   H19144961   2.321   4.041   1.633  3.0814  0.4912  0.2596
  186MOL   H19244962   1.974   4.134   1.779 -0.1748  1.6799 -0.4621
  186MOL   H19344963   2.057   4.090   1.633  0.9774  1.6350 -0.6407
  186MOL   O19444964   1.989   4.334   1.578  0.1141  0.0719 -0.5848
  186MOL   C19544965   1.948   4.462   1.539  0.0544 -0.6896 -0.1619
  186MOL   C19644966   1.929   4.467   1.376  0.0147  0.3424 -0.5120
  186MOL   C19744967   1.818   4.494   1.615 -0.6987  0.4782  0.9418
  186MOL   C19844968   1.831   4.561   1.753  0.2932  0.1338 -0.4735
  186MOL   O19944969   1.772   4.509   1.847  0.3599  0.5398 -0.1658
  186MOL   H20044970   2.021   4.534   1.575  0.7174 -0.9657 -0.9620
  186MOL   H20144971   2.028   4.473   1.329 -0.9974  4.9902 -2.2687
  186MOL   H20244972   1.888   4.566   1.356 -2.0018 -0.3957 -0.1054
  186MOL   H20344973   1.856   4.393   1.341 -0.0345  0.5527 -0.8601
  186MOL   H20444974   1.763   4.401   1.629 -1.8335  0.7686 -1.3205
  186MOL   H20544975   1.761   4.570   1.561  0.8703  0.0488 -1.3869
  186MOL   O20644976   1.886   4.681   1.752 -0.0805  0.0007  0.5618
  186MOL   C20744977   1.887   4.773   1.862  0.0049 -0.3877  0.2365
  186MOL   C20844978   2.023   4.821   1.907  0.4635 -0.5002  0.1469
  186MOL   C20944979   1.800   4.891   1.808  0.1343 -0.0615  0.1446
  186MOL   C21044980   1.709   4.942   1.923 -0.2550 -0.0814 -0.3497
  186MOL   O21144981   1.592   4.911   1.922 -0.7020  0.3771  0.3692
  186MOL   H21244982   1.851   4.713   1.946  1.4576 -0.0303  1.1282
  186MOL   H21344983   2.075   4.865   1.822  2.2024  0.6298  1.7502
  186MOL   H21444984   2.094   4.744   1.939  0.0879 -0.3125  1.4815
  186MOL   H21544985   2.008   4.893   1.988 -1.7094  0.6716 -1.2492
  186MOL   H21644986   1.738   4.862   1.722  2.2514  1.4375 -1.9592
  186MOL   H21744987   1.868   4.968   1.771  0.3548 -0.0104  0.6531
  186MOL   O21844988   1.766   5.012   2.020  0.2626  1.0231 -0.4802
  186MOL   C21944989   1.716   5.033   2.151 -0.1490 -0.3279 -0.5599
  186MOL   C22044990   1.804   4.958   2.254  0.0231 -0.0650  0.1959
  186MOL   C22144991   1.705   5.193   2.174  0.0043  0.5594 -0.2854
  186MOL   C22244992   1.609   5.253   2.072  0.4746  0.3952 -0.4312
  186MOL   O22344993   1.648   5.321   1.979  0.5267  0.3630 -0.1989
  186MOL   H22444994   1.615   4.990   2.152 -1.0219  1.6453  2.0670
  186MOL   H22544995   1.808   4.854   2.221  0.4724  0.4650 -1.4791
  186MOL   H22644996   1.756   4.957   2.351  0.6375  0.1291  0.5052
  186MOL   H22744997   1.907   4.994   2.259  0.5398 -1.1492 -1.9135
  186MOL   H22844998   1.804   5.239   2.173  0.1784  0.2872  2.2055
  186MOL   H22944999   1.665   5.215   2.273  0.5501 -2.2375  0.5967
  186MOL   O23045000   1.480   5.220   2.101 -0.3412 -0.1480 -0.2588
  186MOL   C23145001   1.373   5.274   2.023  0.0236  0.3097 -0.8396
  186MOL   C23245002   1.309   5.158   1.938 -0.2325 -0.7554  0.3292
  186MOL   C23345003   1.277   5.354   2.113 -0.5679  0.3144 -0.2555
  186MOL   C23445004   1.181   5.434   2.036 -0.2944  0.0015 -0.3679
  186MOL   O23545005   1.062   5.404   2.022  0.1055  0.0338 -0.3341
  186MOL   H23645006   1.430   5.340   1.958  1.0589  2.1370  1.8730
  186MOL   H23745007   1.381   5.102   1.879 -0.7522 -0.1855 -0.8750
  186MOL   H23845008   1.245   5.214   1.869  0.3110  0.5302  0.8552
  186MOL   H23945009   1.248   5.093   2.001 -2.6581 -0.4590 -1.6297
  186MOL   H24045010   1.353   5.419   2.156 -0.2536  1.2742 -2.2053
  186MOL   H24145011   1.224   5.285   2.179 -0.2667  1.5767  1.3250
  186MOL   H24245012   1.218   5.530   1.999 -1.1717 -0.7225 -3.2482
  187MOL     O145013   4.201   2.494   6.269 -0.0684 -0.6410 -0.4903
  187MOL     C245014   4.193   2.489   6.410  0.4239  0.2373 -0.8415
  187MOL     C345015   4.244   2.355   6.446  0.7875  0.4983  0.5534
  187MOL     C445016   4.280   2.595   6.470 -0.0637 -0.2594  0.4132
  187MOL     C545017   4.255   2.609   6.627  0.0095  0.0083  0.0990
  187MOL     O645018   4.185   2.694   6.667  0.4734 -0.2411  0.3999
  187MOL     H745019   4.095   2.504   6.456  0.6198 -2.0978  0.4077
  187MOL     H845020   4.201   2.285   6.374 -1.8129  2.1679  0.4240
  187MOL     H945021   4.205   2.317   6.540  1.0319 -1.4353 -0.0882
  187MOL    H1045022   4.352   2.345   6.439  0.6622 -0.3592 -0.3466
  187MOL    H1145023   4.245   2.690   6.430  1.5138  1.0730  2.0903
  187MOL    H1245024   4.387   2.581   6.454  0.1384  0.6522  0.9244
  187MOL    H1345025   4.162   2.569   6.228  2.0162  0.5941 -0.2600
  187MOL    O1445026   4.313   2.511   6.707 -0.3442 -0.0113  0.4104
  187MOL    C1545027   4.314   2.519   6.853 -0.3426  0.2815 -0.2925
  187MOL    C1645028   4.425   2.604   6.895  0.2822  0.6876  0.6905
  187MOL    C1745029   4.187   2.557   6.935 -0.0170 -0.0744 -0.0863
  187MOL    C1845030   4.075   2.454   6.913  0.3758  0.0501  0.5604
  187MOL    O1945031   3.956   2.486   6.925  0.0835 -0.3037 -0.0589
  187MOL    H2045032   4.349   2.420   6.882 -3.5153 -0.4004  1.5465
  187MOL    H2145033   4.521   2.558   6.871  0.8780  2.2740 -0.0594
  187MOL    H2245034   4.420   2.620   7.002 -2.4240  0.4795  0.6205
  187MOL    H2345035   4.410   2.702   6.848  1.2208 -1.2244 -3.8809
  187MOL    H2445036   4.138   2.649   6.902 -0.4406 -0.4646 -0.5640
  187MOL    H2545037   4.201   2.570   7.042 -2.7519  0.9066  0.1904
  187MOL    O2645038   4.121   2.329   6.886  0.2295  0.1374 -0.3415
  187MOL    C2745039   4.034   2.213   6.875 -0.6746  0.0665  0.1757
  187MOL    C2845040   3.974   2.190   6.737 -0.5707 -0.7029 -0.0319
  187MOL    C2945041   4.119   2.094   6.919  0.6561  0.1378  0.3989
  187MOL    C3045042   4.134   2.074   7.070  0.5722 -0.4063  0.5987
  187MOL    O3145043   4.071   2.134   7.154 -0.6665 -0.1939  0.0901
  187MOL    H3245044   3.953   2.235   6.945  0.7030 -0.5720  2.0131
  187MOL    H3345045   4.051   2.155   6.669 -1.2421 -1.3862 -0.4485
  187MOL    H3445046   3.920   2.274   6.694  0.6011 -0.3950 -0.9230
  187MOL    H3545047   3.911   2.101   6.743 -0.6688 -0.6152  0.2645
  187MOL    H3645048   4.215   2.100   6.867  0.4784  1.4719  0.2290
  187MOL    H3745049   4.078   1.999   6.883 -0.1003  0.3283  0.7597
  187MOL    O3845050   4.237   1.983   7.083 -0.1871  0.1504  0.4884
  187MOL    C3945051   4.288   1.958   7.217 -0.3667 -0.5321 -0.7325
  187MOL    C4045052   4.344   1.815   7.223 -0.6657 -0.5800  0.5196
  187MOL    C4145053   4.383   2.073   7.259  0.2483 -0.1433 -0.3834
  187MOL    C4245054   4.510   2.090   7.185 -0.1952  0.0243  0.4970
  187MOL    O4345055   4.544   2.024   7.089 -0.3020 -0.1837  0.2625
  187MOL    H4445056   4.207   1.947   7.288  2.4542 -0.8051  2.5512
  187MOL    H4545057   4.435   1.801   7.165 -0.2765  2.8150  0.2198
  187MOL    H4645058   4.281   1.742   7.173 -0.5710  0.2975 -0.9179
  187MOL    H4745059   4.363   1.792   7.328  3.2749 -0.5033 -0.1222
  187MOL    H4845060   4.411   2.061   7.364  0.5230 -0.7116 -0.5158
  187MOL    H4945061   4.327   2.166   7.255 -0.4024 -0.5591 -0.9147
  187MOL    O5045062   4.588   2.174   7.243 -0.2320 -0.1737 -0.1891
  187MOL    C5145063   4.705   2.228   7.170  0.3870  0.4428 -0.5220
  187MOL    C5245064   4.641   2.348   7.088 -0.2764  0.3561  0.2902
  187MOL    C5345065   4.804   2.289   7.277  0.4174  0.0109  0.2796
  187MOL    C5445066   4.938   2.326   7.217 -0.2011  0.5585 -0.0576
  187MOL    O5545067   4.986   2.282   7.113 -0.3759  0.4649 -0.1146
  187MOL    H5645068   4.749   2.146   7.112  1.4477  0.7549 -0.1608
  187MOL    H5745069   4.604   2.421   7.160  1.7694  2.2787 -0.5491
  187MOL    H5845070   4.561   2.319   7.020 -2.3610 -1.1704  3.3086
  187MOL    H5945071   4.722   2.381   7.023  1.7930  0.7900  2.9811
  187MOL    H6045072   4.825   2.221   7.360 -0.7037 -0.5323  0.1347
  187MOL    H6145073   4.761   2.374   7.331 -1.7059 -2.4037  2.5420
  187MOL    O6245074   5.008   2.417   7.294  0.4847 -0.3713 -0.1429
  187MOL    C6345075   5.137   2.465   7.261 -0.1955 -0.2531 -0.2753
  187MOL    C6445076   5.147   2.593   7.337 -0.6704 -0.2142 -1.2143
  187MOL    C6545077   5.236   2.357   7.301  0.6145  0.4438  0.2471
  187MOL    C6645078   5.387   2.388   7.292  0.1026  0.5924  0.1182
  187MOL    O6745079   5.425   2.500   7.258  0.4897 -0.2860  0.4852
  187MOL    H6845080   5.153   2.483   7.155 -0.7893 -0.2213 -0.3607
  187MOL    H6945081   5.132   2.576   7.443 -0.7140  1.6335 -0.9206
  187MOL    H7045082   5.079   2.677   7.323 -0.4473 -0.1846 -2.1877
  187MOL    H7145083   5.245   2.635   7.314  0.3747 -0.9170  1.6718
  187MOL    H7245084   5.230   2.277   7.228 -1.0183 -0.7524  1.6627
  187MOL    H7345085   5.214   2.320   7.401  0.9688 -0.6593 -0.0752
  187MOL    O7445086   5.457   2.280   7.314  0.5608 -0.0359  0.2158
  187MOL    C7545087   5.596   2.274   7.303 -0.3434 -0.8500  0.3050
  187MOL    C7645088   5.651   2.202   7.427  0.6102  0.1664 -0.3939
  187MOL    C7745089   5.634   2.199   7.172 -0.1080  1.1428  0.4746
  187MOL    C7845090   5.637   2.269   7.044 -0.2362 -0.4323  0.3824
  187MOL    O7945091   5.570   2.224   6.945 -0.4424 -0.2864 -0.4695
  187MOL    H8045092   5.632   2.377   7.295 -0.1794 -0.8648  0.8167
  187MOL    H8145093   5.637   2.094   7.414  0.6053  0.2776 -1.3294
  187MOL    H8245094   5.621   2.240   7.524 -1.0185 -1.7705 -0.1035
  187MOL    H8345095   5.757   2.228   7.421  0.1304  2.3220  0.2931
  187MOL    H8445096   5.570   2.111   7.166  0.6677  0.6767 -1.3378
  187MOL    H8545097   5.734   2.158   7.185 -0.6671 -0.0393  1.2046
  187MOL    O8645098   5.708   2.378   7.040  0.2813  0.1104 -0.3454
  187MOL    C8745099   5.699   2.470   6.928  0.6428 -0.3176 -0.0766
  187MOL    C8845100   5.694   2.611   6.982  0.3822  0.5575  0.5488
  187MOL    C8945101   5.817   2.452   6.836  0.0682  0.1809  0.4330
  187MOL    C9045102   5.800   2.535   6.707  0.1886 -0.0820 -0.0630
  187MOL    O9145103   5.864   2.635   6.682  0.3162 -0.4306  0.0293
  187MOL    H9245104   5.604   2.453   6.876 -0.4420 -2.0314  2.3849
  187MOL    H9345105   5.785   2.640   7.035  0.1331 -0.5898  1.6286
  187MOL    H9445106   5.625   2.625   7.065 -1.1315  0.7878 -0.7314
  187MOL    H9545107   5.674   2.689   6.910  0.9560 -0.4448 -0.7315
  187MOL    H9645108   5.819   2.351   6.796  1.9644  1.0035 -1.7026
  187MOL    H9745109   5.919   2.467   6.874 -0.7991  2.4984  1.9537
  187MOL    O9845110   5.701   2.486   6.627  0.4611  0.0984 -0.4971
  187MOL    C9945111   5.644   2.564   6.522 -0.5419  0.2132 -0.3371
  187MOL   C10045112   5.605   2.465   6.407  0.0745 -0.2517 -0.1397
  187MOL   C10145113   5.526   2.658   6.560 -0.4668  1.0717  0.1460
  187MOL   C10245114   5.393   2.586   6.591 -0.0716  0.3561  0.6698
  187MOL   O10345115   5.289   2.632   6.555  0.0820  0.3979 -0.7500
  187MOL   H10445116   5.728   2.623   6.486 -0.9044  0.7099 -0.3818
  187MOL   H10545117   5.690   2.402   6.381 -0.4167 -1.5184  1.2772
  187MOL   H10645118   5.576   2.511   6.312 -0.9395 -0.7642 -0.0845
  187MOL   H10745119   5.529   2.393   6.435  0.3948 -0.7808 -0.6329
  187MOL   H10845120   5.501   2.721   6.474 -2.3968  0.4987  0.2530
  187MOL   H10945121   5.556   2.721   6.644  0.4176  0.7601  0.0623
  187MOL   O11045122   5.401   2.482   6.672  0.0428 -0.1529  0.8690
  187MOL   C11145123   5.294   2.402   6.708  0.4861  0.3552  0.1371
  187MOL   C11245124   5.316   2.258   6.646  0.4837 -0.0361 -0.5442
  187MOL   C11345125   5.269   2.411   6.860  0.0992 -0.0378 -0.1675
  187MOL   C11445126   5.215   2.544   6.905 -0.3915 -0.5809  0.3751
  187MOL   O11545127   5.098   2.574   6.899  0.5248  0.5499  0.3226
  187MOL   H11645128   5.210   2.448   6.656  0.5742  0.0146 -0.3102
  187MOL   H11745129   5.243   2.189   6.686  1.0235 -0.2367  0.1135
  187MOL   H11845130   5.417   2.217   6.654 -0.1170 -0.9980  2.9397
  187MOL   H11945131   5.301   2.268   6.538  0.4122  3.7130 -0.2599
  187MOL   H12045132   5.371   2.402   6.898  0.0682  1.5204  0.2937
  187MOL   H12145133   5.206   2.334   6.904  2.6331 -0.5790  2.6510
  187MOL   O12245134   5.302   2.622   6.970 -0.8201 -0.1947  0.0781
  187MOL   C12345135   5.281   2.767   6.963  0.2590 -0.4016 -0.5732
  187MOL   C12445136   5.358   2.826   7.087 -0.0226 -0.3019 -0.5544
  187MOL   C12545137   5.334   2.828   6.831 -0.0414  0.3862  0.3090
  187MOL   C12645138   5.296   2.973   6.815  0.9635 -0.1307 -0.5539
  187MOL   O12745139   5.382   3.058   6.798 -0.2845 -0.3537  0.2401
  187MOL   H12845140   5.177   2.797   6.976  0.6991 -0.3642  3.2553
  187MOL   H12945141   5.340   2.933   7.095  2.2740  0.0045  0.8277
  187MOL   H13045142   5.463   2.806   7.068  0.7722  1.9603  1.2809
  187MOL   H13145143   5.322   2.775   7.176  1.2374 -2.9928 -1.5058
  187MOL   H13245144   5.285   2.766   6.756  0.2998  1.4098 -0.7954
  187MOL   H13345145   5.441   2.812   6.819  0.6339  2.6218  2.8913
  187MOL   O13445146   5.164   2.996   6.823  0.6622 -0.5635  0.6787
  187MOL   C13545147   5.105   3.118   6.795 -0.2504 -0.2905  0.3808
  187MOL   C13645148   4.958   3.087   6.772  0.1538 -0.7942  0.4164
  187MOL   C13745149   5.118   3.230   6.907 -0.2119  0.5048  0.5522
  187MOL   C13845150   5.092   3.375   6.877 -0.0549  0.2189  0.8827
  187MOL   O13945151   5.045   3.407   6.767  0.0186 -0.4187  0.0366
  187MOL   H14045152   5.149   3.156   6.703  0.3535 -1.7778  0.0472
  187MOL   H14145153   4.920   3.038   6.862  0.6207 -0.5030  0.7713
  187MOL   H14245154   4.943   3.030   6.680  0.1339  1.7175 -1.1908
  187MOL   H14345155   4.896   3.176   6.763  0.3124 -0.4777  2.3948
  187MOL   H14445156   5.211   3.224   6.965 -0.1270 -0.9663  0.2768
  187MOL   H14545157   5.040   3.224   6.982  0.3247 -0.5073  1.0393
  187MOL   O14645158   5.129   3.457   6.978 -0.7592 -0.3247  0.2539
  187MOL   C14745159   5.134   3.602   6.955 -0.6164  0.0245  0.0870
  187MOL   C14845160   4.993   3.655   6.964 -0.4464 -0.3870 -0.2737
  187MOL   C14945161   5.230   3.666   7.054  0.2879  0.2177  0.0364
  187MOL   C15045162   5.280   3.799   7.006 -0.1150  0.0766  0.2254
  187MOL   O15145163   5.249   3.852   6.904  0.3006  0.3192 -0.2579
  187MOL   H15245164   5.174   3.602   6.853 -0.9606  0.1534 -0.0510
  187MOL   H15345165   4.970   3.672   7.069  1.2447  3.3929 -0.4217
  187MOL   H15445166   4.919   3.587   6.922  1.3776 -1.4225 -1.9181
  187MOL   H15545167   4.974   3.752   6.919 -0.0279 -0.3620 -0.4010
  187MOL   H15645168   5.313   3.596   7.069 -1.8169 -2.0738  1.3643
  187MOL   H15745169   5.185   3.675   7.153  1.4737 -3.4849  0.9897
  187MOL   O15845170   5.367   3.854   7.096  0.1256  0.2864 -0.0681
  187MOL   C15945171   5.402   3.987   7.079  0.2177 -0.4669 -0.4964
  187MOL   C16045172   5.435   4.044   7.221  0.1776 -0.5787  0.0050
  187MOL   C16145173   5.516   4.011   6.971  0.0861 -0.9693 -0.0501
  187MOL   C16245174   5.552   4.158   6.952  0.6913  0.4363  0.3096
  187MOL   O16345175   5.650   4.208   7.002  0.0914  0.1891  0.1520
  187MOL   H16445176   5.317   4.043   7.040  0.6433  0.6822  0.1843
  187MOL   H16545177   5.509   3.982   7.271  0.0052 -1.2245 -0.5266
  187MOL   H16645178   5.350   4.009   7.279  0.4204 -1.3222 -0.0883
  187MOL   H16745179   5.463   4.148   7.235 -1.4724 -0.0758 -0.2676
  187MOL   H16845180   5.482   3.957   6.883 -0.0063 -0.6160 -0.2317
  187MOL   H16945181   5.599   3.952   7.012 -1.3858 -2.5515  0.6874
  187MOL   O17045182   5.472   4.213   6.875 -0.0148 -0.2920  0.0241
  187MOL   C17145183   5.498   4.338   6.811 -0.5741  0.0195  0.0261
  187MOL   C17245184   5.566   4.302   6.680  0.1022 -0.6641  0.6911
  187MOL   C17345185   5.377   4.431   6.782 -0.0876 -0.0427 -0.6785
  187MOL   C17445186   5.405   4.585   6.799  0.0112 -0.3852 -0.0688
  187MOL   O17545187   5.355   4.649   6.892 -0.0402  0.0804  0.0718
  187MOL   H17645188   5.571   4.395   6.869 -0.3357 -1.2970  1.0293
  187MOL   H17745189   5.504   4.236   6.620 -0.7592 -1.0075  1.9568
  187MOL   H17845190   5.662   4.256   6.705  1.8750  3.5508  2.1058
  187MOL   H17945191   5.598   4.387   6.620  1.0437 -1.3221  0.2513
  187MOL   H18045192   5.295   4.407   6.849 -0.3172  0.9511 -0.6003
  187MOL   H18145193   5.336   4.419   6.682  2.6864  1.5214 -2.0634
  187MOL   O18245194   5.474   4.634   6.697  0.1009  0.0992 -0.1410
  187MOL   C18345195   5.497   4.779   6.687  0.3358 -0.1978 -0.1215
  187MOL   C18445196   5.613   4.814   6.786 -0.8056  0.3857  0.7244
  187MOL   C18545197   5.520   4.821   6.543 -0.3729 -0.3544 -0.3039
  187MOL   C18645198   5.644   4.768   6.478 -0.3190  0.3954 -0.5900
  187MOL   O18745199   5.755   4.802   6.516 -0.7881  0.1194 -0.1896
  187MOL   H18845200   5.401   4.820   6.721  0.6853  1.4072 -1.0505
  187MOL   H18945201   5.619   4.921   6.807  0.0992  0.4849 -0.0158
  187MOL   H19045202   5.708   4.762   6.775 -1.1854 -0.5172  1.5770
  187MOL   H19145203   5.589   4.784   6.888  2.5641 -3.6023  0.4823
  187MOL   H19245204   5.515   4.930   6.541  1.0191 -0.2663  0.3776
  187MOL   H19345205   5.437   4.793   6.478  0.1273  1.9134 -1.9768
  187MOL   O19445206   5.621   4.677   6.386  0.1012 -0.0367 -0.0255
  187MOL   C19545207   5.727   4.618   6.312  0.5412 -0.6107  0.5854
  187MOL   C19645208   5.763   4.482   6.360 -0.4943  0.2826 -0.2146
  187MOL   C19745209   5.677   4.619   6.159  0.1769 -0.4536 -0.2438
  187MOL   C19845210   5.709   4.737   6.078  1.3168 -0.4132  0.5945
  187MOL   O19945211   5.781   4.829   6.123 -0.4150  0.3077 -0.6121
  187MOL   H20045212   5.814   4.684   6.321  0.4597 -0.6669  1.8057
  187MOL   H20145213   5.842   4.432   6.304  0.2121  1.8492 -0.6354
  187MOL   H20245214   5.675   4.418   6.367 -0.5031 -0.0358 -2.8621
  187MOL   H20345215   5.802   4.494   6.461  1.2222 -3.2411 -0.3418
  187MOL   H20445216   5.572   4.597   6.142  0.4204 -1.1375 -0.8838
  187MOL   H20545217   5.729   4.536   6.110 -0.9938 -1.6643  0.5079
  187MOL   O20645218   5.648   4.728   5.955  0.1908  0.0232  0.1323
  187MOL   C20745219   5.691   4.798   5.846 -0.3101  0.2051  0.5832
  187MOL   C20845220   5.685   4.714   5.718  0.1208  0.0917 -0.3427
  187MOL   C20945221   5.599   4.926   5.828  0.4414  0.0234  0.5196
  187MOL   C21045222   5.624   5.032   5.718  0.0781  0.6151  0.2389
  187MOL   O21145223   5.531   5.091   5.667  0.2002 -0.3040  0.1340
  187MOL   H21245224   5.794   4.828   5.866  1.2697 -3.9536 -0.8163
  187MOL   H21345225   5.590   4.660   5.716 -0.1754  0.6418 -2.4666
  187MOL   H21445226   5.769   4.645   5.719  0.6005  0.6799  0.7618
  187MOL   H21545227   5.692   4.778   5.630  1.3081  1.4217  0.7003
  187MOL   H21645228   5.608   4.987   5.918 -0.0754  1.5087 -0.4109
  187MOL   H21745229   5.496   4.894   5.813 -0.1875  1.8332  0.9002
  187MOL   O21845230   5.753   5.043   5.686  0.1101 -0.4732  0.6294
  187MOL   C21945231   5.796   5.127   5.583 -0.4795  0.0897  0.4745
  187MOL   C22045232   5.809   5.270   5.635 -0.2104  0.2628 -0.0273
  187MOL   C22145233   5.923   5.069   5.520 -0.4797 -0.3761 -0.2601
  187MOL   C22245234   5.895   4.962   5.410  0.7040 -0.8468  0.5719
  187MOL   O22345235   5.847   4.994   5.302 -0.3323 -0.0963  0.4496
  187MOL   H22445236   5.716   5.134   5.509 -0.8875  0.7683  0.9708
  187MOL   H22545237   5.875   5.268   5.721  0.9380 -1.6154 -0.9275
  187MOL   H22645238   5.714   5.310   5.671  0.5075  0.9438  1.1217
  187MOL   H22745239   5.855   5.332   5.557 -2.7320  1.3772 -0.6877
  187MOL   H22845240   5.993   5.034   5.595 -0.7627 -3.9727 -1.5812
  187MOL   H22945241   5.976   5.149   5.468 -1.7265  2.0664  2.1063
  187MOL   O23045242   5.931   4.842   5.445  0.7201 -0.6786  0.5853
  187MOL   C23145243   5.929   4.737   5.347  0.0220  0.5544  0.1095
  187MOL   C23245244   6.043   4.747   5.250 -0.5132 -0.4284  0.4883
  187MOL   C23345245   5.916   4.601   5.417 -0.0872 -0.7656 -0.0575
  187MOL   C23445246   6.028   4.556   5.504  0.3942 -0.6123 -0.0426
  187MOL   O23545247   6.112   4.475   5.461 -0.4434 -0.1986 -0.1119
  187MOL   H23645248   5.840   4.740   5.284 -0.2947 -0.5592  0.4918
  187MOL   H23745249   6.037   4.832   5.181 -1.2345  0.4057  1.5656
  187MOL   H23845250   6.046   4.657   5.188 -0.0640 -1.8523  2.5389
  187MOL   H23945251   6.135   4.749   5.309  0.3255  0.6121 -0.8212
  187MOL   H24045252   5.909   4.516   5.350 -1.6291 -1.1916  0.6123
  187MOL   H24145253   5.823   4.590   5.473 -0.3716  2.3400  0.1655
  187MOL   H24245254   6.038   4.613   5.596 -2.3120  0.7241 -0.4988
  188MOL     O145255   7.042   1.193   0.495 -0.2118 -0.1270  0.2606
  188MOL     C245256   7.144   1.237   0.582  0.2115 -0.6127  0.3124
  188MOL     C345257   7.242   1.120   0.621  0.0034 -0.3315  0.2521
  188MOL     C445258   7.207   1.357   0.520 -0.0117  0.3326 -0.2133
  188MOL     C545259   7.292   1.431   0.625 -0.2609  0.6536 -0.4686
  188MOL     O645260   7.287   1.414   0.748 -0.2225 -0.3095  0.1714
  188MOL     H745261   7.096   1.281   0.669  0.4472  1.7493 -0.7170
  188MOL     H845262   7.302   1.095   0.534 -1.6618  1.5507 -1.4760
  188MOL     H945263   7.188   1.033   0.659  0.9434  0.6984  4.1701
  188MOL    H1045264   7.308   1.150   0.703 -1.2824 -1.0260  1.5772
  188MOL    H1145265   7.128   1.418   0.477 -0.4836 -0.7684 -0.9471
  188MOL    H1245266   7.267   1.316   0.439 -2.0074 -1.7592 -0.6811
  188MOL    H1345267   6.984   1.138   0.546 -0.5933  0.3549  0.3434
  188MOL    O1445268   7.355   1.534   0.563 -0.3435 -0.5612  0.3007
  188MOL    C1545269   7.438   1.620   0.641  0.0848 -0.1014 -0.5967
  188MOL    C1645270   7.580   1.593   0.595  0.3004  0.2031 -0.6277
  188MOL    C1745271   7.402   1.767   0.603 -0.4143  0.2951  0.1173
  188MOL    C1845272   7.446   1.866   0.705 -0.2529 -0.3737 -0.5537
  188MOL    O1945273   7.534   1.958   0.684  0.2085  0.6688  0.5523
  188MOL    H2045274   7.432   1.595   0.747 -0.1391 -0.5262 -0.7074
  188MOL    H2145275   7.599   1.491   0.562 -1.3564 -0.6224  0.8570
  188MOL    H2245276   7.648   1.592   0.681  1.1713 -1.9993 -1.3018
  188MOL    H2345277   7.614   1.668   0.524  1.4925  2.0216  1.7610
  188MOL    H2445278   7.295   1.779   0.587 -0.5609 -1.0697  0.0111
  188MOL    H2545279   7.442   1.786   0.503 -1.4775 -0.7977 -0.5215
  188MOL    O2645280   7.373   1.858   0.814 -0.5947 -0.3499 -0.3928
  188MOL    C2745281   7.394   1.949   0.924 -0.4770 -0.2249  0.6041
  188MOL    C2845282   7.265   1.922   1.013 -0.3206  0.1090  0.2306
  188MOL    C2945283   7.531   1.931   0.994  0.1485  0.2317 -0.1673
  188MOL    C3045284   7.549   1.808   1.076 -0.9250 -0.2614  0.3680
  188MOL    O3145285   7.589   1.812   1.191  0.1130  0.2486  0.3263
  188MOL    H3245286   7.406   2.054   0.896  1.5057 -0.9112 -1.2839
  188MOL    H3345287   7.254   1.977   1.106  0.4802  0.0235  0.3780
  188MOL    H3445288   7.267   1.818   1.044 -1.4154 -0.3375 -1.1776
  188MOL    H3545289   7.174   1.923   0.952 -0.6420  0.3250  0.7150
  188MOL    H3645290   7.539   2.007   1.072  1.5886 -0.1114  0.0274
  188MOL    H3745291   7.623   1.940   0.936 -0.3756  1.1909 -0.8639
  188MOL    O3845292   7.524   1.694   1.004  0.2071 -0.1324  0.1506
  188MOL    C3945293   7.543   1.567   1.067 -0.3661  0.3769 -0.0451
  188MOL    C4045294   7.401   1.524   1.100  0.7178 -0.0311  0.4762
  188MOL    C4145295   7.623   1.479   0.968  0.5138 -0.0553 -0.2848
  188MOL    C4245296   7.652   1.341   1.030  0.0395 -0.8730  0.7646
  188MOL    O4345297   7.605   1.243   0.982  0.0888  0.0138 -0.0526
  188MOL    H4445298   7.596   1.577   1.162 -2.2053  1.8801  0.8512
  188MOL    H4545299   7.334   1.503   1.017 -0.2035  0.7089  1.0232
  188MOL    H4645300   7.356   1.608   1.153  2.4492  0.5061  1.1189
  188MOL    H4745301   7.404   1.430   1.154 -1.6857  0.3123  1.2712
  188MOL    H4845302   7.712   1.533   0.936 -1.0200  1.0783 -2.8523
  188MOL    H4945303   7.559   1.466   0.881  3.1779  1.8041 -2.6108
  188MOL    O5045304   7.740   1.341   1.130 -0.1739 -0.4279  0.0239
  188MOL    C5145305   7.803   1.224   1.175  0.0093  0.6154  0.0882
  188MOL    C5245306   7.908   1.181   1.076  0.7638  0.0523  0.5327
  188MOL    C5345307   7.867   1.246   1.318  0.0564 -0.3915 -0.2629
  188MOL    C5445308   0.007   1.348   1.323 -0.0765 -0.5229 -0.0551
  188MOL    O5545309   0.006   1.457   1.383  0.2384 -0.7344 -0.3811
  188MOL    H5645310   7.726   1.147   1.186 -1.4303  2.0247 -0.1056
  188MOL    H5745311   7.976   1.261   1.045  0.9717  0.3136  1.6540
  188MOL    H5845312   7.850   1.157   0.986  2.4314  0.0167 -0.5670
  188MOL    H5945313   7.975   1.102   1.107  2.7464  0.7319 -1.8152
  188MOL    H6045314   7.892   1.154   1.371 -1.0182 -1.2162 -1.1557
  188MOL    H6145315   7.788   1.298   1.372  0.4765  0.8483 -0.8260
  188MOL    O6245316   0.115   1.298   1.258 -0.0538 -0.0348  0.6719
  188MOL    C6345317   0.239   1.369   1.261  0.0420 -0.2027  0.5620
  188MOL    C6445318   0.309   1.377   1.402  0.2079 -0.4259  0.3114
  188MOL    C6545319   0.331   1.311   1.154 -0.2531 -0.1276  0.3113
  188MOL    C6645320   0.351   1.157   1.163 -0.5638 -1.3312 -0.3405
  188MOL    O6745321   0.265   1.084   1.110  0.3883  0.4401  0.1008
  188MOL    H6845322   0.209   1.471   1.235 -3.1768 -0.6958  2.0462
  188MOL    H6945323   0.337   1.276   1.432  1.5754  0.2210  1.2819
  188MOL    H7045324   0.253   1.426   1.483 -1.4267 -0.4580 -0.7803
  188MOL    H7145325   0.402   1.434   1.401 -0.8265  1.3262  0.8337
  188MOL    H7245326   0.416   1.379   1.151 -2.8119  3.2153  1.3654
  188MOL    H7345327   0.283   1.339   1.060  1.1944 -1.1386 -0.7528
  188MOL    O7445328   0.463   1.117   1.235  0.6250 -0.3319 -0.0002
  188MOL    C7545329   0.507   0.985   1.243  0.4019 -0.1911 -0.1366
  188MOL    C7645330   0.659   0.989   1.225 -0.0550  0.5202  0.6325
  188MOL    C7745331   0.466   0.917   1.378 -0.0263  0.1500 -0.6378
  188MOL    C7845332   0.330   0.874   1.391  0.1363 -0.0699  0.0852
  188MOL    O7945333   0.265   0.907   1.487 -0.3161  0.2214  0.1615
  188MOL    H8045334   0.459   0.920   1.169 -2.7777 -1.9819  3.3375
  188MOL    H8145335   0.705   1.051   1.149 -0.0198  0.1497  0.3516
  188MOL    H8245336   0.699   0.895   1.186 -0.1399  0.2192  1.2551
  188MOL    H8345337   0.712   0.999   1.320  1.6133  0.7612 -0.3096
  188MOL    H8445338   0.493   0.970   1.469  2.2939  0.3514 -1.4174
  188MOL    H8545339   0.516   0.820   1.383 -0.5177 -0.0473  0.6761
  188MOL    O8645340   0.279   0.798   1.284 -0.2619 -0.2971 -0.4710
  188MOL    C8745341   0.147   0.752   1.281 -0.3766  0.2788  0.0296
  188MOL    C8845342   0.057   0.859   1.223 -0.4535 -0.4452 -0.1821
  188MOL    C8945343   0.152   0.609   1.201 -0.0249  0.2513 -0.0302
  188MOL    C9045344   0.028   0.527   1.205 -0.8020 -0.5727 -0.0651
  188MOL    O9145345   7.910   0.561   1.139 -0.0706 -0.0251  0.2065
  188MOL    H9245346   0.114   0.730   1.382  1.1935  0.9431  0.7067
  188MOL    H9345347   7.946   0.817   1.180 -1.6954  0.5256  1.4121
  188MOL    H9445348   0.110   0.905   1.140 -1.6026 -0.3453 -0.8650
  188MOL    H9545349   0.015   0.932   1.292 -1.3819 -0.0200 -1.1934
  188MOL    H9645350   0.225   0.548   1.255  0.3058  2.6215  2.3068
  188MOL    H9745351   0.187   0.628   1.100 -1.2341  0.5149 -0.4086
  188MOL    O9845352   0.047   0.418   1.279  0.3782 -0.1763 -0.0708
  188MOL    C9945353   7.926   0.320   1.301 -0.4668 -0.0773  0.2487
  188MOL   C10045354   0.024   0.194   1.354  0.5008  0.0256  0.0022
  188MOL   C10145355   7.817   0.381   1.401 -0.2822 -0.0894 -0.2658
  188MOL   C10245356   7.866   0.408   1.545 -0.0122  0.0631 -0.3318
  188MOL   O10345357   7.802   0.369   1.646  0.4251 -0.5616 -0.0224
  188MOL   H10445358   7.876   0.273   1.217  0.9755 -2.0305  0.4341
  188MOL   H10545359   7.939   0.109   1.377  1.0121 -0.9521 -2.0733
  188MOL   H10645360   0.089   0.217   1.439  0.0963 -0.6541  0.5086
  188MOL   H10745361   0.081   0.145   1.276 -1.7088  1.4251 -2.5627
  188MOL   H10845362   7.729   0.317   1.405 -0.6224  0.3129 -1.1555
  188MOL   H10945363   7.779   0.476   1.364 -2.2626  0.4791  3.0305
  188MOL   O11045364   0.006   0.478   1.539 -0.0929  0.1935  0.0348
  188MOL   C11145365   0.066   0.518   1.659  0.6080  1.0410  0.7818
  188MOL   C11245366   0.158   0.402   1.711 -0.8521  0.3911 -0.2675
  188MOL   C11345367   0.135   0.658   1.635 -0.1661  0.3911  0.0334
  188MOL   C11445368   0.201   0.717   1.760 -0.1881 -0.1178  0.0409
  188MOL   O11545369   0.137   0.801   1.833  0.0561  0.0300 -0.5850
  188MOL   H11645370   7.956   0.536   1.718 -0.6123 -1.5992 -0.2035
  188MOL   H11745371   0.176   0.416   1.818 -1.3392  0.7510 -0.2304
  188MOL   H11845372   0.250   0.386   1.656 -1.3195 -2.2916 -0.3026
  188MOL   H11945373   0.106   0.307   1.701  3.3997 -2.1404  0.4253
  188MOL   H12045374   0.054   0.724   1.603 -2.2140 -2.7096 -1.4338
  188MOL   H12145375   0.208   0.631   1.559  0.0664 -2.4266  1.1859
  188MOL   O12245376   0.330   0.668   1.795  0.1343  0.8659  0.6418
  188MOL   C12345377   0.375   0.709   1.926 -0.6576  0.1769  0.2205
  188MOL   C12445378   0.358   0.588   2.024 -0.0091 -0.3309  0.8526
  188MOL   C12545379   0.525   0.729   1.888  0.1496  0.7261 -0.1637
  188MOL   C12645380   0.619   0.767   2.010 -0.0359  0.2288  0.3156
  188MOL   O12745381   0.609   0.878   2.073 -0.4486  0.4636 -0.3414
  188MOL   H12845382   0.326   0.799   1.964  0.1877 -0.3262  2.5849
  188MOL   H12945383   0.413   0.612   2.115  0.0847 -1.6853  1.1663
  188MOL   H13045384   0.408   0.495   2.000 -0.5512 -0.3981 -0.0269
  188MOL   H13145385   0.254   0.582   2.058 -0.1725  0.5322  0.5190
  188MOL   H13245386   0.527   0.811   1.817 -3.1540  1.3017  0.3742
  188MOL   H13345387   0.559   0.637   1.841  0.1425  1.8256 -2.3758
  188MOL   O13445388   0.704   0.666   2.036 -0.0276 -0.7141 -0.5155
  188MOL   C13545389   0.816   0.686   2.120  0.2991  0.5863  0.3734
  188MOL   C13645390   0.778   0.630   2.252 -0.6368  0.1014  0.3154
  188MOL   C13745391   0.940   0.640   2.044 -0.8038 -0.1710  0.4551
  188MOL   C13845392   0.952   0.487   2.027  0.1220  0.2212 -0.7423
  188MOL   O13945393   1.055   0.425   2.058 -0.2862  0.1302  0.1397
  188MOL   H14045394   0.841   0.792   2.127  3.0363  0.1187 -1.7961
  188MOL   H14145395   0.705   0.691   2.306 -0.3081  0.5957  0.2015
  188MOL   H14245396   0.866   0.632   2.316 -0.6593 -1.3441  0.4125
  188MOL   H14345397   0.744   0.526   2.251 -1.8859  0.4657  2.3801
  188MOL   H14445398   1.028   0.678   2.096 -0.3692  1.4612 -1.3772
  188MOL   H14545399   0.948   0.682   1.944 -0.4798 -0.4309  0.3705
  188MOL   O14645400   0.833   0.429   1.993 -0.4044 -0.2199  0.0030
  188MOL   C14745401   0.809   0.291   1.968  0.0033 -0.2760 -0.9028
  188MOL   C14845402   0.683   0.245   2.049  0.6772 -0.1962 -0.3817
  188MOL   C14945403   0.805   0.269   1.816 -0.0663  0.2384 -0.4189
  188MOL   C15045404   0.708   0.346   1.732 -1.1007 -1.1787  0.3027
  188MOL   O15145405   0.589   0.351   1.757 -0.0337  0.4752  1.0809
  188MOL   H15245406   0.901   0.241   2.001 -0.4373 -0.4732  0.0374
  188MOL   H15345407   0.692   0.248   2.158  2.2011  0.2043 -0.5062
  188MOL   H15445408   0.643   0.147   2.023  0.4665 -0.2361  0.0930
  188MOL   H15545409   0.610   0.324   2.029  2.5073  1.6566  0.1412
  188MOL   H15645410   0.784   0.163   1.808 -0.2063  0.1843  0.6004
  188MOL   H15745411   0.902   0.286   1.769  0.1626 -1.6643 -0.6608
  188MOL   O15845412   0.769   0.410   1.634 -0.1839  0.2005 -0.3610
  188MOL   C15945413   0.695   0.502   1.544 -0.2613 -0.7136  0.6977
  188MOL   C16045414   0.739   0.645   1.572  0.2927  0.2399  0.5346
  188MOL   C16145415   0.719   0.449   1.401 -0.2126 -0.0781  0.2000
  188MOL   C16245416   0.642   0.512   1.293 -0.4115  0.3519  1.0365
  188MOL   O16345417   0.531   0.564   1.307  0.4948  0.1944 -0.2161
  188MOL   H16445418   0.587   0.492   1.557 -0.7195  1.9703 -0.7946
  188MOL   H16545419   0.741   0.683   1.675  1.1381 -0.3800  0.7502
  188MOL   H16645420   0.696   0.714   1.499 -0.8134  0.1756  1.1140
  188MOL   H16745421   0.846   0.660   1.553 -0.2519  2.8567 -0.7449
  188MOL   H16845422   0.689   0.345   1.408 -0.1253 -0.0617  0.9282
  188MOL   H16945423   0.825   0.441   1.377 -0.4316  0.2324 -0.9034
  188MOL   O17045424   0.719   0.504   1.180 -0.2100 -0.2083  0.8259
  188MOL   C17145425   0.670   0.577   1.063 -0.2362 -0.2709  0.2628
  188MOL   C17245426   0.800   0.632   0.998  0.7115  0.1795 -0.9269
  188MOL   C17345427   0.589   0.471   0.980 -0.5239 -0.6136  0.0621
  188MOL   C17445428   0.441   0.510   0.965  0.0827 -0.1900 -0.3990
  188MOL   O17545429   0.395   0.620   1.004  0.2842  0.2980 -0.3717
  188MOL   H17645430   0.607   0.663   1.085 -1.2362 -0.2666 -2.3734
  188MOL   H17745431   0.876   0.667   1.068  1.4883 -2.4861 -0.3826
  188MOL   H17845432   0.779   0.699   0.915  0.3362 -0.2876 -1.2078
  188MOL   H17945433   0.851   0.550   0.947  2.0404 -1.1221  2.3401
  188MOL   H18045434   0.587   0.373   1.028  0.7507 -1.2480 -1.1603
  188MOL   H18145435   0.635   0.449   0.884 -1.3721  0.8676 -0.7012
  188MOL   O18245436   0.375   0.410   0.905 -0.0566 -0.4044 -1.3079
  188MOL   C18345437   0.242   0.423   0.871  0.6321 -0.3808  0.0267
  188MOL   C18445438   0.235   0.483   0.724 -0.1713 -0.3575  0.3198
  188MOL   C18545439   0.169   0.288   0.906 -0.5896 -0.1719  0.2129
  188MOL   C18645440   0.024   0.289   0.856  0.4843 -0.2650 -0.4349
  188MOL   O18745441   7.918   0.296   0.947  0.0865 -0.1687 -0.0582
  188MOL   H18845442   0.188   0.503   0.922  1.5003 -0.3187  0.8528
  188MOL   H18945443   0.246   0.401   0.653 -0.8431 -1.8813  1.9274
  188MOL   H19045444   0.317   0.545   0.689  0.2463 -1.1480 -0.1022
  188MOL   H19145445   0.137   0.531   0.711 -0.4072 -1.3236 -1.6872
  188MOL   H19245446   0.166   0.265   1.012 -1.9393  0.9368  0.4310
  188MOL   H19345447   0.219   0.204   0.858 -2.0181 -2.6095  2.8759
  188MOL   O19445448   0.009   0.268   0.726  0.0430 -0.0446 -0.0519
  188MOL   C19545449   7.862   0.283   0.664  0.1196 -0.4567  0.4100
  188MOL   C19645450   7.862   0.406   0.582 -0.5384 -0.7858  0.4144
  188MOL   C19745451   7.824   0.151   0.589 -1.1530  0.1715 -0.6291
  188MOL   C19845452   7.684   0.140   0.549  0.6519  0.2638 -0.7323
  188MOL   O19945453   7.646   0.144   0.436  0.0702 -0.1979 -0.0020
  188MOL   H20045454   7.784   0.296   0.738 -0.8750 -1.0987 -0.5054
  188MOL   H20145455   7.886   0.489   0.648 -0.2140 -0.2662 -0.3503
  188MOL   H20245456   7.771   0.424   0.524 -0.3269 -1.3719 -0.1019
  188MOL   H20345457   7.945   0.397   0.512 -2.5777 -2.0813 -1.9455
  188MOL   H20445458   7.839   0.077   0.667 -0.9376 -2.1141 -2.7618
  188MOL   H20545459   7.893   0.132   0.507  0.5263  1.4376  0.4702
  188MOL   O20645460   7.594   0.126   0.651 -0.5874  0.1964 -0.7054
  188MOL   C20745461   7.459   0.131   0.622 -0.4885  0.0491  0.0749
  188MOL   C20845462   7.384   0.061   0.738  0.4229  0.3940 -0.0357
  188MOL   C20945463   7.408   0.268   0.579  0.5234  0.3139 -0.3231
  188MOL   C21045464   7.453   0.386   0.662  0.1328  0.8563  0.3082
  188MOL   O21145465   7.504   0.486   0.606 -0.3220  0.0076  0.2439
  188MOL   H21245466   7.453   0.062   0.538 -1.5051  0.7502 -0.4382
  188MOL   H21345467   7.424   7.942   0.761 -2.3218 -0.9759 -0.8971
  188MOL   H21445468   7.280   0.040   0.712 -0.0138  1.0255  1.1221
  188MOL   H21545469   7.391   0.118   0.831 -1.6630  0.4216  0.1397
  188MOL   H21645470   7.300   0.267   0.562  0.2319  0.7504  1.3697
  188MOL   H21745471   7.454   0.293   0.483  0.9558  2.6029  0.4344
  188MOL   O21845472   7.422   0.377   0.791  0.8257  0.0656  0.4890
  188MOL   C21945473   7.437   0.485   0.880 -0.3235  0.0211 -0.0209
  188MOL   C22045474   7.315   0.503   0.973  0.0504  0.8344  0.0719
  188MOL   C22145475   7.572   0.475   0.962 -0.2067  0.7340  0.2756
  188MOL   C22245476   7.574   0.360   1.066  0.8172 -0.6683 -0.0418
  188MOL   O22345477   7.597   0.381   1.181 -0.3629  0.2101 -0.7819
  188MOL   H22445478   7.446   0.574   0.817  1.6218  0.7627  1.2563
  188MOL   H22545479   7.323   0.593   1.035 -0.4138 -1.4274  3.5692
  188MOL   H22645480   7.294   0.415   1.034 -2.5496 -0.8040 -3.0169
  188MOL   H22745481   7.225   0.506   0.912 -0.5790 -3.6987  0.6062
  188MOL   H22845482   7.587   0.565   1.023  0.0909  0.8105  0.0901
  188MOL   H22945483   7.655   0.472   0.892  0.3289 -0.0274  0.9342
  188MOL   O23045484   7.546   0.234   1.020  0.3769 -0.1267 -0.0769
  188MOL   C23145485   7.536   0.128   1.116 -0.3255  0.1581  0.0992
  188MOL   C23245486   7.387   0.116   1.146 -0.2713 -0.3536  0.1655
  188MOL   C23345487   7.606   0.003   1.055 -0.6849  0.0295 -0.2803
  188MOL   C23445488   7.754   0.009   1.064 -0.2179 -0.0562  0.8728
  188MOL   O23545489   7.823   7.901   1.120 -0.4842 -0.7684 -0.0146
  188MOL   H23645490   7.587   0.152   1.208 -0.9903  0.6044  0.3551
  188MOL   H23745491   7.376   0.022   1.200 -0.9465  0.3995  1.3632
  188MOL   H23845492   7.337   0.109   1.049 -0.8962 -0.4058  0.4895
  188MOL   H23945493   7.353   0.197   1.211 -0.6862  0.6698 -1.2913
  188MOL   H24045494   7.569   7.969   0.954  0.7681 -0.5562 -0.7406
  188MOL   H24145495   7.569   7.894   1.108 -1.9042 -1.3987 -3.4413
  188MOL   H24245496   7.799   0.097   1.017 -0.6162  0.0250  0.6348
  189MOL     O145497   5.462   6.738   3.959  0.4019  0.5322  0.0053
  189MOL     C245498   5.352   6.781   3.873 -0.2950 -0.6337  0.0700
  189MOL     C345499   5.271   6.656   3.831  0.1347  0.2962 -0.4376
  189MOL     C445500   5.269   6.880   3.957 -0.5328  0.6069 -0.1071
  189MOL     C545501   5.140   6.929   3.895 -0.3609 -0.9340 -0.5646
  189MOL     O645502   5.141   7.035   3.824  0.2345 -0.1925  0.0903
  189MOL     H745503   5.391   6.837   3.788  0.2652  0.3986  1.0093
  189MOL     H845504   5.187   6.686   3.767 -0.7468  1.4260  1.1963
  189MOL     H945505   5.226   6.615   3.921  0.1714  0.0552 -0.5294
  189MOL    H1045506   5.332   6.586   3.773  1.4317  0.1729  1.0560
  189MOL    H1145507   5.328   6.965   3.992 -3.2159  1.9671  1.3107
  189MOL    H1245508   5.243   6.838   4.054  0.2388  0.2507 -0.0512
  189MOL    H1345509   5.503   6.665   3.916  1.0350  1.6138 -1.2728
  189MOL    O1445510   5.027   6.859   3.930 -0.8512  0.3767 -0.2817
  189MOL    C1545511   4.910   6.906   3.883  0.4906 -0.3449  0.2746
  189MOL    C1645512   4.867   6.824   3.759  0.2655 -0.5450  0.5796
  189MOL    C1745513   4.806   6.926   3.995 -0.2722  0.2920 -0.0750
  189MOL    C1845514   4.676   6.997   3.936  0.0995  0.8010  0.2297
  189MOL    O1945515   4.562   6.948   3.958  0.3401 -0.0143  0.0609
  189MOL    H2045516   4.911   7.005   3.839  1.2762  0.0742  1.2126
  189MOL    H2145517   4.775   6.858   3.712  1.3586  0.0477 -1.1517
  189MOL    H2245518   4.864   6.717   3.778  1.5966 -0.7408 -0.2591
  189MOL    H2345519   4.939   6.843   3.680  1.4901  1.2437  2.0502
  189MOL    H2445520   4.849   6.993   4.070 -0.3110 -2.0990  2.1325
  189MOL    H2545521   4.796   6.828   4.040 -2.8747  0.5830  0.0457
  189MOL    O2645522   4.696   7.121   3.883 -0.1956  0.5712 -0.0845
  189MOL    C2745523   4.589   7.196   3.825 -1.0111  0.2021 -0.4436
  189MOL    C2845524   4.591   7.344   3.879 -0.5895 -0.0631 -0.7663
  189MOL    C2945525   4.595   7.209   3.668 -0.2890 -0.2064  0.1724
  189MOL    C3045526   4.560   7.081   3.594 -0.5086  0.1357 -0.3449
  189MOL    O3145527   4.619   7.049   3.490  0.2699 -0.1134  0.4113
  189MOL    H3245528   4.491   7.166   3.863  0.1235  0.4181  2.8274
  189MOL    H3345529   4.605   7.419   3.801  0.8223 -0.3676 -0.8174
  189MOL    H3445530   4.678   7.368   3.941 -2.1820 -0.2533  1.6267
  189MOL    H3545531   4.510   7.377   3.944  0.1318 -0.6972  0.4981
  189MOL    H3645532   4.694   7.240   3.635 -0.1198 -1.7939 -0.8726
  189MOL    H3745533   4.532   7.290   3.633  2.0706  0.6461 -2.1748
  189MOL    O3845534   4.448   7.023   3.641  0.7764 -0.0294 -0.8599
  189MOL    C3945535   4.401   6.908   3.583 -0.0389  0.9870  0.2769
  189MOL    C4045536   4.487   6.785   3.623 -0.0673  0.8866 -0.0728
  189MOL    C4145537   4.260   6.885   3.622 -0.0778 -0.2079 -0.8473
  189MOL    C4245538   4.220   6.841   3.761 -0.2237  0.1468  0.0099
  189MOL    O4345539   4.145   6.746   3.775  0.0750  0.4498  0.3336
  189MOL    H4445540   4.399   6.917   3.474  0.7761 -0.7870  0.0916
  189MOL    H4545541   4.499   6.785   3.732  1.0132 -0.5315 -0.1816
  189MOL    H4645542   4.592   6.780   3.596 -0.4824  3.3106 -2.3109
  189MOL    H4745543   4.432   6.699   3.586  0.0336  0.3279  1.0551
  189MOL    H4845544   4.214   6.803   3.568 -0.8157  0.8132 -1.7965
  189MOL    H4945545   4.213   6.982   3.608  1.4663  0.3693 -2.2749
  189MOL    O5045546   4.264   6.911   3.858 -0.1430 -0.5941  0.1296
  189MOL    C5145547   4.189   6.914   3.984  0.3300 -0.0592 -0.5155
  189MOL    C5245548   4.242   6.800   4.076 -0.3178 -0.1636  0.0857
  189MOL    C5345549   4.203   7.051   4.056 -0.3695 -0.4227 -0.0092
  189MOL    C5445550   4.133   7.168   3.986  0.4486 -0.6305  0.3385
  189MOL    O5545551   4.025   7.220   4.026  0.0700  0.7830 -0.0658
  189MOL    H5645552   4.082   6.899   3.965  0.3430 -1.4750  0.4678
  189MOL    H5745553   4.191   6.797   4.173 -0.4317 -0.7971  0.0046
  189MOL    H5845554   4.349   6.804   4.099 -0.2625 -1.2325  0.0223
  189MOL    H5945555   4.219   6.704   4.030  3.8735 -0.9300 -0.6240
  189MOL    H6045556   4.310   7.073   4.061 -1.1629  3.5236  1.5012
  189MOL    H6145557   4.185   7.043   4.163 -0.0542  0.0460  0.0848
  189MOL    O6245558   4.201   7.199   3.873 -0.2152  0.3506 -0.5278
  189MOL    C6345559   4.153   7.310   3.792 -0.5221 -0.0008  0.5512
  189MOL    C6445560   4.255   7.419   3.791  0.2005  0.4388 -0.0729
  189MOL    C6545561   4.140   7.259   3.650 -0.4966 -0.4579 -0.0458
  189MOL    C6645562   4.005   7.195   3.638 -0.4024 -0.0218  0.3420
  189MOL    O6745563   3.915   7.223   3.717  0.4121  0.0633 -0.2575
  189MOL    H6845564   4.058   7.350   3.826 -0.2273 -0.2119  1.6495
  189MOL    H6945565   4.335   7.386   3.724  1.1792  1.7611  0.4226
  189MOL    H7045566   4.293   7.439   3.891 -0.5399  0.1250  0.2702
  189MOL    H7145567   4.221   7.512   3.746 -1.2873 -0.8070 -1.5954
  189MOL    H7245568   4.224   7.192   3.628 -0.4879 -0.5114  0.1531
  189MOL    H7345569   4.146   7.342   3.581 -0.6810 -1.0601 -0.7921
  189MOL    O7445570   3.987   7.117   3.534  0.0388  0.4984 -0.1413
  189MOL    C7545571   3.854   7.069   3.499  0.0400 -0.5675  0.2906
  189MOL    C7645572   3.808   7.174   3.396 -0.5134  0.5295 -0.2120
  189MOL    C7745573   3.880   6.935   3.432 -0.0508 -0.1621  0.7390
  189MOL    C7845574   3.772   6.829   3.445  0.6789  1.1026 -0.5092
  189MOL    O7945575   3.763   6.764   3.546  0.7103 -0.2210 -0.1569
  189MOL    H8045576   3.789   7.057   3.585 -0.3274 -2.8347 -0.2630
  189MOL    H8145577   3.798   7.269   3.449 -0.6767  0.6370 -0.4331
  189MOL    H8245578   3.705   7.153   3.367 -0.7577  1.2302  0.1358
  189MOL    H8345579   3.864   7.196   3.305  0.0343 -0.6079 -0.1550
  189MOL    H8445580   3.971   6.883   3.461  0.9990  0.6560 -0.9643
  189MOL    H8545581   3.906   6.943   3.326 -0.4658 -0.4407  0.6158
  189MOL    O8645582   3.688   6.826   3.335  0.4465 -0.1068 -0.0110
  189MOL    C8745583   3.579   6.733   3.325  0.1257 -0.0548  0.0372
  189MOL    C8845584   3.451   6.816   3.319 -0.2203  0.2491  0.9865
  189MOL    C8945585   3.596   6.627   3.211 -0.1843 -0.1901 -0.6318
  189MOL    C9045586   3.575   6.673   3.068 -0.1039 -0.3546 -0.0491
  189MOL    O9145587   3.497   6.757   3.033  0.3849  0.2010 -0.0840
  189MOL    H9245588   3.568   6.669   3.412  0.6614 -0.8587 -0.4756
  189MOL    H9345589   3.452   6.882   3.232  0.0865 -1.9738 -0.7276
  189MOL    H9445590   3.429   6.879   3.405 -0.0842  2.9715 -0.8712
  189MOL    H9545591   3.363   6.754   3.304 -0.8224  0.9415  1.6125
  189MOL    H9645592   3.533   6.540   3.231 -0.5651  0.0264 -0.8921
  189MOL    H9745593   3.697   6.585   3.212 -0.4238 -0.9530  4.0096
  189MOL    O9845594   3.645   6.601   2.982  0.1856  0.1264 -0.3374
  189MOL    C9945595   3.615   6.593   2.841  0.0948 -0.4649  0.4715
  189MOL   C10045596   3.739   6.669   2.774 -0.0854  0.3900 -0.8018
  189MOL   C10145597   3.593   6.450   2.796 -0.2516  0.2235  0.2228
  189MOL   C10245598   3.468   6.380   2.859 -0.6876 -0.3737  0.6549
  189MOL   O10345599   3.451   6.366   2.982 -0.4575  0.2095 -0.7197
  189MOL   H10445600   3.522   6.648   2.823  1.0037  1.1261  0.5872
  189MOL   H10545601   3.721   6.647   2.669 -0.1594 -0.1051 -0.6870
  189MOL   H10645602   3.836   6.626   2.801 -1.7417 -1.0347  3.4011
  189MOL   H10745603   3.741   6.777   2.794 -0.6278  0.7133 -2.4840
  189MOL   H10845604   3.686   6.400   2.822 -0.5962 -0.0622  0.9247
  189MOL   H10945605   3.572   6.442   2.689  0.1503  0.9359  0.0847
  189MOL   O11045606   3.372   6.351   2.768  1.0769 -0.0471  0.1046
  189MOL   C11145607   3.255   6.295   2.820  0.4517  0.2737 -0.8893
  189MOL   C11245608   3.137   6.389   2.810 -0.2660 -0.3563 -0.3573
  189MOL   C11345609   3.238   6.167   2.738 -0.4954 -0.5373  1.0522
  189MOL   C11445610   3.142   6.066   2.802 -0.2992  0.1027 -0.4230
  189MOL   O11545611   3.017   6.071   2.808 -0.1089  0.3825  0.1669
  189MOL   H11645612   3.265   6.273   2.926  0.0029  1.6742 -0.5502
  189MOL   H11745613   3.160   6.490   2.844  0.0630 -0.5379 -0.0460
  189MOL   H11845614   3.048   6.349   2.859 -0.3011  3.0461  2.5476
  189MOL   H11945615   3.093   6.403   2.711 -0.0201  0.0633 -0.4082
  189MOL   H12045616   3.337   6.123   2.724 -0.1234  0.5664  0.1957
  189MOL   H12145617   3.194   6.193   2.641 -1.5437  1.7404  2.1257
  189MOL   O12245618   3.211   5.979   2.877 -0.1493 -0.1947 -0.1282
  189MOL   C12345619   3.144   5.876   2.956  0.0187  0.0346  0.5871
  189MOL   C12445620   3.261   5.774   2.988  0.1144  0.0994  0.1180
  189MOL   C12545621   3.052   5.922   3.078 -0.1160 -0.4217 -1.1867
  189MOL   C12645622   3.117   5.970   3.200 -0.3344 -0.2761 -0.4225
  189MOL   O12745623   3.127   5.896   3.301 -0.0007 -0.3605  0.1781
  189MOL   H12845624   3.077   5.822   2.889 -0.2469  2.7899 -1.4059
  189MOL   H12945625   3.315   5.745   2.898  0.0136 -0.6693  0.2975
  189MOL   H13045626   3.209   5.690   3.034 -0.1136  0.1420 -0.0584
  189MOL   H13145627   3.328   5.828   3.055  0.9167  1.4014 -1.7020
  189MOL   H13245628   2.980   5.846   3.108  2.3352 -1.8558  1.2421
  189MOL   H13345629   2.975   5.991   3.041 -2.6401 -0.8327  3.0601
  189MOL   O13445630   3.155   6.101   3.198 -0.1448  0.7892  0.2067
  189MOL   C13545631   3.224   6.151   3.315  0.7627  0.6774  0.3379
  189MOL   C13645632   3.352   6.217   3.274  0.9615  0.2988 -1.0827
  189MOL   C13745633   3.126   6.244   3.384 -0.2630 -0.7741 -0.5640
  189MOL   C13845634   3.167   6.280   3.527  0.1733  0.1698 -0.1040
  189MOL   O13945635   3.147   6.209   3.622 -0.0033 -0.0401 -0.3730
  189MOL   H14045636   3.241   6.070   3.386 -1.9735 -1.7244 -1.6209
  189MOL   H14145637   3.398   6.244   3.369 -0.7271 -0.7903  0.0649
  189MOL   H14245638   3.327   6.303   3.212  0.0268  1.1242  0.4372
  189MOL   H14345639   3.403   6.149   3.205 -0.3154  0.3000 -2.0444
  189MOL   H14445640   3.027   6.200   3.395  0.0702 -2.3105 -3.3435
  189MOL   H14545641   3.108   6.330   3.321  1.5824 -0.3806 -0.5739
  189MOL   O14645642   3.245   6.384   3.532  0.0452 -0.4134  0.1210
  189MOL   C14745643   3.309   6.435   3.653 -0.0420  0.6226  0.3995
  189MOL   C14845644   3.456   6.396   3.639 -0.1125  0.0875 -0.5085
  189MOL   C14945645   3.285   6.582   3.673  0.6029  0.4190  0.5207
  189MOL   C15045646   3.145   6.616   3.739  0.0565 -0.3161 -0.1003
  189MOL   O15145647   3.059   6.677   3.672  0.1542 -0.0992 -0.5661
  189MOL   H15245648   3.261   6.391   3.741  0.1837  1.4577  0.9371
  189MOL   H15345649   3.472   6.289   3.625  0.8473  0.2937 -1.0281
  189MOL   H15445650   3.518   6.414   3.727  0.1159  0.8675 -0.8275
  189MOL   H15545651   3.497   6.454   3.557 -0.3737  2.8507  1.2566
  189MOL   H15645652   3.285   6.628   3.574 -0.5796  0.2798  0.4436
  189MOL   H15745653   3.366   6.624   3.732  0.7130  1.3454 -0.2728
  189MOL   O15845654   3.139   6.576   3.869  0.7579  0.2308  0.4752
  189MOL   C15945655   3.010   6.571   3.934  0.1722  0.0402  0.5155
  189MOL   C16045656   2.997   6.430   3.992  0.1625 -0.0492  0.9320
  189MOL   C16145657   3.017   6.686   4.040 -0.2036  0.4657  0.4586
  189MOL   C16245658   2.892   6.698   4.121 -0.7115  0.2932 -0.4387
  189MOL   O16345659   2.885   6.689   4.249  0.3804 -0.3095  0.5589
  189MOL   H16445660   2.929   6.588   3.863  0.0577  1.4992  0.9790
  189MOL   H16545661   2.896   6.413   4.030 -1.0366 -0.7465 -2.3436
  189MOL   H16645662   3.061   6.416   4.079  1.5137 -1.5344 -0.2673
  189MOL   H16745663   3.001   6.348   3.920  0.4002 -0.2044  1.1243
  189MOL   H16845664   3.010   6.777   3.981  1.3908  1.1064  1.2272
  189MOL   H16945665   3.104   6.677   4.106  0.0786  0.9609  0.1562
  189MOL   O17045666   2.785   6.705   4.044  0.2571 -0.4911 -0.8367
  189MOL   C17145667   2.659   6.727   4.093  0.5212  0.0920  1.0760
  189MOL   C17245668   2.629   6.874   4.110 -0.3708 -0.1989 -0.1358
  189MOL   C17345669   2.556   6.658   4.006 -0.0216  0.1541 -0.1006
  189MOL   C17445670   2.554   6.507   4.016 -0.9530  0.5879  0.6915
  189MOL   O17545671   2.600   6.444   4.115  0.3731 -0.0942 -0.0838
  189MOL   H17645672   2.653   6.676   4.189 -1.1324  0.2150  1.0514
  189MOL   H17745673   2.612   6.928   4.016 -2.3360 -1.5000 -0.5489
  189MOL   H17845674   2.714   6.912   4.166 -1.2275  1.7007 -0.0752
  189MOL   H17945675   2.537   6.892   4.166 -0.3415  2.6341 -0.9113
  189MOL   H18045676   2.573   6.693   3.904 -0.1278  1.1029  0.2002
  189MOL   H18145677   2.456   6.693   4.031  0.5618  0.8091  1.3395
  189MOL   O18245678   2.507   6.447   3.905  0.1458 -0.5447 -0.0103
  189MOL   C18345679   2.493   6.304   3.896 -0.1670  0.5553 -0.6549
  189MOL   C18445680   2.346   6.289   3.879 -0.5420 -0.4395  0.1442
  189MOL   C18545681   2.570   6.252   3.768  0.2697 -1.0074  0.1274
  189MOL   C18645682   2.723   6.220   3.802  0.1246  1.1845  0.1425
  189MOL   O18745683   2.811   6.296   3.767 -0.2725 -0.1613  0.2765
  189MOL   H18845684   2.530   6.254   3.986  0.0918  0.4862 -0.7998
  189MOL   H18945685   2.304   6.347   3.796 -0.4330 -0.0260  0.3790
  189MOL   H19045686   2.298   6.321   3.971  0.4034 -1.2157  0.9246
  189MOL   H19145687   2.329   6.183   3.858  1.4015 -0.7133 -0.1149
  189MOL   H19245688   2.570   6.326   3.687  0.6408 -0.9319  0.1959
  189MOL   H19345689   2.518   6.165   3.728  1.9714 -1.1562 -1.8606
  189MOL   O19445690   2.743   6.089   3.847 -0.4989  0.3364 -0.0103
  189MOL   C19545691   2.870   6.045   3.883  0.3048  0.1098 -0.0565
  189MOL   C19645692   2.893   6.073   4.032  0.0408 -0.2012  0.0150
  189MOL   C19745693   2.892   5.905   3.836  0.0570 -0.1927  1.0791
  189MOL   C19845694   3.030   5.848   3.865  0.2601  0.2695 -0.1793
  189MOL   O19945695   3.034   5.749   3.941 -0.2324 -0.1512  0.8929
  189MOL   H20045696   2.937   6.109   3.825 -1.9033  2.3923 -0.1790
  189MOL   H20145697   2.919   6.177   4.050  0.7164 -0.7483  2.3873
  189MOL   H20245698   2.972   6.004   4.061  0.0105  0.5818  1.9989
  189MOL   H20345699   2.806   6.034   4.084  0.6334 -0.6632  0.6649
  189MOL   H20445700   2.893   5.919   3.728  3.0080 -0.3332  1.0259
  189MOL   H20545701   2.817   5.837   3.875 -0.5717 -0.0529  0.1305
  189MOL   O20645702   3.126   5.911   3.809 -0.0855 -0.0100  0.6019
  189MOL   C20745703   3.257   5.864   3.808 -0.2196 -0.1826  0.3128
  189MOL   C20845704   3.267   5.768   3.686 -0.1609 -0.4313 -0.3366
  189MOL   C20945705   3.359   5.982   3.799  0.1223 -0.1347  0.1099
  189MOL   C21045706   3.346   6.073   3.925 -0.3101  0.3418 -0.4073
  189MOL   O21145707   3.281   6.181   3.914 -0.4842 -0.6991  0.2788
  189MOL   H21245708   3.278   5.815   3.902 -0.9382  1.0675  1.1347
  189MOL   H21345709   3.371   5.738   3.674 -0.4633 -0.4747 -3.0726
  189MOL   H21445710   3.237   5.821   3.595  1.6702  0.4410 -0.4598
  189MOL   H21545711   3.213   5.680   3.721 -2.9364  1.2386 -0.2115
  189MOL   H21645712   3.355   6.040   3.707 -0.5862 -2.2003 -1.2119
  189MOL   H21745713   3.459   5.939   3.801  0.2849  0.2585  0.7630
  189MOL   O21845714   3.424   6.035   4.031 -0.0011  0.3305 -0.3401
  189MOL   C21945715   3.437   6.107   4.154 -0.0366 -0.4797 -0.4502
  189MOL   C22045716   3.323   6.076   4.241 -0.6574  0.6560 -0.4008
  189MOL   C22145717   3.566   6.075   4.220  0.4730  0.4226 -0.2875
  189MOL   C22245718   3.634   6.183   4.300 -0.7423 -0.1308 -0.6857
  189MOL   O22345719   3.614   6.297   4.278 -0.1515 -0.1002 -0.1108
  189MOL   H22445720   3.434   6.212   4.124 -0.1111  0.4952  2.8110
  189MOL   H22545721   3.338   6.108   4.344 -0.5606  0.9127 -0.4951
  189MOL   H22645722   3.299   5.970   4.237 -0.9013  0.6992 -0.0776
  189MOL   H22745723   3.236   6.126   4.198 -2.1029 -0.2258  1.4444
  189MOL   H22845724   3.653   6.053   4.159  0.4291  0.2030 -0.2726
  189MOL   H22945725   3.563   5.987   4.284  1.3100  0.8736  0.3791
  189MOL   O23045726   3.717   6.122   4.391 -0.1450  0.4682 -0.0994
  189MOL   C23145727   3.800   6.209   4.470  1.2161 -0.6299 -0.5193
  189MOL   C23245728   3.711   6.310   4.553  0.7081 -0.3374 -0.2883
  189MOL   C23345729   3.859   6.113   4.570 -0.3539  0.0564  0.1025
  189MOL   C23445730   3.984   6.164   4.638 -0.2787 -0.1258  0.3198
  189MOL   O23545731   4.060   6.242   4.576  0.1234  1.5174 -0.6322
  189MOL   H23645732   3.880   6.263   4.420  0.8375  1.1093  0.6900
  189MOL   H23745733   3.692   6.392   4.485  1.7356 -0.1484 -0.3483
  189MOL   H23845734   3.765   6.340   4.643 -0.1561  0.0814  0.1015
  189MOL   H23945735   3.620   6.261   4.590  0.8267  0.5655  1.2520
  189MOL   H24045736   3.887   6.018   4.524  3.6586  0.7980  0.8138
  189MOL   H24145737   3.790   6.090   4.651  0.4296  0.6731  0.9568
  189MOL   H24245738   4.015   6.103   4.722  0.6608 -0.7604 -0.4784
  190MOL     O145739   5.505   6.530   2.585  0.0114  0.3087 -0.6225
  190MOL     C245740   5.542   6.394   2.567  0.0011 -0.5361  0.3056
  190MOL     C345741   5.575   6.382   2.416  0.2545 -0.1842 -0.6541
  190MOL     C445742   5.654   6.368   2.668 -0.5140 -0.0456  0.3758
  190MOL     C545743   5.702   6.226   2.679  0.5494  0.1908 -0.0419
  190MOL     O645744   5.634   6.136   2.644  0.3269  0.5301  0.3183
  190MOL     H745745   5.454   6.336   2.595 -0.4998  0.5567  1.0383
  190MOL     H845746   5.647   6.460   2.393  1.2250 -0.5647  1.0249
  190MOL     H945747   5.476   6.400   2.375 -0.9342  1.7106  2.8715
  190MOL    H1045748   5.613   6.285   2.384  0.3100  0.2259 -1.8586
  190MOL    H1145749   5.612   6.386   2.767  0.1695 -1.8225  0.9995
  190MOL    H1245750   5.743   6.431   2.668 -0.3476 -0.2806 -0.2122
  190MOL    H1345751   5.472   6.569   2.506 -2.3750 -0.0071  0.1525
  190MOL    O1445752   5.818   6.215   2.738 -0.6975  0.2041  0.2954
  190MOL    C1545753   5.866   6.085   2.783  0.0913 -0.6004 -0.1166
  190MOL    C1645754   5.959   6.023   2.680  0.5476 -0.1353 -0.0137
  190MOL    C1745755   5.935   6.102   2.924 -0.6031 -0.4033 -1.1394
  190MOL    C1845756   6.056   6.191   2.920 -0.9365 -0.7302 -0.4379
  190MOL    O1945757   6.059   6.302   2.869  0.6582 -0.4381 -0.4421
  190MOL    H2045758   5.787   6.014   2.806 -0.7035 -0.3428 -1.9254
  190MOL    H2145759   5.900   5.973   2.602  1.0199 -2.9874  1.3931
  190MOL    H2245760   6.011   5.944   2.735 -0.5117  0.4575  1.8547
  190MOL    H2345761   6.036   6.090   2.643  0.3027  0.5168  0.6587
  190MOL    H2445762   5.974   6.005   2.955  0.6287  0.3404 -0.3182
  190MOL    H2545763   5.858   6.135   2.994  0.1971 -2.6027  0.8269
  190MOL    O2645764   6.162   6.121   2.974  0.7569 -0.2512  0.4776
  190MOL    C2745765   6.285   6.174   2.962 -0.1767 -0.2064 -0.4296
  190MOL    C2845766   6.332   6.219   3.096 -0.2132 -0.4127  0.0136
  190MOL    C2945767   6.389   6.066   2.908 -0.0902 -0.1605 -0.5679
  190MOL    C3045768   6.392   6.067   2.756 -0.3340 -0.1164 -0.2929
  190MOL    O3145769   6.286   6.078   2.695 -0.4540 -0.4611 -0.3450
  190MOL    H3245770   6.286   6.255   2.888  2.8667  1.4120  1.2528
  190MOL    H3345771   6.433   6.260   3.086  1.0181 -3.6519 -1.4245
  190MOL    H3445772   6.329   6.134   3.164  1.9787 -1.2439 -0.8610
  190MOL    H3545773   6.287   6.307   3.142 -2.0358 -2.0712  1.4362
  190MOL    H3645774   6.361   5.965   2.937 -0.2024 -0.1731 -0.7195
  190MOL    H3745775   6.489   6.090   2.942 -0.6532  2.3710 -0.5584
  190MOL    O3845776   6.522   6.059   2.705  0.3043 -0.2933 -0.0688
  190MOL    C3945777   6.538   6.070   2.562  0.2390  0.7487  0.4790
  190MOL    C4045778   6.588   6.210   2.528 -0.2176 -0.3659 -0.7065
  190MOL    C4145779   6.646   5.980   2.498  0.1779 -0.2844 -0.1781
  190MOL    C4245780   6.606   5.829   2.505  0.2459  0.3720 -0.2303
  190MOL    O4345781   6.679   5.758   2.570  0.2125 -0.3954 -0.1113
  190MOL    H4445782   6.446   6.059   2.504  0.7271 -3.0090  0.2510
  190MOL    H4545783   6.514   6.287   2.547  1.0921  0.7443  0.0256
  190MOL    H4645784   6.630   6.209   2.427 -0.0959  0.2924 -0.6613
  190MOL    H4745785   6.659   6.238   2.606 -4.2177 -0.2281  3.0160
  190MOL    H4845786   6.738   6.006   2.550 -1.5722  2.2785  1.6938
  190MOL    H4945787   6.666   6.002   2.393  0.4339 -0.5054 -0.1770
  190MOL    O5045788   6.508   5.783   2.424 -0.2161  0.1780  0.4724
  190MOL    C5145789   6.454   5.657   2.449  0.6482  0.0832  0.5681
  190MOL    C5245790   6.319   5.685   2.515  0.2706  0.2696  0.3251
  190MOL    C5345791   6.447   5.579   2.320  0.2236 -0.3047 -0.1279
  190MOL    C5445792   6.387   5.641   2.194  0.1040  0.1627 -0.4940
  190MOL    O5545793   6.273   5.631   2.167 -0.3239 -0.0744  0.0933
  190MOL    H5645794   6.510   5.604   2.526  0.2934 -0.0057  0.7630
  190MOL    H5745795   6.270   5.770   2.467 -0.6975  0.2032  1.1978
  190MOL    H5845796   6.331   5.708   2.621  1.1156 -1.7532  0.6944
  190MOL    H5945797   6.245   5.607   2.501 -0.6693  0.7555  2.4850
  190MOL    H6045798   6.403   5.481   2.337 -1.7732  0.6251  0.3061
  190MOL    H6145799   6.551   5.565   2.292 -0.1830 -2.0537 -0.8663
  190MOL    O6245800   6.478   5.704   2.126 -0.0924  0.1355 -0.1128
  190MOL    C6345801   6.455   5.787   2.009  0.6419  0.3956 -0.7920
  190MOL    C6445802   6.533   5.922   2.030  0.1327  0.1583 -0.2286
  190MOL    C6545803   6.502   5.721   1.879 -0.2284  0.0658 -0.0393
  190MOL    C6645804   6.422   5.600   1.839  0.0624 -1.0091 -0.6006
  190MOL    O6745805   6.459   5.485   1.870  0.1989  0.0527  0.1209
  190MOL    H6845806   6.348   5.806   1.999  1.1357  1.9092 -3.8190
  190MOL    H6945807   6.524   5.967   2.129 -1.4241  3.4051 -1.7545
  190MOL    H7045808   6.511   6.000   1.957 -1.1785  1.8172  1.8676
  190MOL    H7145809   6.636   5.895   2.010 -0.2753 -0.6950 -1.2372
  190MOL    H7245810   6.607   5.695   1.887  0.2629  1.2155 -2.3047
  190MOL    H7345811   6.497   5.794   1.799 -0.2635 -0.6913 -0.7302
  190MOL    O7445812   6.311   5.625   1.770 -0.3840  0.3899  0.2988
  190MOL    C7545813   6.225   5.512   1.741 -0.3722 -0.2067 -0.1998
  190MOL    C7645814   6.147   5.487   1.864 -0.1339 -0.9055 -0.1184
  190MOL    C7745815   6.144   5.549   1.610  0.1318 -0.4810 -0.5338
  190MOL    C7845816   6.068   5.430   1.563  0.6288 -0.1046  0.7632
  190MOL    O7945817   5.944   5.421   1.585  0.1381 -0.1336  0.1545
  190MOL    H8045818   6.293   5.430   1.718  1.1838  0.8232  0.6303
  190MOL    H8145819   6.205   5.476   1.955 -1.2935 -0.1744  0.7338
  190MOL    H8245820   6.115   5.384   1.846  2.1377 -1.3645 -1.6557
  190MOL    H8345821   6.065   5.559   1.876 -0.0355 -0.1869 -3.1827
  190MOL    H8445822   6.207   5.590   1.530  0.9957  0.4307  0.6021
  190MOL    H8545823   6.082   5.633   1.641 -0.4960 -1.3658  0.6629
  190MOL    O8645824   6.140   5.350   1.477 -0.1864  0.0154 -0.2022
  190MOL    C8745825   6.078   5.258   1.388  0.7979 -0.0167  0.0520
  190MOL    C8845826   6.039   5.339   1.260 -0.4530  0.1849 -0.1252
  190MOL    C8945827   6.179   5.145   1.364  0.9974  0.3309  0.0436
  190MOL    C9045828   6.194   5.049   1.487  0.2621 -0.1358 -0.4531
  190MOL    O9145829   6.133   5.065   1.592 -0.4134  0.6423  0.3176
  190MOL    H9245830   5.982   5.238   1.436 -0.0061  0.5303 -1.2951
  190MOL    H9345831   5.986   5.433   1.274 -0.6523  0.0937 -0.2511
  190MOL    H9445832   5.987   5.274   1.190 -0.5311  0.5671 -0.4234
  190MOL    H9545833   6.137   5.366   1.222 -0.0111 -0.1037  0.7904
  190MOL    H9645834   6.276   5.187   1.338  1.0804 -0.1729 -0.4661
  190MOL    H9745835   6.140   5.075   1.290 -2.0851  1.4015  0.5519
  190MOL    O9845836   6.269   4.939   1.469 -0.0090  0.3098 -0.0276
  190MOL    C9945837   6.289   4.857   1.583 -0.3367  0.0796  0.6842
  190MOL   C10045838   6.182   4.746   1.585  0.4774 -0.6131 -0.6535
  190MOL   C10145839   6.431   4.795   1.561 -0.0169  0.9819 -0.2633
  190MOL   C10245840   6.544   4.887   1.599 -0.2567 -0.8121 -0.8920
  190MOL   O10345841   6.621   4.862   1.688  0.3709 -0.0287 -0.1478
  190MOL   H10445842   6.295   4.910   1.678  1.2549  0.3632  0.4383
  190MOL   H10545843   6.082   4.788   1.580  0.4553 -0.6815 -0.7907
  190MOL   H10645844   6.177   4.684   1.675 -2.1255 -0.1855 -0.4630
  190MOL   H10745845   6.202   4.680   1.501 -0.6897 -1.0122 -0.6289
  190MOL   H10845846   6.461   4.775   1.459  1.9418  0.2377  0.4319
  190MOL   H10945847   6.435   4.701   1.617  2.2278  0.7016 -0.8636
  190MOL   O11045848   6.552   4.996   1.522  0.5255 -0.2250 -0.6050
  190MOL   C11145849   6.670   5.071   1.521 -0.3068  0.0465  0.2622
  190MOL   C11245850   6.709   5.105   1.377 -0.5166 -0.6536  0.5733
  190MOL   C11345851   6.655   5.198   1.611 -0.2757 -0.5446  0.4308
  190MOL   C11445852   6.550   5.289   1.552 -0.4001  0.3670 -0.0149
  190MOL   O11545853   6.438   5.283   1.601 -0.1967  0.4569 -0.0322
  190MOL   H11645854   6.753   5.015   1.562  0.5453  0.8366 -0.3651
  190MOL   H11745855   6.748   5.024   1.315 -0.1858  0.5804 -0.8761
  190MOL   H11845856   6.793   5.174   1.374 -0.0838 -1.1340  1.4584
  190MOL   H11945857   6.625   5.149   1.323 -0.6519  0.9966  2.0938
  190MOL   H12045858   6.749   5.252   1.616 -0.6829  0.1205  0.9120
  190MOL   H12145859   6.627   5.166   1.711 -2.3314 -1.0995 -0.2979
  190MOL   O12245860   6.589   5.363   1.444 -0.0186  0.6205 -0.5945
  190MOL   C12345861   6.500   5.467   1.407 -0.7362 -0.5033 -0.7843
  190MOL   C12445862   6.555   5.594   1.471  0.4216 -0.0595 -0.3462
  190MOL   C12545863   6.500   5.478   1.253  0.8353 -0.5863  0.3162
  190MOL   C12645864   6.392   5.578   1.204  0.7268  0.7128  0.3487
  190MOL   O12745865   6.315   5.625   1.280 -0.3465 -0.0597  0.2581
  190MOL   H12845866   6.398   5.458   1.444 -0.4834 -0.0216  0.0532
  190MOL   H12945867   6.578   5.574   1.575  1.4562  0.5399 -0.4477
  190MOL   H13045868   6.481   5.673   1.489  0.7993 -0.6281  4.1682
  190MOL   H13145869   6.638   5.635   1.413  0.6551 -1.4238 -1.0054
  190MOL   H13245870   6.473   5.387   1.199  0.0255  0.0736 -0.4174
  190MOL   H13345871   6.584   5.535   1.213  0.5037 -0.7065 -0.5680
  190MOL   O13445872   6.381   5.599   1.069  0.3091 -0.2459 -0.2377
  190MOL   C13545873   6.282   5.692   1.020  0.8483  0.4249  0.4669
  190MOL   C13645874   6.345   5.763   0.901  0.0137  0.2743 -0.0170
  190MOL   C13745875   6.148   5.610   0.983  0.6568  0.5467  0.9523
  190MOL   C13845876   6.142   5.543   0.846 -0.2436 -0.0448 -0.0959
  190MOL   O13945877   6.149   5.423   0.828  0.1907  0.4908  0.2294
  190MOL   H14045878   6.266   5.773   1.091 -0.0641 -0.7088  1.5656
  190MOL   H14145879   6.265   5.817   0.851  0.6088  0.9413 -0.2747
  190MOL   H14245880   6.383   5.696   0.824  2.8687  1.3398  0.3970
  190MOL   H14345881   6.427   5.822   0.943 -0.8906  0.7865  1.0357
  190MOL   H14445882   6.057   5.670   0.979  0.6689  0.4597 -1.3558
  190MOL   H14545883   6.127   5.530   1.054 -1.0413  0.2465  0.1314
  190MOL   O14645884   6.094   5.631   0.755 -0.0067  0.0436  0.6273
  190MOL   C14745885   6.084   5.598   0.613 -0.0386  0.3954  0.4441
  190MOL   C14845886   5.984   5.692   0.560 -0.1901 -0.4848 -0.3809
  190MOL   C14945887   6.220   5.598   0.535  0.3751  0.8934 -0.1601
  190MOL   C15045888   6.214   5.531   0.399 -0.0177  0.2057  0.1892
  190MOL   O15145889   6.241   5.411   0.381  0.3502 -0.1695  0.2878
  190MOL   H15245890   6.027   5.505   0.611  0.3317  0.1790 -0.5928
  190MOL   H15345891   5.914   5.732   0.633 -0.5407  1.0323 -1.5114
  190MOL   H15445892   5.924   5.649   0.480 -0.2858  1.9242 -1.6812
  190MOL   H15545893   6.038   5.766   0.500 -0.5640 -0.2166 -0.3948
  190MOL   H15645894   6.284   5.543   0.604 -3.0259  1.1674  3.3265
  190MOL   H15745895   6.261   5.697   0.514  1.6227  0.2134 -1.0209
  190MOL   O15845896   6.174   5.619   0.302  0.2975  0.3145  0.1443
  190MOL   C15945897   6.146   5.574   0.164  0.5805 -0.0542 -0.5865
  190MOL   C16045898   6.002   5.533   0.155 -0.0706  0.7598 -0.2254
  190MOL   C16145899   6.177   5.681   0.056 -0.3066 -0.0497 -0.7784
  190MOL   C16245900   6.320   5.725   0.058  0.1949  0.5382  0.1475
  190MOL   O16345901   6.407   5.691   7.954 -0.7598  0.0025 -0.0139
  190MOL   H16445902   6.215   5.490   0.158  1.3780  0.5734 -0.3936
  190MOL   H16545903   5.928   5.597   0.204 -1.0887  0.5281 -1.4587
  190MOL   H16645904   5.992   5.431   0.191  1.2383  1.0548  1.0246
  190MOL   H16745905   5.965   5.545   0.053  1.1538 -2.5256 -1.1229
  190MOL   H16845906   6.105   5.761   0.076 -0.0020 -0.1488  0.7807
  190MOL   H16945907   6.155   5.634   7.940  0.7703 -2.4484  0.0940
  190MOL   O17045908   6.354   5.802   0.159 -0.0863  0.3807  0.1953
  190MOL   C17145909   6.498   5.830   0.183  0.1774 -0.7387  0.0532
  190MOL   C17245910   6.542   5.966   0.129  1.1609  0.3521  0.1155
  190MOL   C17345911   6.536   5.826   0.334 -0.1085  0.0271 -0.0266
  190MOL   C17445912   6.542   5.689   0.400  0.2553 -0.7147  0.4304
  190MOL   O17545913   6.504   5.677   0.519 -0.6089  0.1404 -1.5685
  190MOL   H17645914   6.564   5.757   0.135  1.6248 -0.5358  1.6637
  190MOL   H17745915   6.650   5.979   0.140  0.9041  1.7297  1.1422
  190MOL   H17845916   6.489   6.044   0.184 -0.8452  0.5107 -2.0149
  190MOL   H17945917   6.517   5.981   0.024 -2.4775  0.2746  0.9271
  190MOL   H18045918   6.450   5.877   0.378 -1.8099 -1.3073 -1.6743
  190MOL   H18145919   6.633   5.870   0.354 -0.8258  1.0954  1.1720
  190MOL   O18245920   6.585   5.589   0.318 -0.2126 -0.1570 -0.1772
  190MOL   C18345921   6.566   5.455   0.365  0.1490 -0.2262 -0.6454
  190MOL   C18445922   6.530   5.358   0.248  0.3624  0.4559 -0.2495
  190MOL   C18545923   6.690   5.418   0.452  0.1077  0.4001  0.2786
  190MOL   C18645924   6.667   5.302   0.553  0.3286  0.7533  0.4708
  190MOL   O18745925   6.699   5.187   0.523  0.1872  0.1838 -0.2309
  190MOL   H18845926   6.476   5.450   0.426 -0.0774  0.3332 -0.9211
  190MOL   H18945927   6.443   5.396   0.195  0.4148  1.5923  0.4683
  190MOL   H19045928   6.494   5.265   0.292 -1.9757  2.3160  1.9037
  190MOL   H19145929   6.615   5.342   0.181  0.3929  3.9319 -1.1285
  190MOL   H19245930   6.716   5.501   0.518  0.3561  2.0586 -1.8498
  190MOL   H19345931   6.779   5.393   0.394 -0.3584 -1.9584  0.5324
  190MOL   O19445932   6.600   5.338   0.662  0.3611 -0.7579 -0.0431
  190MOL   C19545933   6.559   5.233   0.747  0.2670 -0.3429  0.0694
  190MOL   C19645934   6.608   5.270   0.886  0.1586 -0.2201 -0.0798
  190MOL   C19745935   6.405   5.222   0.736 -0.0168  0.5796  0.1926
  190MOL   C19845936   6.354   5.076   0.741 -0.1022  0.3249  0.0548
  190MOL   O19945937   6.259   5.052   0.822 -0.7255  0.5863  0.0541
  190MOL   H20045938   6.598   5.133   0.727 -1.9028 -1.3367  0.6890
  190MOL   H20145939   6.551   5.224   0.967 -0.0028  2.2610  1.2645
  190MOL   H20245940   6.595   5.375   0.913  1.0375 -0.0493 -0.3147
  190MOL   H20345941   6.711   5.244   0.914  0.6705  1.5921 -0.2240
  190MOL   H20445942   6.368   5.276   0.648  0.1610  0.9699  0.3567
  190MOL   H20545943   6.357   5.269   0.822 -0.3599 -0.3497  0.5071
  190MOL   O20645944   6.413   4.983   0.658 -0.2457  0.1963  0.5543
  190MOL   C20745945   6.363   4.854   0.642  0.6618  0.1952  1.2167
  190MOL   C20845946   6.239   4.857   0.550  0.5155 -0.1400  0.3102
  190MOL   C20945947   6.473   4.749   0.597 -0.3449  0.1544 -0.3420
  190MOL   C21045948   6.575   4.700   0.699 -0.1158 -0.2156 -0.4399
  190MOL   O21145949   6.558   4.592   0.754 -0.2570 -0.1303 -0.2799
  190MOL   H21245950   6.317   4.816   0.733 -2.4479  0.8553  0.0052
  190MOL   H21345951   6.218   4.750   0.546 -2.3983  0.4329 -0.5836
  190MOL   H21445952   6.269   4.903   0.456  2.4411 -1.2328  0.3601
  190MOL   H21545953   6.151   4.912   0.584  0.6967 -0.2749  1.0057
  190MOL   H21645954   6.542   4.787   0.522  1.2032 -0.2803  0.8305
  190MOL   H21745955   6.421   4.663   0.556  0.2350 -1.9103  3.0365
  190MOL   O21845956   6.676   4.794   0.726 -0.1976  0.0305 -0.1127
  190MOL   C21945957   6.773   4.776   0.825 -0.0202 -0.6523 -0.3807
  190MOL   C22045958   6.909   4.765   0.756  0.2134 -0.6537 -0.9350
  190MOL   C22145959   6.759   4.898   0.916  0.2555 -0.4558 -0.4208
  190MOL   C22245960   6.641   4.891   1.018  0.2188 -0.6280 -0.7488
  190MOL   O22345961   6.572   4.985   1.062  0.2236  0.1155  0.2633
  190MOL   H22445962   6.756   4.684   0.880  2.0772 -0.6993  0.2233
  190MOL   H22545963   6.906   4.672   0.699 -0.8586 -1.0507 -0.2478
  190MOL   H22645964   6.993   4.758   0.826  2.4459  2.8143 -3.1388
  190MOL   H22745965   6.937   4.846   0.689 -0.1139 -0.0878 -0.3938
  190MOL   H22845966   6.748   4.992   0.862  0.0700  1.0712  2.1574
  190MOL   H22945967   6.851   4.891   0.973 -0.0461  0.8033  0.2552
  190MOL   O23045968   6.619   4.766   1.059 -0.0687  0.6013  0.0771
  190MOL   C23145969   6.519   4.739   1.167 -1.5552  0.1827  0.2579
  190MOL   C23245970   6.393   4.702   1.090 -0.0496  0.3917 -0.0130
  190MOL   C23345971   6.570   4.618   1.244 -0.1138  0.7350  0.1642
  190MOL   C23445972   6.700   4.635   1.327 -0.5583 -0.4059  0.1725
  190MOL   O23545973   6.722   4.594   1.440 -0.0193 -0.0339 -0.2402
  190MOL   H23645974   6.494   4.823   1.232  0.3342  2.9063 -2.3662
  190MOL   H23745975   6.405   4.627   1.012  2.6076  0.2741  0.4758
  190MOL   H23845976   6.362   4.790   1.033 -1.2296  1.8616  2.7943
  190MOL   H23945977   6.308   4.676   1.153 -2.2409  2.7919 -1.8047
  190MOL   H24045978   6.593   4.540   1.171 -2.3895  0.5188 -0.3818
  190MOL   H24145979   6.493   4.592   1.317  1.9163 -0.9133  1.7725
  190MOL   H24245980   6.782   4.693   1.283 -0.1377 -2.0415 -1.2556
  191MOL     O145981   5.530   7.747   3.789  0.3098 -0.4214 -0.1600
  191MOL     C245982   5.662   7.728   3.765  0.2624 -0.0077 -0.6307
  191MOL     C345983   5.713   7.645   3.887 -0.1906  0.0601  0.2827
  191MOL     C445984   5.675   7.667   3.630  0.4793 -0.0486  0.5163
  191MOL     C545985   5.810   7.690   3.561  0.6676 -0.3217 -0.6315
  191MOL     O645986   5.851   7.610   3.478  0.8504 -0.0545 -0.4430
  191MOL     H745987   5.697   7.831   3.770 -1.5663  0.5664  1.4679
  191MOL     H845988   5.711   7.539   3.862 -1.5808  0.0933  0.2071
  191MOL     H945989   5.647   7.657   3.973 -0.4889  3.4446 -0.3762
  191MOL    H1045990   5.814   7.667   3.921 -0.4447  1.9667 -0.1541
  191MOL    H1145991   5.603   7.707   3.558  0.2578 -2.4643 -0.6499
  191MOL    H1245992   5.648   7.562   3.630 -2.6726  0.6766 -1.3876
  191MOL    H1345993   5.507   7.760   3.880 -0.3122 -0.7389 -0.2730
  191MOL    O1445994   5.864   7.811   3.576  0.0882 -0.1357  0.1511
  191MOL    C1545995   5.981   7.862   3.518 -1.0291 -0.1136  0.1946
  191MOL    C1645996   5.937   7.919   3.383 -0.9636 -0.2346  0.4258
  191MOL    C1745997   6.042   7.971   3.607 -0.8220 -0.1621 -0.3956
  191MOL    C1845998   6.176   0.038   3.558  0.0463  0.2944 -0.0210
  191MOL    O1945999   6.269   7.940   3.536  0.4191  0.1014 -0.0119
  191MOL    H2046000   6.060   7.788   3.524  0.6496  1.6869  1.0545
  191MOL    H2146001   5.845   7.978   3.389 -1.3103 -0.8508  1.4116
  191MOL    H2246002   5.914   7.841   3.311 -0.5491  0.6429 -0.6665
  191MOL    H2346003   6.012   0.001   3.334 -0.4289 -0.0277  1.4836
  191MOL    H2446004   6.046   7.929   3.708  1.0088  0.3314 -0.2494
  191MOL    H2546005   5.978   0.078   3.619 -0.9198  0.1113 -2.6595
  191MOL    O2646006   6.176   0.172   3.532 -0.1400  0.4507  0.0670
  191MOL    C2746007   6.278   0.234   3.464  0.6587  0.0762  0.1494
  191MOL    C2846008   6.212   0.313   3.355 -0.0666  0.4954  0.6183
  191MOL    C2946009   6.356   0.322   3.564  0.4074 -0.3025 -0.3854
  191MOL    C3046010   6.482   0.377   3.505 -0.4492  0.3474  0.4695
  191MOL    O3146011   6.473   0.467   3.423  0.5037  0.2539  0.3082
  191MOL    H3246012   6.341   0.157   3.418  1.4655  1.5363 -1.2636
  191MOL    H3346013   6.175   0.413   3.375 -0.5764  0.2741  0.8065
  191MOL    H3446014   6.132   0.247   3.322 -2.2293  1.1716  4.2714
  191MOL    H3546015   6.288   0.316   3.277  0.4458 -0.4018  1.0679
  191MOL    H3646016   6.387   0.267   3.653 -1.0077  1.4347  1.2217
  191MOL    H3746017   6.305   0.408   3.607  1.3498 -1.3069  2.8755
  191MOL    O3846018   6.596   0.312   3.536 -0.0781 -0.6994  0.0533
  191MOL    C3946019   6.719   0.350   3.478  0.5216 -0.3581 -0.0451
  191MOL    C4046020   6.826   0.326   3.587  0.3613  0.2271  0.0758
  191MOL    C4146021   6.730   0.278   3.340  0.7918 -0.4275 -0.2208
  191MOL    C4246022   6.797   0.362   3.239 -0.0226 -0.5166 -0.4040
  191MOL    O4346023   6.745   0.409   3.140 -0.2766 -0.3583 -0.0326
  191MOL    H4446024   6.723   0.458   3.459  0.9113 -0.3951 -0.1703
  191MOL    H4546025   6.841   0.223   3.622  0.1065  1.3406  3.6920
  191MOL    H4646026   6.801   0.389   3.673  0.2365  1.2577 -0.7100
  191MOL    H4746027   6.919   0.359   3.541 -0.0474 -0.1155 -1.0148
  191MOL    H4846028   6.633   0.241   3.306  0.4932 -0.4595  0.6781
  191MOL    H4946029   6.788   0.188   3.360  1.8208  0.4522  0.8377
  191MOL    O5046030   6.926   0.394   3.273 -0.3251  0.0024 -0.0948
  191MOL    C5146031   7.017   0.455   3.181  0.6974 -0.1661  0.1781
  191MOL    C5246032   7.097   0.571   3.249 -0.1782  0.4565  0.1890
  191MOL    C5346033   7.104   0.345   3.117 -0.0247 -0.1737  0.4794
  191MOL    C5446034   7.206   0.384   3.009 -0.7795 -0.0725 -0.1784
  191MOL    O5546035   7.326   0.398   3.033  0.3727  0.2598  0.3645
  191MOL    H5646036   6.962   0.506   3.103  1.4907  0.2317 -0.1295
  191MOL    H5746037   7.168   0.605   3.175  0.9261 -2.0301  0.0435
  191MOL    H5846038   7.143   0.553   3.346  3.5678  1.1118 -1.4003
  191MOL    H5946039   7.030   0.652   3.278 -1.2538 -0.5142  0.4713
  191MOL    H6046040   7.031   0.288   3.060 -0.3016 -0.1809  0.8367
  191MOL    H6146041   7.150   0.283   3.194 -0.2214 -0.7769  0.1118
  191MOL    O6246042   7.152   0.394   2.883 -0.2592 -0.0197 -0.6771
  191MOL    C6346043   7.225   0.450   2.776  0.3267  0.0851 -0.1644
  191MOL    C6446044   7.316   0.344   2.707 -0.3045  0.2968  0.2013
  191MOL    C6546045   7.121   0.518   2.689  0.0603 -0.5916  0.4496
  191MOL    C6646046   7.178   0.596   2.567 -0.7916  0.1992  0.3969
  191MOL    O6746047   7.156   0.556   2.450  0.1240  0.1992  0.1424
  191MOL    H6846048   7.290   0.530   2.813  1.1591 -0.5816 -0.1640
  191MOL    H6946049   7.259   0.270   2.650  0.5172 -0.2745  0.1180
  191MOL    H7046050   7.369   0.280   2.777 -0.7268 -2.6646 -2.0913
  191MOL    H7146051   7.380   0.369   2.623 -1.0918 -1.2780 -0.8825
  191MOL    H7246052   7.066   0.581   2.759 -0.9318 -1.5311  0.5215
  191MOL    H7346053   7.052   0.442   2.655  3.0654 -2.8940 -0.7595
  191MOL    O7446054   7.258   0.699   2.597  0.3553 -0.1792  0.0967
  191MOL    C7546055   7.299   0.795   2.499 -0.0175  0.0801 -0.1387
  191MOL    C7646056   7.284   0.931   2.579 -0.5957 -0.6093 -0.0892
  191MOL    C7746057   7.438   0.755   2.452 -0.3937  0.6705 -0.1084
  191MOL    C7846058   7.500   0.843   2.339  0.8186  0.8656 -0.0411
  191MOL    O7946059   7.618   0.867   2.341 -0.1775  0.3189 -0.2049
  191MOL    H8046060   7.224   0.799   2.420 -1.7229 -1.9341  1.3311
  191MOL    H8146061   7.300   1.019   2.518 -1.8487 -1.1293 -1.1772
  191MOL    H8246062   7.360   0.940   2.657 -1.3891 -0.0363  0.6200
  191MOL    H8346063   7.186   0.954   2.622 -0.1408  0.3923  0.4229
  191MOL    H8446064   7.441   0.654   2.412  0.2905  1.2246 -1.5017
  191MOL    H8546065   7.498   0.751   2.543 -0.1433  0.2571 -0.2924
  191MOL    O8646066   7.409   0.888   2.249 -0.1419  0.2767  0.0178
  191MOL    C8746067   7.441   0.974   2.140  0.1390  0.1837  0.4645
  191MOL    C8846068   7.480   0.889   2.016 -1.8093  0.6040 -0.5592
  191MOL    C8946069   7.339   1.077   2.104  0.1498  0.1767 -0.2475
  191MOL    C9046070   7.391   1.221   2.088 -0.0335  0.4088 -0.6546
  191MOL    O9146071   7.491   1.246   2.027 -0.1882  0.2012 -0.4277
  191MOL    H9246072   7.535   1.025   2.163  1.6742 -0.9334 -3.0018
  191MOL    H9346073   7.563   0.827   2.050 -1.1448  1.7304 -0.1317
  191MOL    H9446074   7.509   0.952   1.932  2.9184 -0.1262  0.3850
  191MOL    H9546075   7.388   0.833   1.995 -1.9846 -0.2908  2.4723
  191MOL    H9646076   7.265   1.069   2.184  0.3767  2.0308  0.1754
  191MOL    H9746077   7.279   1.056   2.016  0.4885 -0.5502 -0.3110
  191MOL    O9846078   7.323   1.309   2.165 -0.7020  0.5352  0.1236
  191MOL    C9946079   7.360   1.446   2.165  0.3232 -0.0462 -0.0609
  191MOL   C10046080   7.243   1.530   2.124 -0.1863 -0.3307  0.1616
  191MOL   C10146081   7.426   1.481   2.304 -0.2777  0.1182 -0.5824
  191MOL   C10246082   7.542   1.384   2.342  0.0560  0.4270 -0.4651
  191MOL   O10346083   7.521   1.280   2.413 -0.1007 -0.3509 -0.2696
  191MOL   H10446084   7.438   1.464   2.091 -0.7172 -0.0319 -1.1498
  191MOL   H10546085   7.156   1.532   2.191 -0.8204  0.8242 -0.6787
  191MOL   H10646086   7.213   1.504   2.023 -0.7638  0.7408  0.0523
  191MOL   H10746087   7.278   1.633   2.116 -0.8023 -0.1961 -0.8472
  191MOL   H10846088   7.344   1.481   2.375 -2.3011 -0.4909 -2.8643
  191MOL   H10946089   7.465   1.582   2.300  0.1743 -0.0766 -1.2094
  191MOL   O11046090   7.653   1.425   2.275  0.0634  0.1124 -0.1506
  191MOL   C11146091   7.779   1.348   2.291 -0.1040 -0.3713 -0.0821
  191MOL   C11246092   7.771   1.197   2.253  0.4673 -0.1427 -0.3464
  191MOL   C11346093   7.886   1.432   2.216 -0.1268 -0.0144 -0.9968
  191MOL   C11446094   0.043   1.383   2.251  0.1802 -0.2745  0.6087
  191MOL   O11546095   0.126   1.362   2.165  0.4157 -0.1171  0.5316
  191MOL   H11646096   7.804   1.357   2.397  0.1600 -1.2243 -0.0716
  191MOL   H11746097   7.863   1.139   2.265  1.2138  1.0298 -0.3194
  191MOL   H11846098   7.739   1.179   2.151  1.0092 -2.6443 -0.1093
  191MOL   H11946099   7.707   1.133   2.313 -0.6101 -0.9679 -2.3322
  191MOL   H12046100   7.894   1.530   2.262  2.7369 -0.5324 -0.2305
  191MOL   H12146101   7.881   1.441   2.108  2.6329 -0.2348 -1.1992
  191MOL   O12246102   0.077   1.375   2.383 -0.1395  0.2880  0.3869
  191MOL   C12346103   0.215   1.397   2.419 -0.0188  0.6471  0.9243
  191MOL   C12446104   0.238   1.543   2.439  0.0982 -0.2033 -0.9003
  191MOL   C12546105   0.251   1.294   2.523  0.0083 -0.8063  0.1028
  191MOL   C12646106   0.219   1.336   2.664 -0.0096 -0.1440  0.2168
  191MOL   O12746107   0.305   1.330   2.748 -0.6282  0.0852 -0.0213
  191MOL   H12846108   0.281   1.373   2.336 -1.4407 -3.9039  0.9995
  191MOL   H12946109   0.194   1.586   2.529  3.2034  0.2013  0.4736
  191MOL   H13046110   0.202   1.591   2.349  1.8461  1.6749 -0.6406
  191MOL   H13146111   0.345   1.565   2.445 -0.2886  1.0610  2.8631
  191MOL   H13246112   0.357   1.270   2.531  0.1510 -1.1621 -2.4109
  191MOL   H13346113   0.216   1.191   2.513 -0.2162 -0.7692  0.4940
  191MOL   O13446114   0.089   1.372   2.692  0.3483 -0.7272  0.2274
  191MOL   C13546115   0.058   1.406   2.828  0.0352 -0.2814 -0.1252
  191MOL   C13646116   7.918   1.493   2.814  0.0873  0.0833  0.2406
  191MOL   C13746117   0.049   1.285   2.915  0.0500 -0.7735 -0.0467
  191MOL   C13846118   7.905   1.200   2.904  0.0505  0.3657  0.3444
  191MOL   O13946119   7.846   1.160   3.003  0.5870 -0.2491  0.4608
  191MOL   H14046120   0.140   1.467   2.866  0.7811 -0.9411 -0.6560
  191MOL   H14146121   7.886   1.549   2.902  0.1097  0.0733  0.2553
  191MOL   H14246122   7.831   1.439   2.779  2.5773 -2.5172 -2.1537
  191MOL   H14346123   7.937   1.569   2.738  3.3919 -0.8504  0.0545
  191MOL   H14446124   0.057   1.315   3.019 -1.6078  1.0010 -0.4043
  191MOL   H14546125   0.129   1.219   2.881  0.2905 -0.0748 -0.8683
  191MOL   O14646126   7.864   1.182   2.776  0.2474 -0.2050  1.1850
  191MOL   C14746127   7.762   1.087   2.734  0.1139 -0.5371  0.4384
  191MOL   C14846128   7.622   1.153   2.722  0.0825  0.0880 -0.4829
  191MOL   C14946129   7.810   1.033   2.599  0.5928 -0.4077 -0.2618
  191MOL   C15046130   7.926   0.932   2.614 -0.0460 -0.0122  0.4754
  191MOL   O15146131   0.063   0.968   2.598 -0.0118 -0.1760  0.3096
  191MOL   H15246132   7.755   1.004   2.803 -2.1352  0.0734  1.0079
  191MOL   H15346133   7.550   1.077   2.694 -1.5162  1.1244  0.7666
  191MOL   H15446134   7.602   1.227   2.644 -0.1394 -0.8030 -1.2792
  191MOL   H15546135   7.593   1.195   2.818  1.0109  0.3794 -0.3228
  191MOL   H15646136   7.839   1.115   2.534  0.7401 -0.7239 -0.5992
  191MOL   H15746137   7.743   0.975   2.536 -0.8082  0.6702  0.2112
  191MOL   O15846138   7.890   0.806   2.643  0.2992  0.1106 -0.0252
  191MOL   C15946139   7.977   0.698   2.638 -0.7099  0.3601 -0.2710
  191MOL   C16046140   7.973   0.620   2.773 -0.1727 -0.1076 -0.5739
  191MOL   C16146141   7.944   0.607   2.520  0.3830  0.5866  0.4560
  191MOL   C16246142   0.018   0.645   2.386  0.2393  0.4985 -0.5839
  191MOL   O16346143   0.072   0.553   2.320 -0.1080 -1.0030  0.1997
  191MOL   H16446144   0.099   0.737   2.631 -1.6211  2.8353 -0.4958
  191MOL   H16546145   7.867   0.613   2.796  0.1319  1.3833  1.4313
  191MOL   H16646146   0.029   0.679   2.857  0.4916  0.9187 -1.5684
  191MOL   H16746147   0.024   0.516   2.762  1.4151  0.1063  1.5050
  191MOL   H16846148   7.836   0.600   2.519  0.4206 -0.4119  1.6375
  191MOL   H16946149   7.976   0.504   2.537  1.8872  0.9781  0.1004
  191MOL   O17046150   7.966   0.771   2.356 -0.0897  0.3996  0.3523
  191MOL   C17146151   0.016   0.823   2.221 -0.1105  0.3641  0.3542
  191MOL   C17246152   7.876   0.852   2.134 -0.2611  0.7890  0.2958
  191MOL   C17346153   0.103   0.950   2.249 -0.4371  0.3049  0.4198
  191MOL   C17446154   0.248   0.936   2.251  1.0609  0.1585  0.3513
  191MOL   O17546155   0.315   0.974   2.157  0.1073 -0.1317 -0.6269
  191MOL   H17646156   0.085   0.754   2.172 -0.4086 -1.2405  2.0846
  191MOL   H17746157   7.827   0.760   2.103 -1.7977  1.8091 -0.3601
  191MOL   H17846158   7.921   0.898   2.046 -2.2834  1.1035 -0.6100
  191MOL   H17946159   7.798   0.908   2.186 -1.0779  0.8686 -0.9841
  191MOL   H18046160   0.072   0.990   2.345 -0.5832  1.5804 -0.1464
  191MOL   H18146161   0.067   1.026   2.179 -0.7018  0.2176  0.4606
  191MOL   O18246162   0.291   0.866   2.363  0.0664  0.0455  0.7771
  191MOL   C18346163   0.428   0.843   2.378 -0.0600 -0.8206  0.1415
  191MOL   C18446164   0.507   0.958   2.444 -0.2724 -0.1711 -0.5534
  191MOL   C18546165   0.441   0.700   2.450 -0.2858  0.0645 -0.9791
  191MOL   C18646166   0.405   0.701   2.596  0.4246  0.3430 -0.3358
  191MOL   O18746167   0.323   0.622   2.648  0.1045 -0.6305 -0.3041
  191MOL   H18846168   0.475   0.818   2.283  0.3948  3.3437 -0.8570
  191MOL   H18946169   0.465   0.994   2.538 -2.9343 -0.1027 -1.7477
  191MOL   H19046170   0.508   1.043   2.376 -0.9184 -0.6049 -1.1006
  191MOL   H19146171   0.611   0.925   2.451 -0.3519 -0.9778 -2.7412
  191MOL   H19246172   0.547   0.676   2.442 -0.2753 -1.1098  2.1750
  191MOL   H19346173   0.374   0.628   2.405 -0.9718  0.0810  0.0060
  191MOL   O19446174   0.483   0.785   2.669  0.2617  0.7335 -0.2842
  191MOL   C19546175   0.455   0.834   2.800 -0.0359  0.3593 -0.1997
  191MOL   C19646176   0.590   0.867   2.855 -0.4515  0.1182 -0.2102
  191MOL   C19746177   0.359   0.957   2.800  0.2982  0.2555 -0.3615
  191MOL   C19846178   0.295   1.004   2.929  0.4497  0.0352 -0.3291
  191MOL   O19946179   0.175   0.983   2.954 -0.1792 -0.4679 -0.6258
  191MOL   H20046180   0.406   0.761   2.864  1.1360 -0.5255 -0.3066
  191MOL   H20146181   0.591   0.895   2.960 -1.4731  1.6322 -0.5984
  191MOL   H20246182   0.638   0.946   2.798 -1.6481  1.2152  0.2980
  191MOL   H20346183   0.654   0.778   2.855 -2.6094 -1.4842 -1.5045
  191MOL   H20446184   0.276   0.942   2.731  0.6727 -0.5079 -0.6510
  191MOL   H20546185   0.406   1.042   2.749  1.6093 -0.0419  0.3092
  191MOL   O20646186   0.381   1.069   3.010  0.0174  0.4476 -0.1249
  191MOL   C20746187   0.342   1.123   3.138 -0.5161 -0.1357 -0.0992
  191MOL   C20846188   0.402   1.045   3.256 -0.2314  1.0041 -0.5691
  191MOL   C20946189   0.371   1.274   3.141  0.3152  0.3029  0.7257
  191MOL   C21046190   0.299   1.342   3.254  0.2204  0.2724  0.6882
  191MOL   O21146191   0.178   1.321   3.275 -0.3490 -0.1938 -0.5073
  191MOL   H21246192   0.234   1.108   3.141 -0.2308 -2.4215 -0.4990
  191MOL   H21346193   0.407   1.102   3.349 -0.3778 -1.8219  1.2409
  191MOL   H21446194   0.501   1.011   3.228  0.3324 -0.3043  2.7232
  191MOL   H21546195   0.348   0.951   3.267 -2.1876  2.0902 -0.7390
  191MOL   H21646196   0.347   1.328   3.050  0.5666  1.3424  1.2752
  191MOL   H21746197   0.476   1.285   3.167  1.1026 -2.1291 -1.1674
  191MOL   O21846198   0.385   1.423   3.332  0.4578 -0.0318 -0.1497
  191MOL   C21946199   0.327   1.490   3.448 -0.2172  0.3970 -0.5343
  191MOL   C22046200   0.336   1.393   3.573 -0.4795  0.3811  0.0867
  191MOL   C22146201   0.411   1.618   3.463 -0.1508 -0.2790 -0.3602
  191MOL   C22246202   0.359   1.713   3.567 -0.5517  0.3807 -0.5516
  191MOL   O22346203   0.262   1.680   3.640  0.0163  0.5740 -0.1314
  191MOL   H22446204   0.222   1.499   3.422 -0.4746 -1.5868 -0.2588
  191MOL   H22546205   0.405   1.310   3.556 -1.0768  0.1664 -1.3794
  191MOL   H22646206   0.237   1.349   3.590 -1.1758  2.0631  0.4502
  191MOL   H22746207   0.361   1.438   3.668  1.9797 -1.0000  0.1284
  191MOL   H22846208   0.415   1.674   3.369 -0.6352 -0.6251 -0.5895
  191MOL   H22946209   0.510   1.592   3.500 -0.4989 -0.4857  0.4241
  191MOL   O23046210   0.430   1.825   3.570 -0.1587 -0.8101  0.3533
  191MOL   C23146211   0.385   1.941   3.647  0.1391  0.6033 -0.4649
  191MOL   C23246212   0.503   2.033   3.674  0.7355  0.6760 -0.1363
  191MOL   C23346213   0.252   2.012   3.594  0.6269  0.1173 -0.0294
  191MOL   C23446214   0.265   2.122   3.487 -0.1501  1.0358  0.7310
  191MOL   O23546215   0.359   2.114   3.409  0.3395  0.4240  0.2356
  191MOL   H23646216   0.367   1.890   3.742  0.8753 -2.0742 -1.7204
  191MOL   H23746217   0.592   1.983   3.711  0.7720  1.2216  0.5224
  191MOL   H23846218   0.475   2.099   3.756 -1.4245 -0.5471  0.1363
  191MOL   H23946219   0.533   2.100   3.594  1.3436  1.9048  1.0943
  191MOL   H24046220   0.212   2.058   3.684 -1.0118  0.9804 -1.1713
  191MOL   H24146221   0.192   1.932   3.550  0.7330 -0.6273  1.1597
  191MOL   H24246222   0.205   2.213   3.490  0.3475  1.4238 -0.5386
  192MOL     O146223   5.675   5.512   2.813 -0.7467  0.8192 -0.2237
  192MOL     C246224   5.611   5.606   2.731  0.4801 -0.9508 -0.4678
  192MOL     C346225   5.604   5.743   2.808  0.5472  0.5250 -0.2653
  192MOL     C446226   5.688   5.625   2.599 -0.3428 -0.5862  0.1795
  192MOL     C546227   5.613   5.705   2.483  0.2473 -0.4733 -0.8110
  192MOL     O646228   5.491   5.696   2.463 -0.3629 -0.4423 -0.6170
  192MOL     H746229   5.507   5.574   2.729  0.6110 -1.3782 -0.4828
  192MOL     H846230   5.555   5.721   2.903 -1.0337  0.3553 -1.1001
  192MOL     H946231   5.541   5.813   2.753 -1.4689 -2.5077 -2.0196
  192MOL    H1046232   5.697   5.797   2.825  0.0318  1.3296  0.0290
  192MOL    H1146233   5.704   5.523   2.564  1.3636  0.5722 -2.5986
  192MOL    H1246234   5.786   5.666   2.622  0.0898 -1.5926  0.1553
  192MOL    H1346235   5.695   5.538   2.902  0.4780 -0.2309 -0.1787
  192MOL    O1446236   5.693   5.770   2.404  0.2087 -0.3595  0.0080
  192MOL    C1546237   5.645   5.848   2.293 -0.4351 -0.5030 -0.1629
  192MOL    C1646238   5.743   5.954   2.249  0.1207 -0.2457  0.9510
  192MOL    C1746239   5.604   5.766   2.171  0.2941  0.5230 -0.5379
  192MOL    C1846240   5.518   5.845   2.075 -0.2399 -0.1306  0.3417
  192MOL    O1946241   5.562   5.885   1.972 -0.5479  0.0810 -0.3297
  192MOL    H2046242   5.562   5.905   2.336 -1.6466 -1.4720 -1.1629
  192MOL    H2146243   5.780   5.933   2.148 -0.9173  0.4380  0.4156
  192MOL    H2246244   5.830   5.951   2.314 -0.4213 -2.3102  1.6399
  192MOL    H2346245   5.682   6.043   2.235 -1.4561 -0.6957  4.5458
  192MOL    H2446246   5.543   5.680   2.200  0.5819 -0.1116 -1.7814
  192MOL    H2546247   5.689   5.734   2.112 -1.7957 -2.4881 -2.0880
  192MOL    O2646248   5.388   5.868   2.126  0.2180 -0.2999 -0.2162
  192MOL    C2746249   5.292   5.948   2.054 -0.7129  0.5157  0.9021
  192MOL    C2846250   5.206   5.838   1.991  0.4190  0.1200  0.3197
  192MOL    C2946251   5.234   6.051   2.157 -0.0769 -0.4085  0.5648
  192MOL    C3046252   5.097   6.104   2.117 -0.1625 -0.0979  0.8862
  192MOL    O3146253   5.098   6.209   2.053 -0.2510  0.4391  0.0752
  192MOL    H3246254   5.341   6.005   1.975  0.2108 -0.1236  0.9928
  192MOL    H3346255   5.160   5.778   2.070  0.3254  1.8277  1.6022
  192MOL    H3446256   5.284   5.784   1.937  0.1871 -0.0750  0.1845
  192MOL    H3546257   5.130   5.876   1.924 -0.7540 -1.4300  0.7375
  192MOL    H3646258   5.303   6.134   2.174 -0.0174 -0.1041 -1.1247
  192MOL    H3746259   5.216   5.994   2.248  0.4648 -0.5235  0.5988
  192MOL    O3846260   4.991   6.017   2.152 -0.3927 -0.7195  0.0025
  192MOL    C3946261   4.864   6.030   2.086  0.2307 -0.1285 -0.2228
  192MOL    C4046262   4.809   5.891   2.058  0.1516 -0.1360 -0.1282
  192MOL    C4146263   4.770   6.099   2.179 -0.2230 -0.3840 -0.5858
  192MOL    C4246264   4.812   6.238   2.224 -0.8799  0.2974 -0.4682
  192MOL    O4346265   4.791   6.337   2.158 -0.3052 -0.4082 -0.4513
  192MOL    H4446266   4.875   6.088   1.995  2.1595  1.5004  1.0140
  192MOL    H4546267   4.812   5.833   2.150  0.1750 -2.1323 -1.3643
  192MOL    H4646268   4.872   5.850   1.979  1.5286  0.6978  0.5032
  192MOL    H4746269   4.705   5.900   2.029  0.0881  1.3666  0.5131
  192MOL    H4846270   4.747   6.036   2.265  0.2427  0.4098  0.1141
  192MOL    H4946271   4.671   6.113   2.135 -1.4506 -1.0883  1.8405
  192MOL    O5046272   4.855   6.243   2.348  0.2125 -0.2156  0.5257
  192MOL    C5146273   4.878   6.368   2.416  0.1675  0.4245 -0.1461
  192MOL    C5246274   4.783   6.352   2.537 -0.7124  0.3140 -0.6916
  192MOL    C5346275   5.031   6.379   2.455  0.2879 -0.2115 -0.8771
  192MOL    C5446276   5.128   6.407   2.335  0.2128 -0.2079  0.0760
  192MOL    O5546277   5.225   6.337   2.310  0.4176 -0.1193 -0.0345
  192MOL    H5646278   4.842   6.458   2.366  0.5541 -0.1557 -1.4793
  192MOL    H5746279   4.685   6.320   2.502 -0.0286 -0.3850 -1.9743
  192MOL    H5846280   4.786   6.448   2.589 -0.6541  0.1724 -0.4289
  192MOL    H5946281   4.819   6.285   2.615  1.1338  2.7807  0.6796
  192MOL    H6046282   5.065   6.290   2.506 -1.1942 -0.6943 -0.7013
  192MOL    H6146283   5.047   6.457   2.529  1.3249  0.4898 -1.8196
  192MOL    O6246284   5.104   6.525   2.277  0.0050 -0.5466 -0.4583
  192MOL    C6346285   5.179   6.555   2.152 -0.7518 -0.8086 -0.1680
  192MOL    C6446286   5.070   6.562   2.048  0.2555  0.1307 -0.0549
  192MOL    C6546287   5.233   6.702   2.167 -0.4443 -0.1963 -0.0660
  192MOL    C6646288   5.363   6.720   2.249 -0.0857  0.3586  0.2728
  192MOL    O6746289   5.401   6.646   2.337 -0.4300 -0.9004 -0.2019
  192MOL    H6846290   5.258   6.484   2.126  1.0354  0.4319  1.6582
  192MOL    H6946291   5.016   6.470   2.025 -0.0804  0.1866  0.4990
  192MOL    H7046292   5.108   6.588   1.949 -2.0285  0.7640 -0.7903
  192MOL    H7146293   4.991   6.634   2.070 -0.9863 -0.7201 -1.6021
  192MOL    H7246294   5.156   6.763   2.215 -1.5717 -1.8261  0.2390
  192MOL    H7346295   5.258   6.742   2.069 -0.5976  1.1436  0.4257
  192MOL    O7446296   5.417   6.833   2.213  0.4358  0.4410  0.1613
  192MOL    C7546297   5.546   6.874   2.266 -0.3589 -0.0255 -0.2073
  192MOL    C7646298   5.660   6.781   2.221 -0.4165 -0.6817  0.3101
  192MOL    C7746299   5.577   7.025   2.239 -1.2011 -0.1271  0.2494
  192MOL    C7846300   5.617   7.057   2.096 -0.7766  0.7155 -0.2730
  192MOL    O7946301   5.697   7.144   2.062 -0.9216 -0.5307 -0.0620
  192MOL    H8046302   5.545   6.864   2.374 -0.6790 -1.5529 -0.3417
  192MOL    H8146303   5.758   6.819   2.247 -0.8778  1.1700 -0.6195
  192MOL    H8246304   5.663   6.779   2.112  0.2999  1.2752  0.2792
  192MOL    H8346305   5.646   6.678   2.253 -1.5909  0.0229  2.1048
  192MOL    H8446306   5.660   7.044   2.306 -1.0478  0.9723 -0.2356
  192MOL    H8546307   5.494   7.085   2.277 -1.1989 -1.0697  1.7539
  192MOL    O8646308   5.541   6.991   1.999  0.4219  0.2710  0.4815
  192MOL    C8746309   5.565   7.004   1.857  0.0298 -0.3320 -0.1047
  192MOL    C8846310   5.643   6.877   1.806  0.1094 -0.5545 -0.1828
  192MOL    C8946311   5.427   7.031   1.785  0.0229  0.7439 -0.0376
  192MOL    C9046312   5.321   6.923   1.788 -0.1442 -0.5482 -0.0631
  192MOL    O9146313   5.353   6.808   1.766 -0.4773  0.1965 -0.6097
  192MOL    H9246314   5.630   7.091   1.844  0.3162 -0.2863  1.4735
  192MOL    H9346315   5.743   6.863   1.847 -0.1426  0.5456  0.8487
  192MOL    H9446316   5.660   6.884   1.698  0.1405  0.6570 -0.1111
  192MOL    H9546317   5.592   6.784   1.830 -0.8967  0.4291  1.5663
  192MOL    H9646318   5.449   7.055   1.681  1.7371 -0.0264  0.1204
  192MOL    H9746319   5.383   7.120   1.830 -0.6556  0.8820 -0.9666
  192MOL    O9846320   5.191   6.966   1.806  0.4000 -0.5157 -0.6105
  192MOL    C9946321   5.076   6.879   1.817  0.2128  0.0569  0.7604
  192MOL   C10046322   5.010   6.886   1.961 -0.0213 -0.2366 -0.3385
  192MOL   C10146323   4.968   6.920   1.709 -0.0847 -0.7656 -0.0291
  192MOL   C10246324   4.995   6.864   1.568  0.4454 -0.8167  0.1108
  192MOL   O10346325   5.064   6.923   1.491 -0.2405  0.3758 -0.6038
  192MOL   H10446326   5.116   6.781   1.790 -0.8325 -1.1551  3.4156
  192MOL   H10546327   5.081   6.862   2.040 -0.2732  1.5054  0.4421
  192MOL   H10646328   4.924   6.820   1.968 -0.4252  0.3442  0.2306
  192MOL   H10746329   4.973   6.985   1.986 -0.2212 -0.2012 -0.7657
  192MOL   H10846330   4.942   7.026   1.704  0.8073 -0.5423 -0.0290
  192MOL   H10946331   4.871   6.883   1.743  1.4282 -1.6193  3.5376
  192MOL   O11046332   4.940   6.740   1.554  0.8556 -0.7378  0.3547
  192MOL   C11146333   4.902   6.690   1.430  0.1468 -0.0343 -0.2652
  192MOL   C11246334   4.861   6.549   1.468  0.1071  0.2367 -0.2346
  192MOL   C11346335   4.799   6.779   1.357  0.4568  0.8836 -0.5965
  192MOL   C11446336   4.665   6.786   1.438 -0.0569 -0.1247  0.3132
  192MOL   O11546337   4.573   6.711   1.409  0.4165 -0.0053  0.2009
  192MOL   H11646338   4.988   6.686   1.363  0.9759  0.4444  0.7675
  192MOL   H11746339   4.790   6.554   1.551 -1.2611  1.4489 -1.4498
  192MOL   H11846340   4.945   6.487   1.498 -1.1806 -0.8836  1.1547
  192MOL   H11946341   4.822   6.498   1.380  1.6302  0.8159 -1.2558
  192MOL   H12046342   4.760   6.744   1.261 -1.1323 -1.5204  0.8966
  192MOL   H12146343   4.844   6.879   1.349  1.2810  0.9946  4.0052
  192MOL   O12246344   4.664   6.874   1.536 -0.1449 -0.2907 -0.0896
  192MOL   C12346345   4.553   6.892   1.616  0.8028 -0.4466 -0.3754
  192MOL   C12446346   4.602   6.862   1.764 -0.6688  0.2459 -0.2560
  192MOL   C12546347   4.502   7.035   1.597  0.5450 -0.0680  0.0468
  192MOL   C12646348   4.356   7.054   1.627  0.5548 -0.2347 -0.2583
  192MOL   O12746349   4.316   7.153   1.686 -0.0799  0.0713  0.7859
  192MOL   H12846350   4.472   6.822   1.600 -1.9043  2.7834 -1.2825
  192MOL   H12946351   4.673   6.938   1.796  1.4033 -1.9998  0.5586
  192MOL   H13046352   4.653   6.767   1.776  0.2109  0.6189 -0.9729
  192MOL   H13146353   4.512   6.869   1.826  0.9054  0.2726  2.1116
  192MOL   H13246354   4.505   7.032   1.488 -0.3395 -3.7044  0.0681
  192MOL   H13346355   4.580   7.106   1.624  2.7368 -2.2415 -0.5014
  192MOL   O13446356   4.272   6.959   1.573  0.1537 -0.4332  0.0608
  192MOL   C13546357   4.132   6.984   1.557  0.5500 -0.1652  0.1745
  192MOL   C13646358   4.102   7.013   1.409 -0.4992 -0.0265  0.2461
  192MOL   C13746359   4.058   6.862   1.615 -0.0909  0.4382  0.2425
  192MOL   C13846360   4.102   6.728   1.570  0.7513  0.4654  0.3286
  192MOL   O13946361   4.052   6.685   1.467  0.1817  0.9193 -0.1931
  192MOL   H14046362   4.102   7.074   1.610 -0.6636  0.5055 -1.6039
  192MOL   H14146363   4.000   7.042   1.383 -0.5783  1.2613  1.9482
  192MOL   H14246364   4.126   6.922   1.353  0.3794 -0.0643  0.6777
  192MOL   H14346365   4.178   7.083   1.375 -1.8532  0.8439 -1.0696
  192MOL   H14446366   3.955   6.865   1.582  0.4596 -2.6501 -1.8773
  192MOL   H14546367   4.054   6.853   1.724 -0.9753 -1.6757  0.0503
  192MOL   O14646368   4.188   6.670   1.655 -0.7557  0.0350 -0.1429
  192MOL   C14746369   4.231   6.538   1.633 -0.3292 -0.2422  0.4174
  192MOL   C14846370   4.361   6.539   1.553  0.6008 -0.4424 -0.2245
  192MOL   C14946371   4.244   6.479   1.766 -0.0413  0.0176  0.0125
  192MOL   C15046372   4.111   6.441   1.834  0.8650 -0.6369 -0.0897
  192MOL   O15146373   4.082   6.327   1.862  0.2617  0.3360  0.1151
  192MOL   H15246374   4.154   6.481   1.581  0.6110 -0.9618 -0.1977
  192MOL   H15346375   4.351   6.573   1.450  0.7805 -0.8515 -0.3803
  192MOL   H15446376   4.398   6.437   1.538  0.2650 -0.3675 -1.6321
  192MOL   H15546377   4.427   6.605   1.608  2.2433 -1.7877 -0.5212
  192MOL   H15646378   4.284   6.551   1.837  0.8692 -0.2137 -0.2580
  192MOL   H15746379   4.300   6.386   1.777  1.3981  0.7264 -1.1546
  192MOL   O15846380   4.035   6.555   1.868 -0.3165 -0.2778  0.3367
  192MOL   C15946381   3.907   6.540   1.926  0.2062  0.4344 -0.0268
  192MOL   C16046382   3.916   6.561   2.076 -0.1341  0.0603 -0.1909
  192MOL   C16146383   3.814   6.650   1.882  0.0930  0.3364 -0.1682
  192MOL   C16246384   3.769   6.644   1.736  0.0525  0.3364 -0.1780
  192MOL   O16346385   3.765   6.751   1.666 -0.5117  0.0527 -0.1642
  192MOL   H16446386   3.869   6.443   1.893 -1.5372  1.2048 -0.2944
  192MOL   H16546387   3.820   6.558   2.127  0.2583  0.1883  0.5680
  192MOL   H16646388   3.973   6.646   2.113  0.2144 -0.4465  0.4568
  192MOL   H16746389   3.984   6.483   2.111  0.2723  0.8439  0.7866
  192MOL   H16846390   3.861   6.744   1.909 -1.0413  0.8592  0.0143
  192MOL   H16946391   3.725   6.647   1.945  0.5782  2.6583  0.6692
  192MOL   O17046392   3.724   6.525   1.700  0.3254  0.2209  0.6687
  192MOL   C17146393   3.688   6.476   1.576  0.8204 -0.3064  0.0381
  192MOL   C17246394   3.798   6.386   1.530  0.1871  0.2567 -0.1988
  192MOL   C17346395   3.546   6.421   1.561  0.0602  0.0215  0.2046
  192MOL   C17446396   3.519   6.289   1.632  0.9147 -0.7875  0.7244
  192MOL   O17546397   3.539   6.191   1.566  0.0435  0.0883 -0.1977
  192MOL   H17646398   3.693   6.555   1.501 -1.2268  1.0845  1.3273
  192MOL   H17746399   3.789   6.345   1.429 -3.6091 -0.4746  0.3460
  192MOL   H17846400   3.820   6.313   1.608 -2.8175 -0.4187  0.0864
  192MOL   H17946401   3.895   6.436   1.524 -0.4644  1.4788 -0.6678
  192MOL   H18046402   3.531   6.392   1.458 -0.5842 -0.0269  0.3144
  192MOL   H18146403   3.463   6.489   1.582 -0.7195  0.0384 -2.7572
  192MOL   O18246404   3.490   6.291   1.765  0.1360  0.5827  0.0449
  192MOL   C18346405   3.496   6.175   1.844  0.0504  0.4308  0.4687
  192MOL   C18446406   3.637   6.148   1.890  0.3966  0.4059 -0.5150
  192MOL   C18546407   3.408   6.214   1.961 -0.2483 -0.2108  0.4429
  192MOL   C18646408   3.331   6.097   2.021  0.2878 -0.1957  0.2360
  192MOL   O18746409   3.382   6.013   2.090 -0.0731 -0.0699 -0.5042
  192MOL   H18846410   3.450   6.094   1.788 -0.1881 -0.3735  1.8202
  192MOL   H18946411   3.658   6.074   1.967  3.9905  1.3671 -0.4430
  192MOL   H19046412   3.662   6.240   1.942  0.5658 -0.1249  0.3551
  192MOL   H19146413   3.691   6.149   1.795  0.2161  0.7954 -0.6143
  192MOL   H19246414   3.325   6.278   1.932  0.4301  0.1942 -0.6250
  192MOL   H19346415   3.463   6.260   2.043  1.4246  0.1330 -0.8555
  192MOL   O19446416   3.198   6.088   1.975  0.1729 -0.1890 -0.1287
  192MOL   C19546417   3.122   5.969   2.005 -0.0385  0.5548 -0.5598
  192MOL   C19646418   3.024   5.984   2.126 -0.2107 -0.1406 -0.0405
  192MOL   C19746419   3.043   5.931   1.879  0.2152  0.1930 -0.6693
  192MOL   C19846420   2.972   5.796   1.879 -0.0931 -0.1430  0.0449
  192MOL   O19946421   2.849   5.785   1.860 -0.1280 -0.7876 -0.2358
  192MOL   H20046422   3.187   5.881   2.005 -0.5911  0.0915  2.2455
  192MOL   H20146423   2.942   6.046   2.090 -1.2174 -0.9952  0.7389
  192MOL   H20246424   3.064   6.029   2.216  0.1454 -0.8322  0.1494
  192MOL   H20346425   2.995   5.890   2.173  1.9766 -0.1472  1.3251
  192MOL   H20446426   3.122   5.929   1.804 -1.6361 -0.7397 -2.6686
  192MOL   H20546427   2.971   6.009   1.854 -1.0331 -1.4636 -2.4331
  192MOL   O20646428   3.060   5.689   1.897  0.0724 -0.3857  0.5299
  192MOL   C20746429   3.011   5.558   1.882 -0.4286  0.2533 -0.0978
  192MOL   C20846430   3.125   5.466   1.832  0.0138  0.2888  0.4587
  192MOL   C20946431   2.936   5.509   2.010 -0.4604  0.3920  0.0344
  192MOL   C21046432   3.022   5.493   2.136  0.0779 -0.3770 -0.4838
  192MOL   O21146433   3.052   5.386   2.184 -0.2438 -0.6328 -0.2645
  192MOL   H21246434   2.929   5.566   1.811 -2.2843  0.1073  1.9762
  192MOL   H21346435   3.131   5.494   1.727  0.0766 -0.3042  0.3029
  192MOL   H21446436   3.090   5.363   1.832  0.0858  0.2418 -1.6515
  192MOL   H21546437   3.221   5.472   1.883  0.2976 -1.9400  0.2414
  192MOL   H21646438   2.899   5.410   1.981  0.7721  0.9362 -3.7666
  192MOL   H21746439   2.855   5.577   2.035 -0.2912  0.7846 -0.4736
  192MOL   O21846440   3.065   5.605   2.189  0.0620 -0.4357  0.4301
  192MOL   C21946441   3.156   5.607   2.293 -0.5613 -0.4373 -0.2964
  192MOL   C22046442   3.274   5.687   2.238 -0.7261  0.2243 -0.5094
  192MOL   C22146443   3.094   5.661   2.422  0.5691  0.3488  0.7054
  192MOL   C22246444   3.196   5.668   2.536 -0.1661  0.7842 -0.0928
  192MOL   O22346445   3.199   5.763   2.607  0.5000 -0.4855 -0.2904
  192MOL   H22446446   3.187   5.506   2.318 -0.2436 -0.7923 -2.0412
  192MOL   H22546447   3.232   5.786   2.220  0.9785  0.9853 -0.4027
  192MOL   H22646448   3.317   5.641   2.149 -0.1998 -1.5555  0.6305
  192MOL   H22746449   3.348   5.705   2.316  0.9352 -0.3734 -1.9106
  192MOL   H22846450   2.997   5.616   2.445  0.2112  0.5510 -0.3993
  192MOL   H22946451   3.064   5.764   2.407  1.1365  0.4025 -0.0426
  192MOL   O23046452   3.271   5.565   2.550 -0.0049 -0.3880 -0.1137
  192MOL   C23146453   3.378   5.565   2.639 -0.5575  0.8064 -1.0744
  192MOL   C23246454   3.344   5.475   2.763 -0.0839  0.0389  0.1987
  192MOL   C23346455   3.509   5.520   2.567  0.1674 -0.2731  0.0870
  192MOL   C23446456   3.571   5.630   2.478 -0.1775  0.4740  0.3558
  192MOL   O23546457   3.625   5.601   2.370  0.4458 -0.2699  0.2480
  192MOL   H23646458   3.396   5.661   2.688 -1.2879 -0.4305  1.7041
  192MOL   H23746459   3.238   5.488   2.784 -0.7386  2.2461 -3.9755
  192MOL   H23846460   3.392   5.504   2.857 -0.5979 -2.6017  1.3381
  192MOL   H23946461   3.356   5.370   2.737 -1.5987 -0.3917  1.1269
  192MOL   H24046462   3.500   5.434   2.501  2.1807 -0.3426 -0.1411
  192MOL   H24146463   3.588   5.500   2.639  0.4014 -0.6777 -0.2805
  192MOL   H24246464   3.549   5.730   2.516 -0.6172  0.3227  0.4978
  193MOL     O146465   6.553   4.662   6.665  0.2262  0.6728 -0.8405
  193MOL     C246466   6.466   4.767   6.692 -0.1144  0.1723  0.0066
  193MOL     C346467   6.460   4.800   6.849  0.5775  0.2310  0.4116
  193MOL     C446468   6.492   4.881   6.593  0.1481  0.5594 -0.3763
  193MOL     C546469   6.402   5.002   6.620 -1.3646  0.1965 -0.0686
  193MOL     O646470   6.452   5.112   6.633 -0.2607  0.4001  0.0046
  193MOL     H746471   6.370   4.727   6.662 -0.2445 -0.1590  0.8561
  193MOL     H846472   6.558   4.809   6.895 -0.3075 -0.9682  2.5963
  193MOL     H946473   6.430   4.708   6.899  2.1068 -0.0292  0.8658
  193MOL    H1046474   6.384   4.873   6.877 -0.8163 -1.0253 -0.0099
  193MOL    H1146475   6.475   4.841   6.493 -0.1646  0.1886 -0.1737
  193MOL    H1246476   6.596   4.910   6.603 -0.6461  3.6030 -0.3159
  193MOL    H1346477   6.517   4.583   6.704  2.1964 -0.2829 -0.8916
  193MOL    O1446478   6.268   4.970   6.623  0.1033 -0.3808 -0.1375
  193MOL    C1546479   6.163   5.061   6.663  0.0165  0.2089 -0.3628
  193MOL    C1646480   6.135   5.157   6.545 -0.4004 -0.3641 -0.4198
  193MOL    C1746481   6.032   4.988   6.697 -0.2564 -0.3542  0.4836
  193MOL    C1846482   6.049   4.901   6.816 -0.2342  0.2537  0.2632
  193MOL    O1946483   6.117   4.936   6.909 -0.5308  0.9004  0.0094
  193MOL    H2046484   6.202   5.116   6.748  1.7094 -1.0388 -0.2936
  193MOL    H2146485   6.051   5.225   6.563 -0.7833 -0.3505 -2.1076
  193MOL    H2246486   6.094   5.114   6.453 -2.7863 -2.4269  1.5176
  193MOL    H2346487   6.223   5.216   6.520  0.8679 -0.9794  2.4684
  193MOL    H2446488   5.992   4.932   6.612  0.5275  0.2656 -0.3169
  193MOL    H2546489   5.964   5.069   6.724 -0.3710 -0.4278  0.4083
  193MOL    O2646490   5.983   4.785   6.799  1.1940  0.1513  0.2969
  193MOL    C2746491   6.010   4.667   6.878 -0.2804  0.7259  0.2116
  193MOL    C2846492   5.874   4.598   6.904  0.1884  0.1822 -0.4449
  193MOL    C2946493   6.112   4.575   6.804 -0.9292  0.8426  0.3361
  193MOL    C3046494   6.083   4.561   6.656  0.9386  0.4780 -0.4596
  193MOL    O3146495   6.005   4.473   6.615 -0.4406 -0.0713 -0.1413
  193MOL    H3246496   6.043   4.686   6.980 -0.6157 -4.0677  1.2993
  193MOL    H3346497   5.822   4.577   6.811 -0.9080 -1.1837  0.4623
  193MOL    H3446498   5.807   4.665   6.958 -1.9546 -1.2552 -1.2392
  193MOL    H3546499   5.896   4.502   6.952 -2.7666 -0.3041  0.0288
  193MOL    H3646500   6.116   4.480   6.857  2.8905  1.2875  0.9921
  193MOL    H3746501   6.208   4.621   6.824 -0.6311  0.9236 -1.2527
  193MOL    O3846502   6.134   4.659   6.580  0.3472  0.3202  0.3641
  193MOL    C3946503   6.135   4.644   6.433  0.7426  0.2141 -0.3988
  193MOL    C4046504   6.079   4.766   6.355 -0.2805 -0.0038  0.0681
  193MOL    C4146505   6.283   4.610   6.390 -0.1709  0.4700 -0.2932
  193MOL    C4246506   6.290   4.550   6.252 -0.0556  0.3192 -0.0887
  193MOL    O4346507   6.378   4.580   6.175  0.3625 -0.2081  0.5048
  193MOL    H4446508   6.069   4.562   6.405 -0.9347  0.9945  1.1594
  193MOL    H4546509   6.150   4.846   6.377  0.1997  0.5065 -3.1214
  193MOL    H4646510   5.984   4.800   6.397 -0.5133  0.1340 -0.5600
  193MOL    H4746511   6.074   4.745   6.248  0.7127  0.8643 -0.1590
  193MOL    H4846512   6.327   4.547   6.467 -0.7409 -0.2773 -0.5705
  193MOL    H4946513   6.344   4.700   6.393  1.5321 -0.6715 -0.3975
  193MOL    O5046514   6.197   4.458   6.223 -0.9284  0.0026  0.5458
  193MOL    C5146515   6.199   4.390   6.094 -0.6756 -0.2850  0.0826
  193MOL    C5246516   6.217   4.246   6.139  0.1803  0.2116  0.2043
  193MOL    C5346517   6.075   4.411   6.006 -0.6710  0.0279 -0.3104
  193MOL    C5446518   6.041   4.555   5.960  0.2410 -0.1607 -0.4278
  193MOL    O5546519   5.925   4.590   5.937 -0.5038 -0.2664  0.1311
  193MOL    H5646520   6.294   4.412   6.045 -0.6710  1.7175  0.9377
  193MOL    H5746521   6.233   4.192   6.045 -1.7752 -0.0027 -0.0202
  193MOL    H5846522   6.135   4.192   6.187  1.9373  1.1054  4.3903
  193MOL    H5946523   6.309   4.218   6.191  0.3546  1.5106  0.6093
  193MOL    H6046524   5.992   4.372   6.065  1.7676 -3.3533  1.0375
  193MOL    H6146525   6.098   4.353   5.917 -2.3933 -0.6607 -0.3309
  193MOL    O6246526   6.151   4.627   5.942 -0.1868 -0.1586  0.0518
  193MOL    C6346527   6.150   4.745   5.871  0.7314  0.5655 -0.8111
  193MOL    C6446528   6.094   4.860   5.952  0.0537 -0.6867 -0.0832
  193MOL    C6546529   6.293   4.754   5.832 -1.2361 -0.3134  0.3360
  193MOL    C6646530   6.335   4.868   5.735  0.4005  0.1190  0.0082
  193MOL    O6746531   6.354   4.839   5.617  0.1357 -0.1532  0.4131
  193MOL    H6846532   6.085   4.749   5.784 -0.5168 -0.9392  0.0447
  193MOL    H6946533   6.103   4.956   5.901 -2.2797 -1.3054 -1.7352
  193MOL    H7046534   6.150   4.867   6.045  2.9473  1.6550 -1.9257
  193MOL    H7146535   5.989   4.856   5.981 -0.7406  0.6888 -2.6346
  193MOL    H7246536   6.321   4.662   5.782  0.3923  0.1777  0.3282
  193MOL    H7346537   6.359   4.754   5.918  0.4498  1.6856 -0.9115
  193MOL    O7446538   6.344   4.988   5.797 -0.3369  0.0870 -0.3560
  193MOL    C7546539   6.345   5.106   5.712 -0.4735  0.8152 -0.5399
  193MOL    C7646540   6.233   5.197   5.754  0.6344  0.6387 -0.4805
  193MOL    C7746541   6.480   5.176   5.709 -0.0396  0.0945 -0.0077
  193MOL    C7846542   6.488   5.307   5.631  0.2699 -0.0608  0.4850
  193MOL    O7946543   6.464   5.416   5.676 -0.1155 -0.8812 -0.3689
  193MOL    H8046544   6.327   5.078   5.608 -2.4114  0.2619 -0.0649
  193MOL    H8146545   6.135   5.154   5.774  1.3587 -0.4640  0.7504
  193MOL    H8246546   6.211   5.268   5.674 -1.9080  1.8429  1.1955
  193MOL    H8346547   6.263   5.263   5.836 -0.1848  1.8405 -1.1410
  193MOL    H8446548   6.557   5.100   5.696  2.0793  2.1945 -0.0086
  193MOL    H8546549   6.496   5.212   5.811 -1.1824  1.8861 -0.4383
  193MOL    O8646550   6.529   5.290   5.500  0.5386  0.4118  0.0419
  193MOL    C8746551   6.523   5.400   5.412 -0.0293 -0.7569 -0.3962
  193MOL    C8846552   6.668   5.418   5.357  0.2646  0.1103  0.0036
  193MOL    C8946553   6.418   5.371   5.302  0.1200 -0.5254 -0.4709
  193MOL    C9046554   6.281   5.354   5.367 -0.2245 -0.1260  0.0424
  193MOL    O9146555   6.212   5.257   5.362  0.7236 -0.2665 -0.0769
  193MOL    H9246556   6.498   5.498   5.452  1.2621 -0.6266  0.0983
  193MOL    H9346557   6.699   5.334   5.295  3.3854  0.5314  0.9086
  193MOL    H9446558   6.738   5.415   5.440 -0.7161  1.2043  0.8816
  193MOL    H9546559   6.699   5.499   5.290  1.4235 -1.3634 -1.2760
  193MOL    H9646560   6.441   5.288   5.235  0.5049 -0.6063 -0.2344
  193MOL    H9746561   6.420   5.456   5.234  1.0023 -1.6105 -1.8313
  193MOL    O9846562   6.238   5.471   5.425  0.2188  0.1926 -0.4536
  193MOL    C9946563   6.103   5.494   5.469 -0.3322 -0.3333 -0.4293
  193MOL   C10046564   6.117   5.576   5.604 -0.0447 -0.1017 -0.3677
  193MOL   C10146565   6.009   5.559   5.368  0.1629  0.4317  0.6186
  193MOL   C10246566   5.956   5.465   5.265  0.1881 -0.7058 -0.3365
  193MOL   O10346567   5.846   5.420   5.284 -0.6422  0.0177  0.2791
  193MOL   H10446568   6.063   5.398   5.502 -0.5560 -0.7421 -1.8495
  193MOL   H10546569   6.144   5.676   5.568 -2.0940  0.3170 -0.8156
  193MOL   H10646570   6.183   5.529   5.678 -1.6581  1.8995  2.4484
  193MOL   H10746571   6.023   5.588   5.658  2.0619 -2.0280  4.0172
  193MOL   H10846572   6.049   5.650   5.322 -0.0736  0.2780  0.1107
  193MOL   H10946573   5.921   5.593   5.423 -0.6851 -0.0979 -0.4017
  193MOL   O11046574   6.040   5.442   5.158 -0.4982 -0.0402 -0.0221
  193MOL   C11146575   5.993   5.348   5.061  0.1150 -0.3277 -0.1885
  193MOL   C11246576   6.030   5.406   4.914 -0.2791  0.1731  0.2436
  193MOL   C11346577   6.054   5.208   5.081  0.0604 -0.3242  0.4044
  193MOL   C11446578   5.995   5.089   5.014  0.0234  0.5026 -0.4087
  193MOL   O11546579   6.059   4.991   4.984 -0.0447 -0.2050  0.2781
  193MOL   H11646580   5.884   5.352   5.058  0.1313 -0.1745 -0.5944
  193MOL   H11746581   6.137   5.389   4.903 -0.1894  0.1121  1.1168
  193MOL   H11846582   6.008   5.512   4.900 -1.6817 -0.0539  0.6465
  193MOL   H11946583   5.973   5.351   4.839 -2.2969 -0.3119  2.0678
  193MOL   H12046584   6.049   5.187   5.188  2.9433 -0.2675  0.6007
  193MOL   H12146585   6.158   5.218   5.051 -0.6151  1.8900 -1.3488
  193MOL   O12246586   5.861   5.111   4.971 -0.4237  0.0330  0.2800
  193MOL   C12346587   5.806   5.018   4.882  0.5089 -0.8975 -0.1454
  193MOL   C12446588   5.754   4.896   4.955  1.0410 -0.2355 -0.0547
  193MOL   C12546589   5.707   5.101   4.808  0.3263  0.3862 -0.3067
  193MOL   C12646590   5.560   5.095   4.860 -0.3164 -0.4974  0.0948
  193MOL   O12746591   5.519   5.163   4.956  0.3719 -0.3670 -1.2802
  193MOL   H12846592   5.875   4.972   4.812 -1.4244  1.6924 -3.9030
  193MOL   H12946593   5.824   4.830   5.006  1.4369  0.5798  0.4713
  193MOL   H13046594   5.699   4.832   4.886  0.0225  0.0498  0.4889
  193MOL   H13146595   5.675   4.920   5.027  0.2036 -0.1414 -1.0014
  193MOL   H13246596   5.702   5.067   4.704  2.0315  2.9712 -1.2805
  193MOL   H13346597   5.737   5.205   4.798  0.4758  0.3390 -0.3511
  193MOL   O13446598   5.483   5.028   4.774  0.6324  0.4413  0.3983
  193MOL   C13546599   5.345   5.020   4.789  0.5696 -0.3166 -0.1111
  193MOL   C13646600   5.277   5.117   4.687  0.0657  0.0159 -0.1379
  193MOL   C13746601   5.322   4.873   4.753  0.1610 -0.2777 -0.1651
  193MOL   C13846602   5.175   4.820   4.752 -0.1637 -0.8546 -0.8361
  193MOL   O13946603   5.121   4.818   4.864  0.1980  0.1003  1.1628
  193MOL   H14046604   5.299   5.033   4.887 -0.0972 -0.9836 -0.3331
  193MOL   H14146605   5.288   5.223   4.709 -1.8412 -0.3647  2.9319
  193MOL   H14246606   5.171   5.095   4.681 -0.6312  0.9228  5.5268
  193MOL   H14346607   5.333   5.098   4.596 -2.6449 -1.3374 -1.5817
  193MOL   H14446608   5.380   4.808   4.818 -0.1954  1.6337  2.1174
  193MOL   H14546609   5.357   4.847   4.653  1.7645 -1.7362  0.7498
  193MOL   O14646610   5.122   4.803   4.627  0.3259 -0.4425  0.0985
  193MOL   C14746611   4.977   4.787   4.617 -0.2809 -0.3122  0.4222
  193MOL   C14846612   4.918   4.913   4.558  0.0327 -0.0224  0.7007
  193MOL   C14946613   4.954   4.666   4.521 -0.0332 -0.2568 -0.4585
  193MOL   C15046614   4.813   4.614   4.513  1.0683 -0.5319  0.5104
  193MOL   O15146615   4.727   4.671   4.580 -0.9533 -0.2663 -0.1653
  193MOL   H15246616   4.922   4.789   4.711 -0.7355  0.0831  0.1510
  193MOL   H15346617   4.938   5.002   4.619 -0.2257 -0.0255  0.7887
  193MOL   H15446618   4.810   4.904   4.552 -0.1120  1.8288 -0.0947
  193MOL   H15546619   4.934   4.926   4.451  1.6016 -2.7426  0.5647
  193MOL   H15646620   5.021   4.587   4.554  0.2105 -0.9389 -2.5143
  193MOL   H15746621   4.991   4.698   4.423  0.7629  1.3359  0.3449
  193MOL   O15846622   4.795   4.509   4.430  0.4450 -0.6600  0.0175
  193MOL   C15946623   4.660   4.477   4.386 -0.7216  0.1720 -0.1715
  193MOL   C16046624   4.642   4.529   4.235  0.5072  0.8995 -0.5314
  193MOL   C16146625   4.647   4.324   4.386  0.0907 -0.7644  0.0126
  193MOL   C16246626   4.620   4.266   4.522  0.5768  0.1929 -0.1154
  193MOL   O16346627   4.514   4.207   4.549 -0.3215  0.6321 -0.2122
  193MOL   H16446628   4.588   4.517   4.457 -0.1748  1.5291 -0.3648
  193MOL   H16546629   4.536   4.538   4.212 -0.2733  0.1246  2.4905
  193MOL   H16646630   4.665   4.444   4.172  0.7574  0.4217  0.1978
  193MOL   H16746631   4.701   4.619   4.216  0.5295  0.5615 -2.1463
  193MOL   H16846632   4.733   4.275   4.340  0.3394 -0.4675  0.1511
  193MOL   H16946633   4.567   4.303   4.315  1.2699 -0.4517 -1.4508
  193MOL   O17046634   4.719   4.284   4.619  0.3053  0.5761  0.1948
  193MOL   C17146635   4.695   4.255   4.757 -0.1732  0.8513 -0.7228
  193MOL   C17246636   4.708   4.106   4.782 -0.0915  0.3026 -0.7049
  193MOL   C17346637   4.766   4.353   4.857  0.0025 -0.6153  0.0727
  193MOL   C17446638   4.675   4.456   4.915  0.0866  0.1437 -0.2060
  193MOL   O17546639   4.644   4.461   5.035 -0.2190 -0.0530  0.6204
  193MOL   H17646640   4.592   4.288   4.768  0.2185  2.3466 -1.2953
  193MOL   H17746641   4.665   4.085   4.880 -0.5245 -2.0931 -1.3680
  193MOL   H17846642   4.812   4.075   4.795  0.2079  1.6231  0.1072
  193MOL   H17946643   4.657   4.035   4.716 -1.8213 -1.0787  2.0583
  193MOL   H18046644   4.861   4.390   4.817  1.2459 -3.6178  0.0419
  193MOL   H18146645   4.790   4.296   4.947 -0.2092 -1.3680 -0.3419
  193MOL   O18246646   4.624   4.541   4.820  0.3415 -0.1661  0.0480
  193MOL   C18346647   4.527   4.637   4.865  0.3080 -0.8450 -0.6008
  193MOL   C18446648   4.599   4.772   4.878 -0.3478 -0.8628 -0.5182
  193MOL   C18546649   4.415   4.626   4.759 -0.4998  1.0928 -0.3247
  193MOL   C18646650   4.327   4.503   4.781  0.6241  0.2467  0.0300
  193MOL   O18746651   4.381   4.395   4.796  0.5791  0.0146  1.1361
  193MOL   H18846652   4.488   4.628   4.966  0.7212  1.4228 -0.2025
  193MOL   H18946653   4.609   4.818   4.780 -1.8577  1.3111  0.2960
  193MOL   H19046654   4.700   4.756   4.915  0.2492 -1.4338 -2.3420
  193MOL   H19146655   4.550   4.847   4.940  0.9059  0.7054 -1.3843
  193MOL   H19246656   4.451   4.631   4.657 -0.9297  2.7645 -0.4164
  193MOL   H19346657   4.356   4.717   4.774  0.9048  2.1757 -1.3168
  193MOL   O19446658   4.192   4.534   4.787 -0.2844  0.2009  0.2393
  193MOL   C19546659   4.105   4.436   4.846 -0.2777 -0.4112 -0.6164
  193MOL   C19646660   4.030   4.502   4.961  0.3127 -0.1366  0.9650
  193MOL   C19746661   3.988   4.389   4.752 -0.3941 -0.2692 -0.3244
  193MOL   C19846662   4.032   4.308   4.633  0.5895  0.4184 -0.2054
  193MOL   O19946663   4.026   4.182   4.636  0.6160  0.1319  0.3014
  193MOL   H20046664   4.155   4.348   4.885 -0.3351 -0.6634 -1.1001
  193MOL   H20146665   3.974   4.437   5.028 -2.4801  2.9272  1.7563
  193MOL   H20246666   3.964   4.575   4.913  2.7256  0.4699 -1.5247
  193MOL   H20346667   4.102   4.553   5.025  0.0601 -0.4000  1.4582
  193MOL   H20446668   3.932   4.475   4.715 -0.1761 -0.2806 -0.6877
  193MOL   H20546669   3.915   4.326   4.802  0.6775  0.1250  1.7573
  193MOL   O20646670   4.077   4.385   4.527  0.6216  0.0584  0.2979
  193MOL   C20746671   4.167   4.328   4.430 -0.1329 -0.0548  0.0543
  193MOL   C20846672   4.092   4.306   4.295  0.2677 -0.3189 -0.1907
  193MOL   C20946673   4.289   4.417   4.427 -0.5740 -0.1878 -0.2894
  193MOL   C21046674   4.257   4.565   4.387  0.6534  0.1079 -0.5812
  193MOL   O21146675   4.284   4.661   4.458  0.6739  0.2171  0.0779
  193MOL   H21246676   4.207   4.230   4.454  0.1420 -0.1647 -0.8458
  193MOL   H21346677   4.017   4.227   4.294  0.2615 -0.3044 -2.0020
  193MOL   H21446678   4.163   4.280   4.216  1.7305 -0.4346  1.1165
  193MOL   H21546679   4.034   4.387   4.251  1.1430  0.2439 -0.3316
  193MOL   H21646680   4.367   4.375   4.363 -0.4696  1.2732 -1.1560
  193MOL   H21746681   4.351   4.410   4.516  0.3582 -2.1047 -1.0817
  193MOL   O21846682   4.210   4.579   4.260 -0.4055 -0.5414  0.2564
  193MOL   C21946683   4.209   4.706   4.198  0.7190  0.0176 -0.3554
  193MOL   C22046684   4.327   4.720   4.100 -0.0368 -0.3099 -0.0495
  193MOL   C22146685   4.079   4.705   4.112  0.5306 -0.3154  0.8458
  193MOL   C22246686   4.017   4.840   4.062  0.3974 -0.0536 -0.7493
  193MOL   O22346687   3.908   4.885   4.095  0.4010 -0.2188 -0.4267
  193MOL   H22446688   4.209   4.789   4.268  0.0992 -0.0041 -0.3208
  193MOL   H22546689   4.327   4.804   4.031 -0.5807 -0.7045 -0.5288
  193MOL   H22646690   4.348   4.631   4.040 -0.0379 -0.2601 -0.1233
  193MOL   H22746691   4.420   4.722   4.158 -0.4733 -0.7274  0.6767
  193MOL   H22846692   4.009   4.664   4.185  0.3463  0.3672  1.0500
  193MOL   H22946693   4.091   4.643   4.023  2.0524  0.0751  0.7598
  193MOL   O23046694   4.106   4.894   3.970  0.2896  0.9542 -0.3871
  193MOL   C23146695   4.094   5.027   3.921  0.6695  0.5397 -0.3049
  193MOL   C23246696   4.232   5.091   3.964  0.4701 -0.0185  0.3871
  193MOL   C23346697   4.050   5.054   3.780  0.2499 -0.1789 -0.1216
  193MOL   C23446698   4.135   4.987   3.672  0.0007 -0.1590 -0.3471
  193MOL   O23546699   4.214   5.045   3.603  0.3271  0.0428  0.1436
  193MOL   H23646700   4.018   5.078   3.980  1.6501  0.6745  0.8738
  193MOL   H23746701   4.226   5.200   3.976 -1.2112 -0.2254  1.5274
  193MOL   H23846702   4.311   5.067   3.893  0.9715 -0.7571  1.1941
  193MOL   H23946703   4.255   5.052   4.063 -0.0066 -0.9675  0.1294
  193MOL   H24046704   4.057   5.162   3.780 -0.0166 -0.1506  2.0850
  193MOL   H24146705   3.950   5.019   3.754  1.0565 -2.4909 -0.2283
  193MOL   H24246706   4.104   4.883   3.658 -2.3426  0.4570  0.1405
  194MOL     O146707   0.789   6.308   0.805  0.2803  0.2104 -0.3283
  194MOL     C246708   0.876   6.418   0.799  0.7275 -0.5595 -0.4335
  194MOL     C346709   0.800   6.544   0.830 -0.4189  0.1308  0.3863
  194MOL     C446710   0.996   6.380   0.889 -0.2488 -0.4441 -0.1521
  194MOL     C546711   1.118   6.473   0.896  1.4022 -0.0616  0.4483
  194MOL     O646712   1.145   6.555   0.807  0.0415 -0.2879  0.3032
  194MOL     H746713   0.905   6.434   0.695  0.8924  2.3274  0.0323
  194MOL     H846714   0.763   6.539   0.933  0.7450 -1.5331  0.7368
  194MOL     H946715   0.717   6.550   0.760  1.5711 -1.4523 -2.2175
  194MOL    H1046716   0.853   6.638   0.819 -0.4255  0.2255  1.1093
  194MOL    H1146717   1.033   6.279   0.872 -0.0941 -0.3065 -0.6237
  194MOL    H1246718   0.962   6.379   0.992 -0.4728 -1.5811 -0.2260
  194MOL    H1346719   0.746   6.305   0.889  2.0818 -0.1174  0.6197
  194MOL    O1446720   1.176   6.471   1.017  0.1403  0.0826 -0.1165
  194MOL    C1546721   1.272   6.568   1.062  0.1467  0.7087 -0.2194
  194MOL    C1646722   1.205   6.662   1.169 -0.1755 -0.5006 -1.1210
  194MOL    C1746723   1.394   6.503   1.118 -0.0440 -0.2161 -0.1921
  194MOL    C1846724   1.499   6.605   1.173 -0.0017 -0.0947  0.4415
  194MOL    O1946725   1.526   6.609   1.291 -0.4315 -0.2727  0.2564
  194MOL    H2046726   1.306   6.635   0.983 -1.1108  3.2460  1.3202
  194MOL    H2146727   1.106   6.688   1.131 -0.3054 -1.8980 -1.7613
  194MOL    H2246728   1.261   6.754   1.186  0.1961 -0.6434 -1.5671
  194MOL    H2346729   1.198   6.615   1.267  0.7115  1.3658 -0.1431
  194MOL    H2446730   1.444   6.456   1.033 -1.0602 -0.0434 -0.8930
  194MOL    H2546731   1.386   6.422   1.190  1.4635 -1.4870 -1.3968
  194MOL    O2646732   1.545   6.683   1.072 -0.0369 -0.0504  0.0786
  194MOL    C2746733   1.652   6.774   1.091  0.9201  0.3325 -0.3747
  194MOL    C2846734   1.786   6.719   1.033 -0.0415  0.0922 -0.5019
  194MOL    C2946735   1.618   6.917   1.038 -0.0224  0.4739 -0.1913
  194MOL    C3046736   1.702   7.028   1.099 -0.3724 -0.7686 -0.3408
  194MOL    O3146737   1.656   7.112   1.175 -0.3402  0.4508 -0.1315
  194MOL    H3246738   1.665   6.784   1.199  0.0450 -0.5423 -0.1820
  194MOL    H3346739   1.761   6.706   0.927 -0.5794 -1.8158 -0.1671
  194MOL    H3446740   1.826   6.627   1.076 -1.4090 -1.4292 -2.3528
  194MOL    H3546741   1.863   6.795   1.037 -1.7631  1.8564 -0.2936
  194MOL    H3646742   1.516   6.941   1.065  0.2168  0.7153  0.4999
  194MOL    H3746743   1.616   6.909   0.929 -1.2889 -0.1348 -0.1294
  194MOL    O3846744   1.825   7.029   1.055  0.1383  0.3274 -0.4416
  194MOL    C3946745   1.924   7.122   1.104  0.0876  0.2124  0.4036
  194MOL    C4046746   2.051   7.036   1.114 -0.3281 -0.7200  0.4808
  194MOL    C4146747   1.943   7.251   1.019  0.3048  0.2026  0.0755
  194MOL    C4246748   1.933   7.385   1.081  0.1078 -0.6184 -0.4506
  194MOL    O4346749   1.840   7.469   1.067  0.0945  0.1722 -0.2467
  194MOL    H4446750   1.906   7.148   1.208 -0.3342 -1.3988  0.7498
  194MOL    H4546751   2.125   7.088   1.175 -1.0325  2.5147 -1.3145
  194MOL    H4646752   2.090   6.993   1.022 -2.1912  1.1073 -1.2328
  194MOL    H4746753   2.043   6.947   1.177 -0.1878 -1.8425 -1.0708
  194MOL    H4846754   1.859   7.251   0.950 -0.8810 -0.7183  1.5050
  194MOL    H4946755   2.019   7.252   0.941 -0.2647  2.5646 -0.5045
  194MOL    O5046756   2.046   7.415   1.155  0.1332 -0.3671 -0.1076
  194MOL    C5146757   2.046   7.527   1.243  0.5110  1.1517 -0.0648
  194MOL    C5246758   2.058   7.475   1.388  0.8249  0.2229 -0.1686
  194MOL    C5346759   2.150   7.624   1.195 -0.0231 -0.0241 -0.6158
  194MOL    C5446760   2.107   7.711   1.074  0.2879  0.6155 -1.0067
  194MOL    O5546761   2.165   7.711   0.967 -1.1554  0.5821 -0.3316
  194MOL    H5646762   1.953   7.583   1.250 -0.6128 -0.4838 -1.6127
  194MOL    H5746763   1.966   7.422   1.411  0.6193  0.3955 -0.5910
  194MOL    H5846764   2.049   7.559   1.457  0.1542  1.6264 -1.9401
  194MOL    H5946765   2.145   7.415   1.414  0.7617 -1.3091 -3.3381
  194MOL    H6046766   2.244   7.570   1.179  1.7496  2.3336  1.3738
  194MOL    H6146767   2.176   7.702   1.267 -2.1069 -1.3476  1.6504
  194MOL    O6246768   1.997   7.789   1.108 -0.5162 -0.5042  0.4043
  194MOL    C6346769   1.927   7.840   0.996  0.4938 -0.1963  0.6490
  194MOL    C6446770   1.776   7.828   1.032  0.1891  0.3691 -0.5691
  194MOL    C6546771   1.976   0.008   0.969  1.0615 -0.3096 -0.6569
  194MOL    C6646772   2.079   0.012   0.855 -0.4146  0.1487  0.5285
  194MOL    O6746773   2.055   7.941   0.745  0.1551  0.1213  0.0549
  194MOL    H6846774   1.942   7.788   0.901 -0.0226 -0.6374  0.8026
  194MOL    H6946775   1.741   7.727   1.057 -0.5634  0.1323 -2.5502
  194MOL    H7046776   1.697   7.875   0.974 -2.0211 -1.0199  1.2435
  194MOL    H7146777   1.768   7.875   1.130  0.4804  0.7287 -0.7160
  194MOL    H7246778   2.000   0.062   1.060 -1.6027 -1.8157  1.0036
  194MOL    H7346779   1.888   0.068   0.943  1.5515  0.5281 -0.3975
  194MOL    O7446780   2.199   0.057   0.900 -0.4194 -0.8289  0.1881
  194MOL    C7546781   2.311   0.064   0.818  0.3412 -0.3127  0.5858
  194MOL    C7646782   2.392   0.188   0.862 -0.1537 -0.2457  0.0302
  194MOL    C7746783   2.374   7.897   0.815 -0.7146 -0.5812 -0.7709
  194MOL    C7846784   2.454   7.855   0.938  0.5671  0.2811 -0.0645
  194MOL    O7946785   2.541   7.764   0.926  0.3393 -0.1725  0.4081
  194MOL    H8046786   2.281   0.092   0.717 -0.5822 -2.2148  0.2986
  194MOL    H8146787   2.421   0.171   0.965  1.1363  1.2890 -0.0599
  194MOL    H8246788   2.329   0.277   0.856 -0.3644 -0.4762 -1.5677
  194MOL    H8346789   2.484   0.209   0.807 -0.1297 -0.6948 -0.1074
  194MOL    H8446790   2.443   7.884   0.731  0.5173  0.5767  0.0497
  194MOL    H8546791   2.296   7.822   0.802 -1.5882 -0.0203  1.2104
  194MOL    O8646792   2.406   7.912   1.053 -0.7844 -0.5897  0.3109
  194MOL    C8746793   2.484   7.907   1.170  0.1424  0.1809  0.2270
  194MOL    C8846794   2.417   0.032   1.260 -0.1045  0.8048 -0.2368
  194MOL    C8946795   2.491   7.770   1.241 -0.0795 -0.2233  0.5230
  194MOL    C9046796   2.606   7.770   1.340 -0.0591  0.1643  0.0235
  194MOL    O9146797   2.576   7.764   1.458  0.1142  0.0646 -0.0801
  194MOL    H9246798   2.586   7.932   1.141 -0.4993 -0.0124 -2.3274
  194MOL    H9346799   2.468   0.036   1.357  1.8130  0.6028 -1.2207
  194MOL    H9446800   2.316   0.012   1.297 -0.5561  0.2709 -1.7493
  194MOL    H9546801   2.414   0.133   1.218 -1.1208  1.3764  1.1616
  194MOL    H9646802   2.515   7.690   1.171  0.0444  1.6270 -1.5789
  194MOL    H9746803   2.392   7.759   1.286 -0.0362 -2.1803  0.2037
  194MOL    O9846804   2.734   7.775   1.280 -0.0955 -0.1332  0.5836
  194MOL    C9946805   2.862   7.791   1.343 -0.1306 -0.0100  0.3162
  194MOL   C10046806   2.902   7.653   1.400 -0.2189 -0.0307 -0.3540
  194MOL   C10146807   2.961   7.843   1.233  0.2315  0.0753 -0.4571
  194MOL   C10246808   2.945   0.012   1.201 -0.6314 -0.1921 -0.4972
  194MOL   O10346809   2.991   0.104   1.275  0.7359 -0.2475 -0.1035
  194MOL   H10446810   2.863   7.866   1.423 -2.1626  0.3251  0.0453
  194MOL   H10546811   2.833   7.630   1.481 -0.5232 -0.5386 -0.7490
  194MOL   H10646812   3.003   7.648   1.440  0.7415 -0.6261 -2.7107
  194MOL   H10746813   2.889   7.572   1.328 -0.2766 -1.2146  0.9670
  194MOL   H10846814   2.937   7.784   1.145 -0.3005 -0.0449 -0.2321
  194MOL   H10946815   3.067   7.819   1.241  0.3909  0.3642 -1.6986
  194MOL   O11046816   2.885   0.019   1.077 -0.0345  0.1140 -0.4130
  194MOL   C11146817   2.862   0.137   0.999 -0.4446  0.1844  0.4009
  194MOL   C11246818   2.776   0.239   1.077  0.1690 -0.6657 -0.5580
  194MOL   C11346819   2.986   0.195   0.931  0.4168 -0.5885  1.1730
  194MOL   C11446820   2.967   0.289   0.811 -0.2378  0.0915 -0.1271
  194MOL   O11546821   2.976   0.251   0.697 -0.0977  0.6469 -0.2241
  194MOL   H11646822   2.802   0.099   0.916  0.9532 -1.7807  0.2583
  194MOL   H11746823   2.690   0.192   1.125  0.2026 -0.7893 -0.6196
  194MOL   H11846824   2.736   0.305   1.000  0.5277  0.2576  0.0323
  194MOL   H11946825   2.831   0.295   1.153 -3.4952  2.5275 -0.1313
  194MOL   H12046826   3.048   0.107   0.913 -1.7343 -1.8437 -0.3247
  194MOL   H12146827   3.054   0.236   1.005  1.4809 -1.3277  0.6337
  194MOL   O12246828   2.945   0.415   0.852 -0.1855  0.8109  0.2313
  194MOL   C12346829   2.963   0.517   0.752  0.9555 -0.0052  0.4335
  194MOL   C12446830   2.851   0.513   0.642  0.3252  0.9844  0.2518
  194MOL   C12546831   2.988   0.657   0.824 -0.0551  0.3892  0.1615
  194MOL   C12646832   2.863   0.719   0.876  0.5290  0.4753  0.4225
  194MOL   O12746833   2.837   0.711   0.995  0.1666 -0.7966 -0.6149
  194MOL   H12846834   3.060   0.507   0.703  0.3250 -0.1124 -0.8001
  194MOL   H12946835   2.869   0.434   0.570  2.3329  1.0889  0.6284
  194MOL   H13046836   2.845   0.596   0.572  2.3294 -1.1032 -2.5176
  194MOL   H13146837   2.750   0.491   0.679  0.4708  0.6904  0.4772
  194MOL   H13246838   3.035   0.731   0.759 -0.1028  0.6270  0.3976
  194MOL   H13346839   3.058   0.639   0.905  2.8518  1.6660 -1.9590
  194MOL   O13446840   2.782   0.788   0.793 -0.4772 -0.5386  0.4325
  194MOL   C13546841   2.674   0.860   0.841  0.0641 -0.4553  0.9191
  194MOL   C13646842   2.720   0.989   0.909 -0.0481  0.3061  0.3905
  194MOL   C13746843   2.580   0.893   0.722  0.4628  0.7486 -0.4036
  194MOL   C13846844   2.500   0.770   0.683 -0.7466 -0.1859 -0.9881
  194MOL   O13946845   2.451   0.688   0.764 -0.0361 -0.0735  0.0986
  194MOL   H14046846   2.627   0.794   0.913  1.4701  0.1957  2.4615
  194MOL   H14146847   2.629   1.044   0.934  1.3576  3.1492 -0.5479
  194MOL   H14246848   2.783   1.049   0.843 -1.1846  0.6192 -0.4131
  194MOL   H14346849   2.772   0.961   1.001  0.5692  0.5705  0.1242
  194MOL   H14446850   2.637   0.927   0.636 -0.2664 -1.2342 -1.7211
  194MOL   H14546851   2.504   0.966   0.749  0.2082  0.3699 -0.0799
  194MOL   O14646852   2.494   0.747   0.551  0.4636 -0.0078 -0.0974
  194MOL   C14746853   2.413   0.633   0.505 -0.6355 -0.2063 -0.6500
  194MOL   C14846854   2.329   0.686   0.391 -0.8212 -0.4832 -0.3741
  194MOL   C14946855   2.502   0.505   0.484  0.1719  0.2491  0.2461
  194MOL   C15046856   2.602   0.509   0.366  0.5127 -0.1160  0.3519
  194MOL   O15146857   2.622   0.617   0.304  0.1244  0.1845  0.1175
  194MOL   H15246858   2.337   0.606   0.578 -1.9232  2.4482 -0.9509
  194MOL   H15346859   2.259   0.607   0.361 -0.1958 -1.0870 -0.2546
  194MOL   H15446860   2.385   0.699   0.299  0.2434 -2.9593 -0.1211
  194MOL   H15546861   2.273   0.772   0.427 -1.3098 -1.2519  0.7632
  194MOL   H15646862   2.436   0.420   0.468  1.8197 -1.3618  1.8341
  194MOL   H15746863   2.560   0.494   0.575  0.9192 -0.2238 -0.2821
  194MOL   O15846864   2.657   0.383   0.346 -0.1353  0.1667 -0.2056
  194MOL   C15946865   2.736   0.361   0.233 -0.2386  0.0361 -0.0989
  194MOL   C16046866   2.882   0.410   0.257 -0.1763  0.2985 -0.0680
  194MOL   C16146867   2.733   0.209   0.201  0.7297  0.2945  0.5254
  194MOL   C16246868   2.782   0.112   0.307  0.0323 -0.4840  0.1941
  194MOL   O16346869   2.890   0.058   0.309  0.0825  0.2789 -0.0499
  194MOL   H16446870   2.696   0.407   0.143 -0.2480 -0.9519 -0.6112
  194MOL   H16546871   2.912   0.378   0.357  0.6462 -2.3789 -1.1361
  194MOL   H16646872   2.889   0.519   0.252  1.2952  0.2196  0.0422
  194MOL   H16746873   2.950   0.364   0.186  1.6487  2.4943  0.2000
  194MOL   H16846874   2.782   0.187   0.106 -0.3258  1.5867 -0.3405
  194MOL   H16946875   2.629   0.177   0.193  1.3145 -1.0546 -2.5408
  194MOL   O17046876   2.692   0.099   0.400  0.5219 -0.3758  0.3975
  194MOL   C17146877   2.704   7.975   0.500 -0.0844  0.4305  0.1804
  194MOL   C17246878   2.688   0.070   0.640 -0.2363 -0.2420  0.2879
  194MOL   C17346879   2.598   7.858   0.491  0.6764  0.8027  0.2408
  194MOL   C17446880   2.624   7.778   0.371  0.5735  0.5803  0.4323
  194MOL   O17546881   2.607   7.823   0.256  0.0854 -0.2438 -0.4086
  194MOL   H17646882   2.800   7.926   0.488  0.7621  1.5285  2.1245
  194MOL   H17746883   2.700   0.003   0.725 -0.5688 -1.8311 -0.8912
  194MOL   H17846884   2.589   0.116   0.638  1.1304  2.8579 -3.5789
  194MOL   H17946885   2.758   0.153   0.642  0.5771 -0.9327  1.1065
  194MOL   H18046886   2.500   7.904   0.494  0.2343  0.1422 -2.7773
  194MOL   H18146887   2.606   7.790   0.576  2.8345  1.1841  0.3838
  194MOL   O18246888   2.652   7.650   0.401 -0.1971  0.3923  0.0667
  194MOL   C18346889   2.664   7.555   0.294 -0.1226  0.0281 -0.6446
  194MOL   C18446890   2.763   7.452   0.357  0.3174  0.3359 -0.3556
  194MOL   C18546891   2.523   7.493   0.261 -0.0574  0.0207  0.4727
  194MOL   C18646892   2.439   7.581   0.171 -0.1059 -0.3241  0.5184
  194MOL   O18746893   2.455   7.575   0.052  0.3584  0.4313  0.4470
  194MOL   H18846894   2.713   7.610   0.213  1.0736  0.9157  0.6662
  194MOL   H18946895   2.784   7.377   0.281  3.4417  1.4870 -0.6558
  194MOL   H19046896   2.725   7.408   0.450  2.5322 -0.4478  0.2036
  194MOL   H19146897   2.854   7.507   0.380  0.0699  0.4494  0.3787
  194MOL   H19246898   2.471   7.467   0.352  0.1780  0.6909  0.8006
  194MOL   H19346899   2.531   7.400   0.205 -2.0764 -0.8363  1.5974
  194MOL   O19446900   2.337   7.637   0.238 -0.1715  0.1576 -0.5465
  194MOL   C19546901   2.254   7.729   0.181 -0.4492 -0.1121 -0.1135
  194MOL   C19646902   2.112   7.691   0.242 -0.2862 -0.0942  0.5941
  194MOL   C19746903   2.278   7.882   0.204  0.2892 -0.3262 -0.3295
  194MOL   C19846904   2.222   7.970   0.098  0.4337  0.2245 -0.3066
  194MOL   O19946905   2.111   0.040   0.117  0.2975  0.2314 -0.5066
  194MOL   H20046906   2.257   7.711   0.074 -0.0444  1.0901 -0.3092
  194MOL   H20146907   2.039   7.751   0.186  3.1399 -0.0651 -4.2317
  194MOL   H20246908   2.112   7.705   0.350 -0.4686 -2.4739  0.9104
  194MOL   H20346909   2.071   7.592   0.221  0.1850  0.1996 -1.9836
  194MOL   H20446910   2.386   7.901   0.208  0.0476  0.9275  0.7768
  194MOL   H20546911   2.241   7.910   0.303 -0.4420 -1.9894 -0.1337
  194MOL   O20646912   2.289   7.978   7.960  0.0436  0.1315  0.3835
  194MOL   C20746913   2.221   0.048   7.845  0.1824 -0.1630 -0.1457
  194MOL   C20846914   2.314   0.136   7.757  0.0023 -0.0768 -0.4672
  194MOL   C20946915   2.145   7.913   7.758  0.1600 -0.7630  0.0278
  194MOL   C21046916   1.997   7.897   7.789 -0.6140 -0.0907 -1.0858
  194MOL   O21146917   1.959   7.868   7.897 -0.6644 -0.3274 -0.2791
  194MOL   H21246918   2.138   0.110   7.880  0.0831 -0.1667 -0.3763
  194MOL   H21346919   2.262   0.186   7.675  1.0668  0.0515 -1.0780
  194MOL   H21446920   2.378   0.067   7.702 -0.7942  0.7632 -2.4822
  194MOL   H21546921   2.368   0.217   7.806 -1.2425  0.0752  0.6743
  194MOL   H21646922   2.197   7.819   7.774  0.3369 -0.9760 -1.6268
  194MOL   H21746923   2.154   7.927   7.650  3.9339  0.1999  0.3843
  194MOL   O21846924   1.922   7.913   7.675 -0.1176  0.0386  0.2151
  194MOL   C21946925   1.783   7.890   7.671  0.4678  0.1055  0.1082
  194MOL   C22046926   1.721   0.048   7.614  0.3828  0.3882 -0.0444
  194MOL   C22146927   1.746   7.763   7.582  0.8741  0.0469  0.0422
  194MOL   C22246928   1.766   7.625   7.651  0.1622  0.0192 -0.1207
  194MOL   O22346929   1.823   7.531   7.586  0.3816  0.2828  0.6746
  194MOL   H22446930   1.742   7.880   7.772  1.7347 -0.4373  0.5766
  194MOL   H22546931   1.785   0.083   7.533  0.8262  1.2164  0.6601
  194MOL   H22646932   1.725   0.133   7.682  1.7192  1.1543 -1.0587
  194MOL   H22746933   1.624   0.025   7.570  0.5690  1.7878 -1.1957
  194MOL   H22846934   1.798   7.752   7.487  0.5809  1.4481 -0.2885
  194MOL   H22946935   1.639   7.768   7.563  0.7163 -1.3750  0.4520
  194MOL   O23046936   1.720   7.620   7.774 -0.0817  0.6783  0.3145
  194MOL   C23146937   1.739   7.501   7.841  0.2016  0.7895 -1.0180
  194MOL   C23246938   1.751   7.542   0.013 -0.5229  0.0579 -0.0820
  194MOL   C23346939   1.631   7.393   7.813 -0.6003 -1.2630  0.2958
  194MOL   C23446940   1.484   7.440   7.839  0.2495  0.3433  0.3862
  194MOL   O23546941   1.441   7.540   7.783  0.3362  0.2570  1.0469
  194MOL   H23646942   1.837   7.466   7.810  0.8768  0.5864  1.2338
  194MOL   H23746943   1.676   7.616   0.042  0.9870  1.4342  0.4109
  194MOL   H23846944   1.850   7.578   0.041 -0.1574 -0.9791 -0.0491
  194MOL   H23946945   1.716   7.457   0.071 -2.3498 -0.0011 -1.2365
  194MOL   H24046946   1.644   7.310   7.883  0.5367 -1.8640 -0.6240
  194MOL   H24146947   1.642   7.355   7.712  0.8556  3.9540 -1.6230
  194MOL   H24246948   1.430   7.385   7.916  0.4093  0.1806  0.3840
  195MOL     O146949   2.703   1.955   4.408  0.4023 -0.2421 -0.2993
  195MOL     C246950   2.758   1.864   4.508 -0.3769  0.5741 -0.4767
  195MOL     C346951   2.665   1.865   4.632 -0.2754 -0.2924  0.6219
  195MOL     C446952   2.778   1.721   4.465  0.6886  0.9185 -0.3593
  195MOL     C546953   2.879   1.644   4.543  0.4100 -0.3805  0.6856
  195MOL     O646954   2.902   1.657   4.660  0.3188  0.0034  0.3327
  195MOL     H746955   2.851   1.914   4.534 -0.6919 -0.1415  2.1896
  195MOL     H846956   2.569   1.825   4.597 -0.5077  0.1619  0.7421
  195MOL     H946957   2.643   1.971   4.642 -0.7196 -0.3363  0.1056
  195MOL    H1046958   2.702   1.816   4.722 -2.3193  0.2042  1.7610
  195MOL    H1146959   2.807   1.713   4.360  1.9073  0.4305  0.0069
  195MOL    H1246960   2.687   1.664   4.483  0.6106  0.6683 -1.4869
  195MOL    H1346961   2.754   1.942   4.329  0.9943  1.4860 -0.2327
  195MOL    O1446962   2.944   1.541   4.462 -0.3856  0.4796 -0.4345
  195MOL    C1546963   3.055   1.473   4.523  0.0248  0.0866  0.6381
  195MOL    C1646964   3.077   1.348   4.436  0.7015 -0.6924 -0.9095
  195MOL    C1746965   3.183   1.556   4.514 -1.0692  0.6831  0.0608
  195MOL    C1846966   3.302   1.500   4.590 -0.6365  0.3549  0.4169
  195MOL    O1946967   3.292   1.430   4.689  0.5955  0.1262 -0.9458
  195MOL    H2046968   3.043   1.442   4.627  2.8120 -1.2679  0.5941
  195MOL    H2146969   3.088   1.375   4.331 -1.2102 -0.6782 -1.1302
  195MOL    H2246970   2.987   1.287   4.442  0.6670 -0.5882 -0.3205
  195MOL    H2346971   3.158   1.284   4.469 -0.1970 -1.5326 -0.3047
  195MOL    H2446972   3.153   1.653   4.552 -3.9264 -0.2409  0.3379
  195MOL    H2546973   3.206   1.570   4.408 -2.7247  0.7171 -0.3058
  195MOL    O2646974   3.416   1.547   4.538  0.3965  0.2766 -0.4828
  195MOL    C2746975   3.542   1.506   4.583 -0.0464 -0.1467 -0.5426
  195MOL    C2846976   3.588   1.381   4.523 -0.0825 -0.1780 -0.3769
  195MOL    C2946977   3.639   1.631   4.570 -0.7961 -0.3081 -0.0455
  195MOL    C3046978   3.667   1.675   4.423 -0.0621  0.1999 -0.1988
  195MOL    O3146979   3.611   1.774   4.379 -0.1859  0.5929  0.3249
  195MOL    H3246980   3.515   1.483   4.686 -1.1690 -1.6807 -1.1481
  195MOL    H3346981   3.596   1.394   4.415 -2.2742 -1.9503 -0.8048
  195MOL    H3446982   3.515   1.301   4.541 -0.8678  0.1737 -1.8787
  195MOL    H3546983   3.686   1.361   4.565 -0.0687 -0.0149 -0.3312
  195MOL    H3646984   3.734   1.624   4.623 -1.4497  0.9644  1.3272
  195MOL    H3746985   3.585   1.721   4.600  2.5478  1.8677 -0.2012
  195MOL    O3846986   3.765   1.597   4.361  0.5695  0.3184 -0.0764
  195MOL    C3946987   3.814   1.618   4.230 -0.1897  0.4576 -0.2977
  195MOL    C4046988   3.901   1.746   4.225  0.5723 -0.0883  0.5229
  195MOL    C4146989   3.891   1.487   4.193  0.3461  0.2134  0.3398
  195MOL    C4246990   3.806   1.383   4.122  0.0678 -0.5918 -0.5709
  195MOL    O4346991   3.796   1.385   3.999 -0.4002 -0.4972 -0.1333
  195MOL    H4446992   3.726   1.633   4.167 -0.4345 -0.2397 -0.1332
  195MOL    H4546993   3.838   1.829   4.255 -1.1313 -1.5151  1.0246
  195MOL    H4646994   3.932   1.777   4.125  0.3211 -0.0002  0.4710
  195MOL    H4746995   3.988   1.735   4.289  1.2014 -2.3359 -0.6707
  195MOL    H4846996   3.937   1.439   4.279 -0.0513  0.0949  0.4874
  195MOL    H4946997   3.977   1.512   4.131 -0.1773  0.1305 -0.4327
  195MOL    O5046998   3.751   1.289   4.204  0.1174 -0.8216 -0.1977
  195MOL    C5146999   3.685   1.170   4.156  0.3605 -0.5538 -0.1701
  195MOL    C5247000   3.765   1.051   4.213 -0.9108  0.2274 -0.5589
  195MOL    C5347001   3.543   1.176   4.215  0.6362  0.3183  0.0294
  195MOL    C5447002   3.449   1.271   4.144 -0.5963  0.6313  0.5348
  195MOL    O5547003   3.359   1.324   4.208 -0.5739  0.3796  0.0421
  195MOL    H5647004   3.686   1.163   4.047 -1.5758 -2.6163 -0.1040
  195MOL    H5747005   3.863   1.052   4.165 -2.0837 -2.0405 -3.1172
  195MOL    H5847006   3.735   0.952   4.180  2.6233 -1.3962  0.8102
  195MOL    H5947007   3.771   1.042   4.322 -1.9382  2.3657 -0.3130
  195MOL    H6047008   3.543   1.198   4.322 -1.9217 -0.8750  0.3249
  195MOL    H6147009   3.503   1.074   4.217 -0.7019  0.8382  1.1678
  195MOL    O6247010   3.462   1.263   4.007  0.6095 -0.4810  0.5946
  195MOL    C6347011   3.378   1.349   3.920 -0.1352 -0.4976  0.3205
  195MOL    C6447012   3.457   1.377   3.794 -0.3000 -0.7519  0.7173
  195MOL    C6547013   3.237   1.285   3.910 -1.3664 -0.4554 -0.7347
  195MOL    C6647014   3.142   1.365   3.816  0.0886  1.0597  0.4739
  195MOL    O6747015   3.164   1.483   3.803  0.7832  0.1343 -0.0337
  195MOL    H6847016   3.376   1.451   3.959 -0.0077 -1.2359  2.3438
  195MOL    H6947017   3.460   1.283   3.739 -1.7994 -0.9487  0.9562
  195MOL    H7047018   3.562   1.402   3.812 -0.3700 -2.0198  3.2070
  195MOL    H7147019   3.417   1.449   3.724  2.5573 -0.4674 -0.7090
  195MOL    H7247020   3.194   1.274   4.009 -1.3841  0.5752 -0.6206
  195MOL    H7347021   3.253   1.187   3.866  1.2992 -0.5978  0.4808
  195MOL    O7447022   3.036   1.293   3.772  0.2525  0.1122 -0.2404
  195MOL    C7547023   2.939   1.355   3.684 -0.4182 -0.0814  0.5950
  195MOL    C7647024   2.969   1.319   3.536  0.4810 -0.2603  0.1555
  195MOL    C7747025   2.805   1.299   3.728  0.4730  0.1222  0.4634
  195MOL    C7847026   2.684   1.372   3.683  0.5921  0.3006  0.2146
  195MOL    O7947027   2.678   1.476   3.622  0.4539 -0.2290 -0.2929
  195MOL    H8047028   2.947   1.463   3.699 -0.1764  0.0144 -0.2390
  195MOL    H8147029   2.974   1.210   3.529 -2.1583 -0.5161  1.4804
  195MOL    H8247030   3.067   1.355   3.506  0.5448 -0.9348 -0.4790
  195MOL    H8347031   2.892   1.372   3.479  0.6622 -0.3837 -0.2071
  195MOL    H8447032   2.789   1.303   3.836 -0.0170  1.1623  0.3531
  195MOL    H8547033   2.798   1.202   3.679 -0.4753 -0.2829  1.3754
  195MOL    O8647034   2.569   1.310   3.723 -0.3610  0.2033  0.0777
  195MOL    C8747035   2.440   1.381   3.719 -0.0116 -0.0976 -0.2373
  195MOL    C8847036   2.330   1.271   3.702  0.2611  0.6080  0.8215
  195MOL    C8947037   2.413   1.481   3.838 -0.1359 -0.3527 -0.0485
  195MOL    C9047038   2.317   1.601   3.814  0.4211 -0.0979  0.0257
  195MOL    O9147039   2.334   1.710   3.863 -0.1238 -0.1235 -0.7872
  195MOL    H9247040   2.435   1.450   3.635  0.4717  1.6366  1.1323
  195MOL    H9347041   2.234   1.318   3.680  0.2783  0.8645  1.2860
  195MOL    H9447042   2.314   1.215   3.794  0.6771 -1.4081 -0.3025
  195MOL    H9547043   2.350   1.198   3.623  0.4696  0.5965  0.8832
  195MOL    H9647044   2.503   1.523   3.884  0.8506  0.0164 -2.2443
  195MOL    H9747045   2.375   1.425   3.923  1.4878  0.0859  0.9801
  195MOL    O9847046   2.215   1.569   3.727  0.3427  0.1009 -0.8067
  195MOL    C9947047   2.109   1.660   3.703  0.6862  0.1392  0.7224
  195MOL   C10047048   2.166   1.761   3.596 -0.1455  0.2983 -0.2324
  195MOL   C10147049   2.001   1.562   3.644 -0.4947 -0.1836  0.1037
  195MOL   C10247050   1.859   1.624   3.643  0.9244  0.4294  0.1628
  195MOL   O10347051   1.787   1.605   3.543 -0.1065  0.2791 -0.3004
  195MOL   H10447052   2.067   1.701   3.796 -0.2614 -1.0906  0.8448
  195MOL   H10547053   2.235   1.837   3.633 -0.3120  0.6235 -0.5788
  195MOL   H10647054   2.086   1.816   3.547 -0.5792 -1.6775 -1.8135
  195MOL   H10747055   2.218   1.711   3.514  0.6856 -0.5476  0.7981
  195MOL   H10847056   1.999   1.464   3.692  0.7385 -1.5481 -2.5347
  195MOL   H10947057   2.024   1.527   3.543  3.2709  0.6300  0.6057
  195MOL   O11047058   1.825   1.672   3.761 -0.7861 -0.0781  0.3861
  195MOL   C11147059   1.696   1.728   3.786 -0.0220 -0.3192  0.0944
  195MOL   C11247060   1.591   1.624   3.812 -0.2944  0.3116  0.4839
  195MOL   C11347061   1.719   1.813   3.910 -0.9523  0.3280 -0.6956
  195MOL   C11447062   1.816   1.921   3.904  0.8548 -0.0855 -0.2335
  195MOL   O11547063   1.889   1.944   3.998 -0.2665  0.1362 -0.1399
  195MOL   H11647064   1.659   1.791   3.704 -1.4962 -1.1366  0.1145
  195MOL   H11747065   1.613   1.554   3.892 -0.2325  0.4543  0.5907
  195MOL   H11847066   1.585   1.571   3.717  0.6619  1.0323  0.0123
  195MOL   H11947067   1.501   1.684   3.831  0.3529  1.7603 -0.9156
  195MOL   H12047068   1.746   1.740   3.987 -3.1236 -0.0353 -0.2433
  195MOL   H12147069   1.621   1.854   3.938 -2.5722 -2.2276 -2.4773
  195MOL   O12247070   1.786   2.004   3.797 -0.1288  0.9281 -0.8217
  195MOL   C12347071   1.851   2.121   3.767  0.4863 -0.2587 -0.3921
  195MOL   C12447072   1.937   2.092   3.642 -0.4907  0.4975  0.3293
  195MOL   C12547073   1.730   2.212   3.728  0.4174 -0.1492 -0.3271
  195MOL   C12647074   1.777   2.353   3.695 -0.6737 -0.0309 -0.3207
  195MOL   O12747075   1.801   2.383   3.573 -0.1861 -0.9718  0.2303
  195MOL   H12847076   1.911   2.160   3.850  1.2012 -0.3663 -0.8483
  195MOL   H12947077   1.871   2.030   3.582  0.2297  1.2863 -1.3008
  195MOL   H13047078   2.024   2.027   3.653 -0.3387  0.4377 -1.1760
  195MOL   H13147079   1.971   2.180   3.587 -0.2427 -0.2214 -0.6730
  195MOL   H13247080   1.666   2.209   3.816  0.7021  0.0581 -0.1121
  195MOL   H13347081   1.672   2.167   3.647  2.0468 -0.5070 -1.3373
  195MOL   O13447082   1.782   2.426   3.807  0.0324 -0.2992 -0.0204
  195MOL   C13547083   1.813   2.568   3.795  0.5039  0.4288 -0.0928
  195MOL   C13647084   1.696   2.658   3.757  0.3030  0.3894 -0.1917
  195MOL   C13747085   1.854   2.605   3.936 -0.1944 -0.2964  0.1178
  195MOL   C13847086   1.995   2.571   3.971 -0.6041  0.5165  0.2615
  195MOL   O13947087   2.065   2.641   4.042 -0.1109 -0.0278 -0.5763
  195MOL   H14047088   1.896   2.570   3.723  2.6292 -2.4367  2.1660
  195MOL   H14147089   1.676   2.642   3.651  2.7335  2.0849 -0.9454
  195MOL   H14247090   1.704   2.764   3.782  0.5220  0.6905 -1.4844
  195MOL   H14347091   1.603   2.627   3.805  1.0904 -1.2923  0.2748
  195MOL   H14447092   1.784   2.572   4.013 -1.5232 -0.8538 -1.3031
  195MOL   H14547093   1.843   2.713   3.939  0.4317 -0.2519  1.1690
  195MOL   O14647094   2.034   2.457   3.917 -0.6055 -0.0030 -0.3595
  195MOL   C14747095   2.174   2.431   3.911 -0.6820 -0.1502 -0.7351
  195MOL   C14847096   2.244   2.361   4.028 -0.1204 -0.3884 -0.5810
  195MOL   C14947097   2.196   2.355   3.782  0.0850  0.3666 -0.2838
  195MOL   C15047098   2.180   2.442   3.658  0.1788 -0.1606  0.3160
  195MOL   O15147099   2.265   2.531   3.637 -0.1734  0.0518  0.1313
  195MOL   H15247100   2.228   2.526   3.907 -0.4094 -0.1504  1.9197
  195MOL   H15347101   2.348   2.392   4.021  0.1529 -1.2544 -0.3383
  195MOL   H15447102   2.231   2.253   4.024  0.6343 -0.5572  0.9528
  195MOL   H15547103   2.205   2.399   4.123  2.0276  0.1659  0.1063
  195MOL   H15647104   2.137   2.264   3.781  0.9006 -0.2008 -3.2832
  195MOL   H15747105   2.302   2.332   3.788 -0.1513 -0.2893  1.5630
  195MOL   O15847106   2.079   2.405   3.567 -0.3693 -0.2863  0.1434
  195MOL   C15947107   2.092   2.446   3.427  0.7405  0.2526  0.4805
  195MOL   C16047108   2.020   2.339   3.338  0.1866 -0.2266  0.0254
  195MOL   C16147109   2.028   2.580   3.403  0.1706  0.6013  0.1290
  195MOL   C16247110   2.081   2.661   3.280  0.0837  0.0025  0.6749
  195MOL   O16347111   2.074   2.618   3.161 -0.1788 -0.0753  0.4697
  195MOL   H16447112   2.196   2.443   3.394  0.9419  1.5467  0.9496
  195MOL   H16547113   2.071   2.243   3.340  2.1188  0.7916  2.8536
  195MOL   H16647114   2.019   2.372   3.234  2.3967 -0.2086 -0.0094
  195MOL   H16747115   1.913   2.326   3.356  0.3159 -1.0977  0.1817
  195MOL   H16847116   2.057   2.637   3.491 -2.7181 -0.0632  1.5837
  195MOL   H16947117   1.919   2.578   3.410  0.1035  2.3147 -0.3540
  195MOL   O17047118   2.133   2.788   3.317  0.2231  0.3307  0.0332
  195MOL   C17147119   2.187   2.872   3.217 -0.3487 -0.4382  0.2835
  195MOL   C17247120   2.179   3.016   3.260  0.5743 -0.4080  0.7049
  195MOL   C17347121   2.330   2.832   3.159  0.0438  0.4422  0.0833
  195MOL   C17447122   2.356   2.892   3.019 -0.3855 -0.6576 -0.7507
  195MOL   O17547123   2.426   2.992   3.001 -0.8105 -0.3257  0.5517
  195MOL   H17647124   2.121   2.869   3.130 -0.4716  0.0157  0.3581
  195MOL   H17747125   2.246   3.084   3.208  0.7314  1.0724  2.7606
  195MOL   H17847126   2.195   3.020   3.368  1.5582  1.0699  0.5259
  195MOL   H17947127   2.081   3.061   3.244  0.4574 -0.7825  0.3761
  195MOL   H18047128   2.342   2.724   3.152  1.4679  0.5550  0.6000
  195MOL   H18147129   2.400   2.871   3.234  1.9175  1.4113 -2.0815
  195MOL   O18247130   2.292   2.829   2.920 -0.8158  0.6191  0.2229
  195MOL   C18347131   2.284   2.881   2.785 -0.5381 -0.0294  0.4908
  195MOL   C18447132   2.282   2.762   2.691 -0.0710 -0.5346  0.3625
  195MOL   C18547133   2.152   2.970   2.788 -0.2576 -0.2572 -0.0304
  195MOL   C18647134   2.107   3.028   2.654 -0.2899  0.1060 -0.2377
  195MOL   O18747135   1.999   3.009   2.603 -0.0160  0.3425  0.1349
  195MOL   H18847136   2.366   2.949   2.763  1.5410 -3.0058 -1.3214
  195MOL   H18947137   2.251   2.801   2.594  0.1887 -1.8021 -0.2342
  195MOL   H19047138   2.203   2.697   2.729 -0.2400  0.9815  2.7017
  195MOL   H19147139   2.378   2.710   2.685  0.1585  0.0226 -0.9599
  195MOL   H19247140   2.164   3.051   2.860  1.1677 -0.5708  0.0995
  195MOL   H19347141   2.064   2.917   2.827 -0.4928  1.7772  2.2940
  195MOL   O19447142   2.202   3.099   2.594  0.2939 -0.0604 -0.4780
  195MOL   C19547143   2.179   3.168   2.470 -0.2456  0.4791 -0.2067
  195MOL   C19647144   2.218   3.321   2.490 -0.1766 -0.2679 -0.0085
  195MOL   C19747145   2.252   3.100   2.353 -0.7842 -0.2146  0.1510
  195MOL   C19847146   2.401   3.096   2.363  0.0350 -0.1014 -0.1526
  195MOL   O19947147   2.458   2.996   2.415 -0.0452  0.0119  0.5080
  195MOL   H20047148   2.073   3.169   2.446 -0.2105  4.6398 -0.4160
  195MOL   H20147149   2.180   3.376   2.575  1.0034  0.5250  0.0248
  195MOL   H20247150   2.218   3.375   2.395  0.6677 -0.0599  0.1007
  195MOL   H20347151   2.321   3.327   2.525 -0.8269  1.9603  1.6126
  195MOL   H20447152   2.215   3.143   2.259  1.0440  0.6574 -0.1989
  195MOL   H20547153   2.220   2.996   2.359  0.7082 -0.5923  1.9568
  195MOL   O20647154   2.465   3.193   2.292  0.9376  0.1467 -0.2198
  195MOL   C20747155   2.608   3.196   2.273 -0.8523  0.5874  0.5536
  195MOL   C20847156   2.636   3.150   2.120 -0.0589 -0.5059 -0.1709
  195MOL   C20947157   2.658   3.329   2.329 -0.5916  0.4379  0.7897
  195MOL   C21047158   2.799   3.358   2.302 -0.5866 -0.3990 -0.0429
  195MOL   O21147159   2.832   3.454   2.220  0.7385  0.0539  0.5485
  195MOL   H21247160   2.650   3.116   2.335 -0.8270 -1.0148 -1.4744
  195MOL   H21347161   2.738   3.151   2.082 -0.5989 -2.8256 -1.7610
  195MOL   H21447162   2.580   3.225   2.063  0.0693 -1.3159 -1.3934
  195MOL   H21547163   2.593   3.050   2.118 -0.5039 -0.3083 -0.5271
  195MOL   H21647164   2.647   3.337   2.437 -1.7983  0.5825  0.6635
  195MOL   H21747165   2.596   3.407   2.283 -1.8452 -0.4267  0.9958
  195MOL   O21847166   2.888   3.272   2.355 -0.2504 -0.3690 -0.1520
  195MOL   C21947167   3.027   3.284   2.324  0.2426 -0.0089 -0.1624
  195MOL   C22047168   3.107   3.243   2.452  0.2774 -0.1320 -0.6315
  195MOL   C22147169   3.073   3.200   2.199  0.2748 -0.2309  0.1590
  195MOL   C22247170   3.214   3.211   2.137  0.0953  0.1879  0.4022
  195MOL   O22347171   3.255   3.131   2.055  0.5062  0.5918 -0.0029
  195MOL   H22447172   3.047   3.390   2.309  3.6041 -0.8949 -2.6766
  195MOL   H22547173   3.213   3.263   2.437  0.1310  2.6129  1.5799
  195MOL   H22647174   3.110   3.136   2.471 -0.5828 -0.3190 -1.4882
  195MOL   H22747175   3.072   3.290   2.544  2.2134  1.2475 -0.5753
  195MOL   H22847176   3.009   3.236   2.119  0.7948  0.0920 -0.1124
  195MOL   H22947177   3.055   3.094   2.221 -0.0733 -0.1164  0.4350
  195MOL   O23047178   3.285   3.313   2.186  0.4936 -0.5808  0.5319
  195MOL   C23147179   3.421   3.330   2.149 -0.2075 -0.0609 -0.1692
  195MOL   C23247180   3.417   3.419   2.022  0.1751  0.1849  0.7845
  195MOL   C23347181   3.472   3.410   2.273 -0.5043 -1.1599 -0.1574
  195MOL   C23447182   3.620   3.471   2.257  0.2744 -0.4107 -0.5887
  195MOL   O23547183   3.708   3.411   2.317 -0.2082 -0.4700 -0.4305
  195MOL   H23647184   3.471   3.234   2.139 -0.3125 -0.1023 -0.2902
  195MOL   H23747185   3.518   3.419   1.980 -0.0229 -0.2257  0.3123
  195MOL   H23847186   3.394   3.524   2.042  0.0176  0.2292  0.3773
  195MOL   H23947187   3.350   3.377   1.948  1.7413 -0.6887 -0.1652
  195MOL   H24047188   3.453   3.354   2.365  2.4854 -1.5288  0.2878
  195MOL   H24147189   3.407   3.497   2.280  0.0148 -0.6856 -1.2118
  195MOL   H24247190   3.640   3.567   2.211 -0.9883 -0.0158 -0.3203
  196MOL     O147191   7.690   6.185   3.642  0.0314  0.0091 -0.3074
  196MOL     C247192   7.741   6.179   3.774 -0.7247 -0.4548 -0.1914
  196MOL     C347193   7.874   6.093   3.777 -0.3489 -0.2838  0.3423
  196MOL     C447194   7.760   6.325   3.815 -0.7811  0.1164 -0.0706
  196MOL     C547195   7.822   6.348   3.954 -0.1499 -0.4362 -0.3375
  196MOL     O647196   7.941   6.374   3.968 -0.0386 -0.0087 -0.3985
  196MOL     H747197   7.663   6.131   3.834 -0.0686 -0.3849  0.7294
  196MOL     H847198   7.915   6.087   3.878 -0.0834  1.8986  0.3847
  196MOL     H947199   7.947   6.147   3.717 -0.0347 -1.1645 -0.0675
  196MOL    H1047200   7.867   5.990   3.744  2.7250 -0.1123 -0.9468
  196MOL    H1147201   7.658   6.360   3.826 -0.9318 -0.5000  0.5258
  196MOL    H1247202   7.821   6.384   3.746 -1.2964  1.1317  0.3378
  196MOL    H1347203   7.665   6.098   3.616 -0.6703  0.1373 -0.0819
  196MOL    O1447204   7.733   6.340   4.055 -0.5832  0.6766  0.1725
  196MOL    C1547205   7.781   6.331   4.186  0.3741 -0.5826 -0.0719
  196MOL    C1647206   7.690   6.416   4.287 -0.4270 -0.1934 -0.0414
  196MOL    C1747207   7.788   6.184   4.229  0.7089  0.1596  0.2844
  196MOL    C1847208   7.923   6.114   4.208 -0.7524  0.0850 -0.0295
  196MOL    O1947209   0.048   6.167   4.232  0.3791 -0.6501 -0.3891
  196MOL    H2047210   7.884   6.365   4.188  0.0383  0.5108  3.3621
  196MOL    H2147211   7.691   6.522   4.263 -0.3941  0.1482  1.3904
  196MOL    H2247212   7.723   6.416   4.391  1.2168  3.2624 -0.5077
  196MOL    H2347213   7.585   6.385   4.284 -0.6217  0.3750  0.5853
  196MOL    H2447214   7.717   6.129   4.167  0.3882  0.1762  0.6323
  196MOL    H2547215   7.759   6.189   4.334  0.5605 -1.8826  0.3498
  196MOL    O2647216   7.905   5.991   4.168  0.0203  0.6577 -0.7079
  196MOL    C2747217   0.029   5.893   4.151 -0.4207  0.2008  0.4900
  196MOL    C2847218   0.085   5.846   4.282 -0.0098 -0.0485  0.0470
  196MOL    C2947219   7.960   5.791   4.045 -0.0734 -0.5406  0.7738
  196MOL    C3047220   7.854   5.686   4.088  0.2582  0.1481 -0.0646
  196MOL    O3147221   7.828   5.585   4.018 -0.0329 -0.3152  0.3814
  196MOL    H3247222   0.113   5.940   4.100 -0.7086 -0.1411 -0.3151
  196MOL    H3347223   0.096   5.923   4.358  1.8855  1.6737 -1.8923
  196MOL    H3447224   0.180   5.792   4.280  0.2272  0.2867  1.8944
  196MOL    H3547225   0.016   5.777   4.330  0.1263 -0.5784 -0.5036
  196MOL    H3647226   0.069   5.744   4.002  0.8655  0.8028  1.2386
  196MOL    H3747227   7.901   5.837   3.965 -0.3656 -0.2520  1.1542
  196MOL    O3847228   7.787   5.720   4.204  0.3576 -0.5079  0.4538
  196MOL    C3947229   7.688   5.630   4.260  1.0233 -0.2427  0.0139
  196MOL    C4047230   7.766   5.542   4.354  0.2728 -0.2453 -0.4534
  196MOL    C4147231   7.583   5.716   4.330  0.4434  0.4578 -0.3201
  196MOL    C4247232   7.473   5.636   4.402  0.0228 -0.1345  0.0671
  196MOL    O4347233   7.436   5.672   4.516  0.4902 -0.5258  0.0000
  196MOL    H4447234   7.642   5.580   4.174  0.9545  1.9856 -1.2784
  196MOL    H4547235   7.710   5.461   4.400  0.4624  1.6267  3.2109
  196MOL    H4647236   7.817   5.600   4.431 -1.3584 -1.3064  1.4463
  196MOL    H4747237   7.848   5.495   4.299  2.3590  1.3523  1.1817
  196MOL    H4847238   7.525   5.772   4.256 -0.9548  0.1654  0.5384
  196MOL    H4947239   7.627   5.771   4.414 -0.9951 -0.7937  1.2890
  196MOL    O5047240   7.418   5.541   4.330  0.5551  0.6309 -0.4331
  196MOL    C5147241   7.292   5.492   4.366  0.0217 -0.2247 -0.8447
  196MOL    C5247242   7.208   5.497   4.241 -0.0004 -0.4404  0.0524
  196MOL    C5347243   7.302   5.355   4.431  0.5267 -1.0220  0.0116
  196MOL    C5447244   7.168   5.313   4.496  0.5105 -0.1968 -0.2614
  196MOL    O5547245   7.099   5.384   4.569 -0.5370  0.3465 -0.0864
  196MOL    H5647246   7.251   5.554   4.446  1.5541 -2.8761  2.1156
  196MOL    H5747247   7.210   5.586   4.179 -3.6424 -0.5676 -0.3765
  196MOL    H5847248   7.107   5.458   4.251 -0.8434  1.7366  0.2297
  196MOL    H5947249   7.254   5.432   4.167  3.1029  0.5676  1.0286
  196MOL    H6047250   7.373   5.370   4.512  1.6845 -0.9539 -0.9988
  196MOL    H6147251   7.331   5.268   4.371  2.0065 -1.1114  0.8353
  196MOL    O6247252   7.133   5.191   4.463  0.1004 -0.4552 -0.4902
  196MOL    C6347253   7.018   5.134   4.515  1.0021 -0.1876  0.5442
  196MOL    C6447254   6.955   5.055   4.406 -0.4560  0.1750 -0.5812
  196MOL    C6547255   7.050   5.052   4.643 -0.0813 -0.1896 -0.3392
  196MOL    C6647256   6.963   5.081   4.767  0.3255  0.0781 -0.0701
  196MOL    O6747257   6.983   5.180   4.831 -0.0074  0.2039 -0.3290
  196MOL    H6847258   6.944   5.206   4.549 -2.0003 -2.5852 -0.5933
  196MOL    H6947259   6.852   5.034   4.433 -0.0603 -0.6095  0.3458
  196MOL    H7047260   7.006   4.966   4.369 -2.0647 -0.7652 -0.5798
  196MOL    H7147261   6.932   5.124   4.325 -2.1616 -1.3098 -1.3810
  196MOL    H7247262   7.147   5.092   4.674 -1.8371  1.8103  2.8167
  196MOL    H7347263   7.086   4.950   4.628  0.2415 -0.1492  0.1490
  196MOL    O7447264   6.868   4.984   4.797  0.5601 -0.1928 -0.1305
  196MOL    C7547265   6.765   5.001   4.890  0.3230 -0.4097  0.2319
  196MOL    C7647266   6.635   4.930   4.844  0.4456  0.3870  0.1289
  196MOL    C7747267   6.814   4.945   5.024  0.1803 -0.1825  0.3367
  196MOL    C7847268   6.730   5.006   5.142  0.0388  0.1093  0.0836
  196MOL    O7947269   6.633   5.076   5.118 -0.5499  0.1979 -0.3117
  196MOL    H8047270   6.738   5.107   4.896 -0.4325 -0.7576  3.3932
  196MOL    H8147271   6.663   4.831   4.807 -0.6670 -0.0996  0.5641
  196MOL    H8247272   6.604   4.988   4.757 -0.1539  0.5364  0.4370
  196MOL    H8347273   6.553   4.930   4.916 -1.0288  1.0065 -1.5245
  196MOL    H8447274   6.916   4.974   5.048 -0.0576 -1.6567  3.4811
  196MOL    H8547275   6.803   4.837   5.012 -1.1376 -0.5065  3.7676
  196MOL    O8647276   6.762   4.956   5.265  0.3469  0.3143  0.5433
  196MOL    C8747277   6.691   5.010   5.379 -0.1878  0.6518 -0.9341
  196MOL    C8847278   6.542   4.967   5.384  0.2181 -0.4596 -0.2415
  196MOL    C8947279   6.761   4.971   5.511 -0.5611 -0.1177  0.0566
  196MOL    C9047280   6.865   5.074   5.557 -0.3284 -0.1091 -0.6726
  196MOL    O9147281   6.866   5.131   5.670 -0.5748 -0.0332  0.4523
  196MOL    H9247282   6.690   5.118   5.367 -0.4107  0.4540 -2.8927
  196MOL    H9347283   6.480   4.991   5.297 -0.0207 -0.1416  0.0145
  196MOL    H9447284   6.497   5.022   5.467  0.1899 -2.4508  1.0914
  196MOL    H9547285   6.518   4.862   5.395  0.6548 -0.5744 -0.3748
  196MOL    H9647286   6.803   4.871   5.504 -1.6832 -0.5013 -1.3990
  196MOL    H9747287   6.690   4.973   5.594  0.1073  0.1406  0.6240
  196MOL    O9847288   6.966   5.083   5.469 -0.5348 -1.0302 -0.2570
  196MOL    C9947289   7.065   5.181   5.484  0.3450 -0.6407  0.0158
  196MOL   C10047290   7.206   5.119   5.469 -0.2412  0.3791 -0.5195
  196MOL   C10147291   7.040   5.283   5.369 -0.3426  0.3867  0.1237
  196MOL   C10247292   7.060   5.241   5.228  0.0770 -0.3122  0.2591
  196MOL   O10347293   6.957   5.202   5.164  0.4794 -0.0870 -0.4348
  196MOL   H10447294   7.070   5.239   5.576  0.9446 -3.7597  2.0205
  196MOL   H10547295   7.220   5.053   5.383  0.0819  0.5221 -0.5762
  196MOL   H10647296   7.224   5.055   5.555 -1.4561 -1.4111 -1.5734
  196MOL   H10747297   7.278   5.200   5.460 -1.1943  1.0957 -1.8433
  196MOL   H10847298   7.106   5.369   5.380  1.3660 -0.5765 -2.0230
  196MOL   H10947299   6.941   5.327   5.380  0.8376  3.1550  0.2114
  196MOL   O11047300   7.191   5.248   5.180 -0.1864 -0.4074  0.3610
  196MOL   C11147301   7.218   5.183   5.055 -0.1098 -0.1414  0.0124
  196MOL   C11247302   7.306   5.284   4.981  0.1537  0.0171  0.7202
  196MOL   C11347303   7.268   5.045   5.099  0.6071  0.4724 -0.0775
  196MOL   C11447304   7.293   4.946   4.983  0.2953  0.2576  0.5216
  196MOL   O11547305   7.321   4.987   4.871 -0.7748 -0.4097 -0.1381
  196MOL   H11647306   7.124   5.167   5.002  1.1587 -0.8808 -2.0559
  196MOL   H11747307   7.327   5.379   5.030  0.4246 -0.9023  2.4275
  196MOL   H11847308   7.258   5.318   4.889  0.7263 -1.0598  0.0143
  196MOL   H11947309   7.404   5.241   4.960  0.2321  1.0321 -1.1189
  196MOL   H12047310   7.192   4.994   5.158  1.6391 -1.8788 -0.7045
  196MOL   H12147311   7.361   5.057   5.154  1.2276 -2.1952 -0.4606
  196MOL   O12247312   7.263   4.819   5.013  0.3643  0.2719 -0.2068
  196MOL   C12347313   7.239   4.728   4.908 -0.3746  0.0235  0.0323
  196MOL   C12447314   7.357   4.620   4.906  0.0294  0.7066  0.4084
  196MOL   C12547315   7.101   4.663   4.926  0.2856 -0.0503  0.1152
  196MOL   C12647316   7.068   4.596   4.795  0.2160  0.1753  0.6926
  196MOL   O12747317   7.080   4.473   4.779 -0.3155 -0.1016  0.5989
  196MOL   H12847318   7.247   4.776   4.811 -0.7399  1.7072  0.8176
  196MOL   H12947319   7.358   4.568   4.811 -0.5060  1.9071 -0.2665
  196MOL   H13047320   7.349   4.544   4.984  1.8356 -0.5577 -0.6131
  196MOL   H13147321   7.451   4.673   4.918  1.8058 -2.8528  2.9884
  196MOL   H13247322   7.019   4.734   4.940  0.9102  1.0675 -1.8204
  196MOL   H13347323   7.096   4.588   5.005 -2.0173  0.9026  0.9097
  196MOL   O13447324   7.027   4.685   4.700 -0.2806 -0.0300 -0.3515
  196MOL   C13547325   6.973   4.652   4.573 -0.0389 -0.4798  0.0289
  196MOL   C13647326   6.851   4.730   4.538 -0.3611 -0.1750  0.6849
  196MOL   C13747327   7.089   4.676   4.477  0.5009 -0.5256 -1.0740
  196MOL   C13847328   7.075   4.651   4.328 -0.0646  0.1697  0.6534
  196MOL   O13947329   7.032   4.738   4.249 -0.0866 -0.0036 -0.0219
  196MOL   H14047330   6.968   4.543   4.571  1.8669 -0.5689 -0.4839
  196MOL   H14147331   6.860   4.832   4.576 -0.1477  0.2019 -0.3522
  196MOL   H14247332   6.760   4.696   4.588  0.6179 -0.7381  2.1009
  196MOL   H14347333   6.829   4.731   4.431  1.4429  1.5343  0.2897
  196MOL   H14447334   7.186   4.642   4.515  0.2097  0.9009  1.0324
  196MOL   H14547335   7.103   4.784   4.471  1.1000 -0.5568 -0.2981
  196MOL   O14647336   7.085   4.516   4.299  0.0640  0.1483  0.1314
  196MOL   C14747337   7.103   4.468   4.167 -0.5019  0.7988  0.1555
  196MOL   C14847338   7.253   4.433   4.159  0.1148 -0.1505  0.1465
  196MOL   C14947339   7.012   4.343   4.164 -1.3616 -0.3413 -0.0638
  196MOL   C15047340   6.984   4.290   4.025  0.1356 -0.0203  0.3959
  196MOL   O15147341   7.055   4.195   3.982 -0.2446  0.5810  0.5805
  196MOL   H15247342   7.067   4.533   4.087  1.7686 -0.5574 -2.0204
  196MOL   H15347343   7.279   4.381   4.067  1.0879  2.1699 -0.9379
  196MOL   H15447344   7.263   4.366   4.244 -1.1751 -0.1205  0.3329
  196MOL   H15547345   7.325   4.513   4.177  0.3924 -0.4785  0.4786
  196MOL   H15647346   6.921   4.374   4.216 -0.8360  0.6540  0.2690
  196MOL   H15747347   7.046   4.255   4.219  1.0253  0.7890  0.3401
  196MOL   O15847348   6.886   4.363   3.965  0.3415 -0.7552 -0.0867
  196MOL   C15947349   6.845   4.323   3.839  0.6042 -0.4954  0.3534
  196MOL   C16047350   6.695   4.295   3.855 -0.2477  0.3304  0.1186
  196MOL   C16147351   6.876   4.443   3.739  1.0133 -0.2808 -0.3476
  196MOL   C16247352   6.894   4.411   3.589  0.2706 -0.1060  0.6266
  196MOL   O16347353   6.971   4.480   3.521  0.8490 -0.1133 -0.3577
  196MOL   H16447354   6.895   4.236   3.797 -1.3768 -2.0037  1.0330
  196MOL   H16547355   6.681   4.193   3.891  0.8816 -0.2057 -0.9504
  196MOL   H16647356   6.649   4.307   3.756 -1.8704 -1.4917  0.6102
  196MOL   H16747357   6.639   4.357   3.925  1.5039  0.4135  1.4659
  196MOL   H16847358   6.979   4.474   3.760  0.0613  2.5015  0.4109
  196MOL   H16947359   6.805   4.524   3.747  2.8311  1.2800  0.4852
  196MOL   O17047360   6.799   4.335   3.549 -0.1403 -0.1409 -0.0712
  196MOL   C17147361   6.795   4.287   3.417  0.5297  0.2151  0.3925
  196MOL   C17247362   6.760   4.139   3.431  0.2630  0.2235  0.4298
  196MOL   C17347363   6.697   4.360   3.327 -0.5709  0.3908  0.1062
  196MOL   C17447364   6.731   4.348   3.176 -0.0005 -0.0469 -0.1383
  196MOL   O17547365   6.670   4.286   3.090 -0.0636  1.0155 -0.3479
  196MOL   H17647366   6.895   4.285   3.374  1.3133  1.7460  2.0789
  196MOL   H17747367   6.748   4.107   3.327  3.3831  1.7801 -0.4837
  196MOL   H17847368   6.683   4.124   3.506  0.5684 -0.0617  0.6871
  196MOL   H17947369   6.852   4.097   3.470  0.1441 -0.6014 -0.1591
  196MOL   H18047370   6.699   4.468   3.337 -0.6176  0.3830  0.1981
  196MOL   H18147371   6.592   4.335   3.345 -0.6433  0.3993 -0.2846
  196MOL   O18247372   6.850   4.413   3.156 -0.1898  0.4266 -0.7432
  196MOL   C18347373   6.922   4.402   3.035  0.3298 -0.1218  0.2484
  196MOL   C18447374   6.983   4.539   3.015 -0.6199  0.3415 -0.9500
  196MOL   C18547375   7.035   4.297   3.046  0.5516  0.0042 -0.5976
  196MOL   C18647376   6.968   4.163   3.023  0.0121  1.0686  0.1434
  196MOL   O18747377   6.930   4.088   3.112 -0.3799 -0.2069  0.2647
  196MOL   H18847378   6.853   4.371   2.956  0.0016  1.2809 -0.0263
  196MOL   H18947379   6.910   4.619   3.025  0.2350  0.9509  0.4429
  196MOL   H19047380   7.009   4.545   2.909 -0.2228 -0.4822 -0.9090
  196MOL   H19147381   7.066   4.575   3.075 -3.0223  1.4270  1.8020
  196MOL   H19247382   7.083   4.309   3.143  0.5647  0.7888 -0.6974
  196MOL   H19347383   7.097   4.322   2.960  1.5518  0.3125  0.1985
  196MOL   O19447384   6.945   4.138   2.898 -0.5047  0.3710  0.3272
  196MOL   C19547385   6.876   4.021   2.855 -0.5301  0.1238 -0.3000
  196MOL   C19647386   6.762   4.093   2.792 -0.0946  0.3628 -0.0222
  196MOL   C19747387   6.950   3.920   2.767 -1.1511  1.0032  0.1066
  196MOL   C19847388   7.062   3.840   2.837 -0.0709  0.4816 -0.5218
  196MOL   O19947389   7.053   3.719   2.854  0.0089 -0.0538 -0.3694
  196MOL   H20047390   6.842   3.966   2.943  2.1180 -0.7539  0.2316
  196MOL   H20147391   6.789   4.146   2.701  0.6392 -1.1135 -0.6932
  196MOL   H20247392   6.703   4.148   2.865 -2.8790 -1.9958 -0.4185
  196MOL   H20347393   6.680   4.027   2.761  1.3056 -0.6437 -1.7476
  196MOL   H20447394   7.001   3.978   2.690  1.9209 -1.8992 -0.1770
  196MOL   H20547395   6.874   3.851   2.731  0.6549 -1.4435  0.7715
  196MOL   O20647396   7.165   3.926   2.865 -0.0988  0.2142 -0.2734
  196MOL   C20747397   7.272   3.892   2.948  0.1060 -0.2036 -0.5212
  196MOL   C20847398   7.380   3.815   2.864  0.0623 -0.2789  0.4387
  196MOL   C20947399   7.324   4.021   3.022 -0.1276  0.4311  0.0536
  196MOL   C21047400   7.378   4.134   2.925 -0.4693 -0.4980 -0.3382
  196MOL   O21147401   7.500   4.134   2.900  0.2250  0.4407  0.3558
  196MOL   H21247402   7.224   3.826   3.021 -1.0971  0.7562 -0.4442
  196MOL   H21347403   7.331   3.730   2.816  0.9822 -0.7641  0.3546
  196MOL   H21447404   7.459   3.763   2.918 -1.1007 -0.4980  1.9944
  196MOL   H21547405   7.416   3.884   2.788  0.8125  0.4430  1.4309
  196MOL   H21647406   7.400   3.982   3.090 -1.4769  0.9286  1.8854
  196MOL   H21747407   7.238   4.055   3.081 -0.8001 -0.6004 -0.3117
  196MOL   O21847408   7.283   4.215   2.863  0.1764  0.4043 -0.6224
  196MOL   C21947409   7.318   4.282   2.740  0.3361 -0.2183  0.5914
  196MOL   C22047410   7.251   4.201   2.623 -0.2143  0.5256 -0.1303
  196MOL   C22147411   7.276   4.424   2.745  0.2134  0.1285 -0.2475
  196MOL   C22247412   7.357   4.503   2.859  0.0774  0.5771 -0.2501
  196MOL   O22347413   7.304   4.560   2.952 -0.2288  0.2954 -0.8862
  196MOL   H22447414   7.425   4.277   2.723  0.5149  0.9920  1.3060
  196MOL   H22547415   7.267   4.253   2.528 -0.6620  0.5042 -0.2173
  196MOL   H22647416   7.143   4.204   2.624 -0.2356 -0.4442  1.2689
  196MOL   H22747417   7.285   4.098   2.621  0.4235  0.7251  0.0661
  196MOL   H22847418   7.168   4.436   2.755  0.1648  0.0474 -0.6769
  196MOL   H22947419   7.308   4.478   2.656  3.7518  1.6799  1.8428
  196MOL   O23047420   7.494   4.500   2.830 -0.2392 -0.1921 -0.2960
  196MOL   C23147421   7.589   4.543   2.934  0.5600  0.2629 -0.0000
  196MOL   C23247422   7.619   4.420   3.028 -0.0519  0.0391 -0.1137
  196MOL   C23347423   7.719   4.583   2.859 -0.4594  0.1315 -0.0752
  196MOL   C23447424   7.704   4.704   2.765 -0.6305  0.1608 -0.8744
  196MOL   O23547425   7.793   4.791   2.764  0.1689 -0.7359  0.2729
  196MOL   H23647426   7.538   4.627   2.982 -1.6284 -1.0544  0.0146
  196MOL   H23747427   7.667   4.451   3.121  0.2152  3.3169 -1.2645
  196MOL   H23847428   7.687   4.350   2.979 -0.5597  0.2190 -1.0961
  196MOL   H23947429   7.526   4.370   3.053 -0.5315  0.3666 -1.2507
  196MOL   H24047430   7.759   4.501   2.799  0.2222  0.9118 -0.7050
  196MOL   H24147431   7.801   4.597   2.928 -1.2772 -0.0449  0.9496
  196MOL   H24247432   7.607   4.710   2.715 -0.1005  0.9161 -1.8377
  197MOL     O147433   7.546   2.034   6.678 -0.5852  0.3359 -0.0720
  197MOL     C247434   7.518   2.111   6.563  0.2663 -0.6818  0.5658
  197MOL     C347435   7.647   2.140   6.495  0.8144 -0.4319  0.3092
  197MOL     C447436   7.429   2.027   6.473 -0.6876  0.6908  0.3321
  197MOL     C547437   7.347   2.121   6.383 -0.4769 -0.2974 -0.2072
  197MOL     O647438   7.254   2.176   6.433  0.1050 -0.0057  0.2925
  197MOL     H747439   7.471   2.201   6.603 -1.9955 -3.1579  3.7145
  197MOL     H847440   7.692   2.220   6.555  0.2142 -0.3141  0.6019
  197MOL     H947441   7.632   2.180   6.395  1.9899 -1.2294 -0.1957
  197MOL    H1047442   7.715   2.058   6.472  2.1033  0.4185  0.9785
  197MOL    H1147443   7.356   1.969   6.529  1.4988 -2.9444 -0.3614
  197MOL    H1247444   7.487   1.959   6.409 -0.8125 -1.9274  2.8672
  197MOL    H1347445   7.471   2.028   6.735 -0.0016 -0.1514  0.6521
  197MOL    O1447446   7.383   2.122   6.255 -0.9781 -0.1690  0.0265
  197MOL    C1547447   7.302   2.181   6.150 -0.2007 -0.6398  0.4042
  197MOL    C1647448   7.396   2.282   6.069  1.0572  0.2793 -0.4804
  197MOL    C1747449   7.255   2.074   6.058 -0.4717  0.3697  0.4018
  197MOL    C1847450   7.111   2.027   6.076  0.1396  0.1835  0.2159
  197MOL    O1947451   7.086   1.912   6.116  0.1415  0.6014  0.3065
  197MOL    H2047452   7.217   2.237   6.186  1.3743  1.3191  1.1510
  197MOL    H2147453   7.344   2.348   6.000  1.1014 -1.1934 -1.9646
  197MOL    H2247454   7.476   2.228   6.017  0.4254 -2.5643  1.4030
  197MOL    H2347455   7.445   2.343   6.145  1.6716 -1.7715  0.8253
  197MOL    H2447456   7.324   1.990   6.059  1.0927  1.4808 -3.6454
  197MOL    H2547457   7.265   2.105   5.954  0.2687 -0.0356  0.3534
  197MOL    O2647458   7.015   2.120   6.044  0.0070  0.1380  0.3276
  197MOL    C2747459   6.878   2.101   6.062  0.2370  0.0866 -0.1702
  197MOL    C2847460   6.812   2.229   6.098  0.3189 -0.2642 -0.1548
  197MOL    C2947461   6.818   2.022   5.950  0.4694 -0.4151 -0.4040
  197MOL    C3047462   6.699   1.937   6.001 -0.3769  0.1156  0.0873
  197MOL    O3147463   6.581   1.964   5.978  0.0563 -0.7434  0.2968
  197MOL    H3247464   6.869   2.040   6.152  0.6388  0.0383 -0.1633
  197MOL    H3347465   6.809   2.306   6.021 -0.4717  2.1179  2.1704
  197MOL    H3447466   6.854   2.279   6.185 -0.2199 -3.1331  1.8337
  197MOL    H3547467   6.708   2.214   6.128  1.3381 -1.1144  3.1516
  197MOL    H3647468   6.889   1.950   5.910  0.3523 -0.8198  0.1024
  197MOL    H3747469   6.794   2.091   5.869  1.1913 -0.0582 -0.3189
  197MOL    O3847470   6.735   1.822   6.083  0.3787  0.1131 -0.1195
  197MOL    C3947471   6.632   1.734   6.129 -0.6822 -0.8286  0.0239
  197MOL    C4047472   6.606   1.629   6.028 -0.1479  0.0838 -0.0415
  197MOL    C4147473   6.683   1.664   6.252 -0.0764  0.5582 -0.3557
  197MOL    C4247474   6.705   1.748   6.380  0.2398  0.4800 -0.2177
  197MOL    O4347475   6.606   1.796   6.445 -0.7148 -0.6919 -0.5363
  197MOL    H4447476   6.539   1.784   6.157  0.1936  1.4377 -0.9491
  197MOL    H4547477   6.687   1.576   5.979 -2.3626 -3.0697 -0.4167
  197MOL    H4647478   6.556   1.672   5.942 -0.9946 -2.1172 -0.6728
  197MOL    H4747479   6.543   1.550   6.068  0.1143 -0.0482  0.1137
  197MOL    H4847480   6.767   1.599   6.230 -0.1548  0.5754 -0.7116
  197MOL    H4947481   6.615   1.583   6.280  0.3990  0.1229 -0.4431
  197MOL    O5047482   6.837   1.753   6.414 -0.1572  0.3569  0.4872
  197MOL    C5147483   6.876   1.849   6.508 -0.6429  0.2378 -0.5246
  197MOL    C5247484   6.927   1.771   6.637 -0.0250 -0.2285  0.5255
  197MOL    C5347485   6.969   1.948   6.440  0.6254 -0.3503 -0.0985
  197MOL    C5447486   6.973   2.089   6.503  0.2429  0.2435  0.2673
  197MOL    O5547487   6.927   2.187   6.440  0.0524  0.0770 -0.1571
  197MOL    H5647488   6.788   1.909   6.535 -0.8459  0.1599 -1.0099
  197MOL    H5747489   6.856   1.710   6.693 -0.7355 -1.0050 -1.1807
  197MOL    H5847490   6.945   1.844   6.716  1.1908 -2.2005  2.1424
  197MOL    H5947491   7.019   1.715   6.619  1.2821  1.8509  0.5932
  197MOL    H6047492   6.940   1.952   6.335  1.9201 -1.2115 -0.4945
  197MOL    H6147493   7.070   1.908   6.439  0.5788 -0.4979  1.0021
  197MOL    O6247494   7.020   2.097   6.634  0.0235  0.6171  0.1216
  197MOL    C6347495   7.015   2.216   6.700 -0.8382 -0.1117 -0.0919
  197MOL    C6447496   6.911   2.217   6.811  0.6298  0.8296 -0.1398
  197MOL    C6547497   7.157   2.259   6.742  0.0487  0.4534 -0.9787
  197MOL    C6647498   7.225   2.182   6.854 -0.6305 -0.5975  0.3040
  197MOL    O6747499   7.308   2.093   6.829  1.0431 -0.3619  0.2936
  197MOL    H6847500   6.986   2.300   6.636  1.0915  1.2026  0.7104
  197MOL    H6947501   6.923   2.312   6.863  0.3161  0.2585  0.9940
  197MOL    H7047502   6.934   2.144   6.889 -0.9466 -0.5190 -0.9182
  197MOL    H7147503   6.806   2.204   6.784  0.8937  1.7773 -1.6329
  197MOL    H7247504   7.161   2.366   6.760  0.3939  0.6883 -2.3613
  197MOL    H7347505   7.220   2.242   6.654  1.5056 -2.5022  0.5518
  197MOL    O7447506   7.182   2.218   6.981  0.1519 -0.1816 -0.1150
  197MOL    C7547507   7.241   2.158   7.095  0.3136  0.1778 -0.0251
  197MOL    C7647508   7.188   2.242   7.216 -0.5321  0.3061 -0.4539
  197MOL    C7747509   7.203   2.006   7.108 -0.1870 -0.5723  0.4257
  197MOL    C7847510   7.056   1.984   7.159 -0.3964 -0.4200 -0.4597
  197MOL    O7947511   7.039   1.982   7.282 -0.4275 -0.2989 -0.2309
  197MOL    H8047512   7.350   2.156   7.094  0.3892  0.9356  2.4042
  197MOL    H8147513   7.237   2.339   7.209 -0.3370  0.3393  1.2378
  197MOL    H8247514   7.219   2.193   7.308  1.5070  0.0439 -1.2562
  197MOL    H8347515   7.082   2.266   7.219 -0.5361  0.2908 -0.5009
  197MOL    H8447516   7.272   1.988   7.191  0.0869 -1.6196 -0.0178
  197MOL    H8547517   7.228   1.952   7.017  3.0584  1.5118  0.0096
  197MOL    O8647518   6.959   1.961   7.064 -0.2104 -0.2266  0.4103
  197MOL    C8747519   6.826   1.925   7.114  0.1131  0.6661  0.4302
  197MOL    C8847520   6.721   2.030   7.079 -0.7310 -0.7794  0.0423
  197MOL    C8947521   6.792   1.793   7.041 -0.2889 -0.2700 -0.7516
  197MOL    C9047522   6.831   1.674   7.125  0.5312 -0.1377 -0.4576
  197MOL    O9147523   6.751   1.631   7.212 -0.3234  0.0049 -0.0728
  197MOL    H9247524   6.821   1.912   7.223  1.1395  0.1904  0.4296
  197MOL    H9347525   6.625   2.027   7.131  0.4743  0.5873  2.4220
  197MOL    H9447526   6.707   2.052   6.973 -1.8330 -1.1241  0.1091
  197MOL    H9547527   6.766   2.124   7.112 -1.0849  0.1855 -2.1362
  197MOL    H9647528   6.844   1.796   6.945  1.9459  2.5247  0.4555
  197MOL    H9747529   6.684   1.785   7.030 -0.3203  1.0271 -1.5321
  197MOL    O9847530   6.951   1.609   7.090  0.1111 -0.1826 -0.5191
  197MOL    C9947531   6.994   1.489   7.155  0.1024 -0.4759  0.3179
  197MOL   C10047532   6.931   1.359   7.089 -0.2256  0.1246  0.4510
  197MOL   C10147533   7.151   1.490   7.157 -0.3438 -0.0165  0.7753
  197MOL   C10247534   7.200   1.615   7.233 -0.3518 -0.4839 -0.9031
  197MOL   O10347535   7.265   1.706   7.175 -0.0710  0.1908  0.6674
  197MOL   H10447536   6.970   1.499   7.261  0.4452  0.2403  0.3267
  197MOL   H10547537   6.931   1.372   6.981 -1.9095 -1.9340  0.1713
  197MOL   H10647538   6.824   1.359   7.109  0.1635  1.7616  2.7370
  197MOL   H10747539   6.979   1.270   7.130 -0.6324 -0.0417  0.5709
  197MOL   H10847540   7.196   1.496   7.058 -0.5598 -1.4121  0.5899
  197MOL   H10947541   7.193   1.405   7.211  2.2802  0.0604 -1.0331
  197MOL   O11047542   7.173   1.609   7.372 -0.4543 -0.2670 -0.1752
  197MOL   C11147543   7.200   1.719   7.460  0.0278 -0.0449  0.1267
  197MOL   C11247544   7.073   1.742   7.540  0.6005  0.0614  0.1330
  197MOL   C11347545   7.319   1.665   7.543 -0.9083  0.3679 -0.2012
  197MOL   C11447546   7.403   1.774   7.614 -0.8551  0.3137 -0.0349
  197MOL   O11547547   7.510   1.746   7.665 -0.5051 -0.3352 -0.0378
  197MOL   H11647548   7.224   1.808   7.401 -0.4396 -0.4889 -0.7398
  197MOL   H11747549   7.079   1.839   7.588  1.2620 -0.4153  1.0142
  197MOL   H11847550   7.069   1.673   7.624 -0.3993 -0.3900 -0.2686
  197MOL   H11947551   6.982   1.739   7.480 -0.1746 -1.5740  1.3485
  197MOL   H12047552   7.393   1.604   7.491 -0.0341  0.1440  1.2587
  197MOL   H12147553   7.285   1.596   7.621 -2.3118 -0.8539 -1.8639
  197MOL   O12247554   7.334   1.877   7.645 -0.2829 -0.1483  0.3734
  197MOL   C12347555   7.393   1.990   7.706 -0.1038 -0.0422 -0.2854
  197MOL   C12447556   7.333   2.116   7.649 -0.0043 -0.2204  0.2013
  197MOL   C12547557   7.379   1.971   7.862 -0.0423  0.6104 -0.2703
  197MOL   C12647558   7.469   2.079   7.937  0.0113 -0.3471  0.5933
  197MOL   O12747559   7.455   2.201   7.922 -0.0965 -0.3419 -0.7472
  197MOL   H12847560   7.496   1.994   7.670  0.5710 -2.5973  1.2481
  197MOL   H12947561   7.401   2.196   7.677  1.3756 -2.4448  3.4641
  197MOL   H13047562   7.232   2.140   7.683 -0.5050 -0.0239 -1.3797
  197MOL   H13147563   7.327   2.114   7.540 -2.5595 -1.0137  0.3106
  197MOL   H13247564   7.430   1.876   7.880  0.5452  0.7751 -1.0364
  197MOL   H13347565   7.278   1.957   7.901 -0.6132  2.0035 -1.2151
  197MOL   O13447566   7.561   2.020   0.037  0.0684  0.5706 -0.0104
  197MOL   C13547567   7.665   2.086   0.090  0.3579  0.3367 -0.6778
  197MOL   C13647568   7.732   2.002   0.198  0.1750 -0.1216  0.2386
  197MOL   C13747569   7.767   2.109   7.954 -1.0640  0.1706 -0.3798
  197MOL   C13847570   7.847   2.233   7.972 -0.8430 -0.3409 -0.0852
  197MOL   O13947571   7.833   2.300   0.093  0.4042  0.4923  0.4108
  197MOL   H14047572   7.622   2.179   0.126 -0.5613 -1.2413  2.4466
  197MOL   H14147573   7.651   1.968   0.263  0.3933 -2.0312 -0.4889
  197MOL   H14247574   7.808   2.043   0.265  0.7756  0.2953 -0.6999
  197MOL   H14347575   7.792   1.927   0.148  0.9576 -1.0890  2.5465
  197MOL   H14447576   7.720   2.107   7.855 -2.1952 -1.9695  0.1651
  197MOL   H14547577   7.840   2.028   7.946 -1.6142 -0.2379 -1.5302
  197MOL   O14647578   7.919   2.265   7.871 -0.4328  0.3008  0.1853
  197MOL   C14747579   0.029   2.374   7.884  0.6297  0.4478  0.4197
  197MOL   C14847580   0.136   2.344   7.778 -0.0921  0.8819 -0.4163
  197MOL   C14947581   7.946   2.513   7.870 -0.2411 -0.6153  0.1892
  197MOL   C15047582   7.846   2.527   7.749 -1.0324 -0.0686 -0.6891
  197MOL   O15147583   7.889   2.580   7.644 -0.0704  0.0089  0.0559
  197MOL   H15247584   0.073   2.363   0.004 -1.8394  0.7718  1.5669
  197MOL   H15347585   0.220   2.413   7.776  0.2715  0.4662  0.3571
  197MOL   H15447586   0.095   2.327   7.678  1.4376 -1.6180 -0.6476
  197MOL   H15547587   0.185   2.250   7.803  0.8978  1.6084  0.3941
  197MOL   H15647588   0.048   2.584   7.861 -0.5259 -0.0860  1.6043
  197MOL   H15747589   7.891   2.545   7.959 -0.9524  0.3917 -0.5992
  197MOL   O15847590   7.730   2.482   7.775  0.4787 -0.6734  0.2868
  197MOL   C15947591   7.637   2.490   7.668  0.1175 -0.1292 -0.4604
  197MOL   C16047592   7.671   2.363   7.586 -0.6904 -0.3661 -0.1788
  197MOL   C16147593   7.494   2.493   7.721  0.1551  0.3544 -0.1569
  197MOL   C16247594   7.396   2.518   7.606  0.3044 -0.9124 -0.2450
  197MOL   O16347595   7.317   2.431   7.570  0.2372 -0.0837 -0.1070
  197MOL   H16447596   7.658   2.575   7.604  2.6569  1.0035  1.7983
  197MOL   H16547597   7.774   2.351   7.554 -0.5862  0.8552 -0.3024
  197MOL   H16647598   7.615   2.368   7.492 -0.7921  0.4258 -0.0781
  197MOL   H16747599   7.636   2.274   7.638  0.9205 -0.3512  0.9573
  197MOL   H16847600   7.472   2.563   7.801  0.4107 -0.8768  1.0056
  197MOL   H16947601   7.465   2.398   7.766 -0.4132  1.1140  1.1202
  197MOL   O17047602   7.406   2.639   7.549 -0.3393 -1.0047  0.4259
  197MOL   C17147603   7.325   2.652   7.433  0.1944 -0.2397 -0.2990
  197MOL   C17247604   7.280   2.798   7.442 -0.3054  0.8394  0.4866
  197MOL   C17347605   7.399   2.608   7.302  0.6814  0.1268  0.0682
  197MOL   C17447606   7.503   2.711   7.268 -0.4120 -0.2033  0.1986
  197MOL   O17547607   7.493   2.782   7.170  0.0848 -0.4325 -0.1737
  197MOL   H17647608   7.232   2.596   7.420 -0.9518  1.0974  1.8644
  197MOL   H17747609   7.208   2.826   7.364  0.1155 -4.5472 -2.1210
  197MOL   H17847610   7.362   2.868   7.428  1.6430 -1.4151  0.2796
  197MOL   H17947611   7.227   2.822   7.534 -0.8811 -1.8272  0.8972
  197MOL   H18047612   7.329   2.609   7.219  2.8999  0.5451 -1.8471
  197MOL   H18147613   7.440   2.507   7.309 -0.0257 -0.1617  0.0137
  197MOL   O18247614   7.597   2.704   7.354 -0.2523  0.2960 -0.3682
  197MOL   C18347615   7.724   2.758   7.332  0.1320 -0.1929 -0.1111
  197MOL   C18447616   7.757   2.827   7.465  0.2914  0.0964  0.0327
  197MOL   C18547617   7.811   2.634   7.311 -0.1122 -0.3222 -0.1152
  197MOL   C18647618   7.863   2.640   7.166  0.1216  0.1468 -0.3244
  197MOL   O18747619   7.872   2.537   7.099 -0.2494 -0.4216 -1.2043
  197MOL   H18847620   7.710   2.834   7.255 -0.3834  0.3863  0.5467
  197MOL   H18947621   7.861   2.813   7.494 -0.0421 -0.2652  1.0747
  197MOL   H19047622   7.700   2.792   7.551 -0.5086  0.2419 -0.4324
  197MOL   H19147623   7.737   2.932   7.446 -1.0699 -0.3610 -1.1696
  197MOL   H19247624   7.757   2.541   7.329 -3.5231  1.5963 -0.0372
  197MOL   H19347625   7.900   2.635   7.374 -1.6525 -1.0543  2.1297
  197MOL   O19447626   7.911   2.756   7.121  0.0657  0.1519 -0.0482
  197MOL   C19547627   7.943   2.790   6.982  0.1009 -0.1834 -0.1679
  197MOL   C19647628   7.843   2.892   6.929 -0.2305 -0.4643 -0.2056
  197MOL   C19747629   0.104   2.852   7.020  0.2627 -0.6618  0.3998
  197MOL   C19847630   0.184   2.897   6.900 -0.2186 -0.0613  0.5641
  197MOL   O19947631   0.268   2.830   6.841  0.6123  0.1640  0.4151
  197MOL   H20047632   7.947   2.702   6.919 -1.5811  1.6361 -2.9019
  197MOL   H20147633   7.752   2.845   6.892 -0.8616 -0.8155  1.7254
  197MOL   H20247634   7.874   2.946   6.840 -1.9845  0.0304 -0.5301
  197MOL   H20347635   7.819   2.967   7.004 -0.3019 -0.8865  0.1975
  197MOL   H20447636   0.162   2.777   7.074  1.6795  0.3420  0.2934
  197MOL   H20547637   0.089   2.933   7.090  0.1279 -1.3225  1.1372
  197MOL   O20647638   0.156   3.031   6.873  0.8120  0.1936 -0.5049
  197MOL   C20747639   0.178   3.078   6.740 -0.2601  0.5175 -0.4578
  197MOL   C20847640   0.046   3.082   6.665  0.3422 -0.1417  0.3392
  197MOL   C20947641   0.248   3.212   6.767 -0.7472 -0.0457  0.2020
  197MOL   C21047642   0.311   3.275   6.642 -0.2342  0.2529 -0.0733
  197MOL   O21147643   0.282   3.392   6.620 -0.2031 -0.1815  0.3729
  197MOL   H21247644   0.238   2.998   6.698  0.3412 -0.4352  2.1434
  197MOL   H21347645   0.059   3.109   6.560  0.8070  0.8281  0.6400
  197MOL   H21447646   7.972   3.171   6.699  0.3294  0.5480 -1.4358
  197MOL   H21547647   7.973   2.989   6.648 -1.1520  0.5194  1.2362
  197MOL   H21647648   0.323   3.190   6.842 -1.2221  0.0589  0.7058
  197MOL   H21747649   0.181   3.290   6.803 -0.7941  0.8711 -1.7952
  197MOL   O21847650   0.392   3.195   6.577 -0.0339 -0.3343  0.0097
  197MOL   C21947651   0.486   3.231   6.473 -0.0755  0.0957 -0.5309
  197MOL   C22047652   0.630   3.185   6.518 -0.3947 -0.1261  0.3558
  197MOL   C22147653   0.454   3.158   6.341  0.0666 -0.6969  0.0772
  197MOL   C22247654   0.334   3.223   6.281  0.0347  0.5270  0.4060
  197MOL   O22347655   0.215   3.184   6.298  0.1384 -0.2562  0.5830
  197MOL   H22447656   0.480   3.339   6.467  0.1847 -0.0025 -3.8325
  197MOL   H22547657   0.650   3.078   6.516 -2.7968 -0.6109  0.6392
  197MOL   H22647658   0.651   3.226   6.616  0.4322 -1.7331  0.8638
  197MOL   H22747659   0.693   3.235   6.445 -1.5708 -0.2646 -0.7782
  197MOL   H22847660   0.435   3.053   6.362 -2.4542 -0.3751 -0.4494
  197MOL   H22947661   0.540   3.165   6.275 -0.0318 -0.0043  0.0192
  197MOL   O23047662   0.371   3.334   6.217  0.2486  0.6484  0.0037
  197MOL   C23147663   0.270   3.420   6.169 -0.4300  0.7302  0.3040
  197MOL   C23247664   0.299   3.546   6.249  0.1880  0.3150 -1.0667
  197MOL   C23347665   0.289   3.441   6.016  0.4308  0.5053  0.1229
  197MOL   C23447666   0.167   3.493   5.944  0.2709 -0.4963  0.6026
  197MOL   O23547667   0.174   3.571   5.853 -0.1193 -0.5087 -0.5908
  197MOL   H23647668   0.168   3.392   6.196 -0.6819  1.3089 -0.0323
  197MOL   H23747669   0.398   3.586   6.229  1.0301 -1.4942 -0.6135
  197MOL   H23847670   0.284   3.526   6.356 -1.2226  3.0196 -0.7188
  197MOL   H23947671   0.221   3.619   6.226  0.2989  0.7751 -0.0144
  197MOL   H24047672   0.289   3.337   5.984 -0.2541 -0.5409  3.4194
  197MOL   H24147673   0.380   3.500   6.008 -0.1987  1.6096  1.0596
  197MOL   H24247674   0.072   3.472   5.993  0.5912 -0.0421  1.4101
  198MOL     O147675   4.874   1.337   6.805 -0.7737 -0.2752 -0.1811
  198MOL     C247676   4.987   1.309   6.886  0.0663  0.5810  0.2070
  198MOL     C347677   4.993   1.413   6.999 -0.4385 -0.0358 -0.1902
  198MOL     C447678   4.985   1.163   6.945 -0.2009 -0.6773 -0.4105
  198MOL     C547679   5.121   1.119   7.011  0.7489 -0.1395  0.2611
  198MOL     O647680   5.127   1.124   7.134 -0.3897 -0.3417 -0.2608
  198MOL     H747681   5.069   1.328   6.816 -2.5600  1.9401 -2.6209
  198MOL     H847682   5.093   1.440   7.033 -1.7454  1.7088  2.4780
  198MOL     H947683   4.922   1.402   7.081  0.6179  0.6358  0.8292
  198MOL    H1047684   4.955   1.510   6.964 -2.0260 -0.8830 -0.8682
  198MOL    H1147685   4.966   1.094   6.863  0.6718 -0.0136 -1.1873
  198MOL    H1247686   4.918   1.154   7.030  0.9752  0.0514  0.6223
  198MOL    H1347687   4.902   1.348   6.715  0.2464  3.7832  0.5254
  198MOL    O1447688   5.213   1.062   6.929 -0.0061 -0.0894 -0.2030
  198MOL    C1547689   5.334   1.006   6.969 -0.0799  0.5889 -0.0491
  198MOL    C1647690   5.298   0.866   7.027 -0.3396 -0.8032 -0.4413
  198MOL    C1747691   5.440   0.992   6.857  0.5512 -0.2015 -1.0122
  198MOL    C1847692   5.468   1.123   6.789  0.3054  0.5432 -0.1557
  198MOL    O1947693   5.480   1.133   6.668 -0.1375 -0.0281 -0.5536
  198MOL    H2047694   5.385   1.063   7.047  0.2563  2.0464 -1.3171
  198MOL    H2147695   5.252   0.802   6.951  1.6117 -0.8900 -1.5925
  198MOL    H2247696   5.221   0.876   7.103 -0.8495 -0.1982 -1.0262
  198MOL    H2347697   5.387   0.815   7.062  0.0336  1.4720  2.0937
  198MOL    H2447698   5.395   0.925   6.783  1.6794 -1.0643 -0.9390
  198MOL    H2547699   5.536   0.952   6.891  0.8368  0.1129 -1.4360
  198MOL    O2647700   5.495   1.229   6.882 -0.0988  0.0267  0.5146
  198MOL    C2747701   5.526   1.357   6.821  0.2301 -0.6487 -0.0141
  198MOL    C2847702   5.396   1.419   6.763  0.8368 -0.4984  0.4983
  198MOL    C2947703   5.605   1.446   6.924  0.3663  0.4381 -0.1757
  198MOL    C3047704   5.748   1.393   6.937  0.2321  0.3361  0.1230
  198MOL    O3147705   5.784   1.337   7.041  0.2405 -0.5022 -0.3430
  198MOL    H3247706   5.580   1.347   6.727 -0.2615 -0.2837 -0.3421
  198MOL    H3347707   5.405   1.526   6.741 -1.3908 -0.4196 -0.2022
  198MOL    H3447708   5.329   1.402   6.847 -1.5739 -0.0138 -1.2772
  198MOL    H3547709   5.367   1.369   6.671  1.0354 -1.1153  0.7742
  198MOL    H3647710   5.558   1.427   7.020  1.1141  2.0124  0.5275
  198MOL    H3747711   5.601   1.553   6.905 -1.1760  0.2960 -0.6963
  198MOL    O3847712   5.830   1.437   6.831 -0.6302  0.0729  0.3359
  198MOL    C3947713   5.966   1.391   6.814 -0.1789 -0.5440  0.7332
  198MOL    C4047714   5.977   1.338   6.670  0.0086 -0.2358 -0.0676
  198MOL    C4147715   6.066   1.495   6.850  0.4535  0.2122  0.5801
  198MOL    C4247716   6.206   1.447   6.863 -0.7582 -0.0346 -0.2644
  198MOL    O4347717   6.238   1.359   6.946  0.1177  0.0518  0.5151
  198MOL    H4447718   5.983   1.307   6.882 -2.0332 -0.7574  0.9829
  198MOL    H4547719   5.955   1.411   6.592  0.8839  0.1196  0.0116
  198MOL    H4647720   5.893   1.269   6.660 -2.1086  2.0849  1.0145
  198MOL    H4747721   6.073   1.290   6.653 -0.2635 -0.8929  0.2606
  198MOL    H4847722   6.044   1.546   6.944 -0.4549  0.8006  0.0584
  198MOL    H4947723   6.067   1.577   6.777  1.3905 -0.6008 -0.3368
  198MOL    O5047724   6.287   1.502   6.774  0.0385  0.4573  0.2451
  198MOL    C5147725   6.418   1.444   6.764 -0.6759  0.2659  0.1177
  198MOL    C5247726   6.427   1.326   6.660  0.1479  0.4021 -0.4063
  198MOL    C5347727   6.525   1.553   6.733  0.5649 -0.4579  0.3604
  198MOL    C5447728   6.670   1.504   6.737  0.8063  0.7387 -0.0435
  198MOL    O5547729   6.750   1.503   6.829  0.3186  0.0762 -0.1237
  198MOL    H5647730   6.456   1.406   6.859 -1.7443  1.6100  1.1235
  198MOL    H5747731   6.342   1.258   6.659 -1.3114  2.1499  0.6048
  198MOL    H5847732   6.510   1.261   6.687  1.0910  1.7372 -0.0137
  198MOL    H5947733   6.426   1.360   6.556  2.0278  0.7494 -0.3260
  198MOL    H6047734   6.515   1.633   6.806 -2.1152 -0.8448  0.4795
  198MOL    H6147735   6.515   1.599   6.635 -0.5243  1.7794  1.4690
  198MOL    O6247736   6.699   1.435   6.627  0.4993  0.4714  0.3313
  198MOL    C6347737   6.828   1.394   6.591 -0.4734  0.0991 -0.4285
  198MOL    C6447738   6.869   1.265   6.671  0.3907 -0.6616  0.0497
  198MOL    C6547739   6.836   1.373   6.439  0.3212 -0.5953 -0.5983
  198MOL    C6647740   6.979   1.384   6.384  0.3156 -0.5189 -0.4906
  198MOL    O6747741   7.070   1.313   6.423  0.4893 -0.4189  0.3208
  198MOL    H6847742   6.904   1.470   6.611  0.0968  0.2325 -2.9470
  198MOL    H6947743   6.789   1.193   6.691  0.9407 -1.5793 -1.0212
  198MOL    H7047744   6.910   1.301   6.765  1.3094  0.1063 -0.6404
  198MOL    H7147745   6.960   1.209   6.650  0.3840 -1.5392  2.2517
  198MOL    H7247746   6.771   1.452   6.401 -0.0146  0.0911  1.3618
  198MOL    H7347747   6.795   1.276   6.409 -0.8402 -0.9025  1.8898
  198MOL    O7447748   6.978   1.487   6.291 -0.4108 -0.8628 -0.4180
  198MOL    C7547749   7.095   1.533   6.226 -0.3384 -0.7253  0.5355
  198MOL    C7647750   7.060   1.597   6.095 -0.0707  0.1131 -0.5069
  198MOL    C7747751   7.169   1.630   6.314  0.3732  0.1068  0.2077
  198MOL    C7847752   7.310   1.666   6.281 -0.1897  0.0877 -0.2444
  198MOL    O7947753   7.339   1.777   6.247 -0.4472 -1.3760  0.1180
  198MOL    H8047754   7.159   1.448   6.205 -2.6876 -2.5899  0.8259
  198MOL    H8147755   7.141   1.654   6.050 -0.2346  1.6185  1.0344
  198MOL    H8247756   6.978   1.668   6.105 -0.8666 -0.7796 -0.6381
  198MOL    H8347757   7.033   1.520   6.023 -0.7855  0.5395 -0.6997
  198MOL    H8447758   7.196   1.593   6.413 -1.7900  1.8269  1.4705
  198MOL    H8547759   7.119   1.724   6.336 -0.3525 -0.4125  0.8076
  198MOL    O8647760   7.390   1.552   6.296 -0.2039 -0.2515 -0.3759
  198MOL    C8747761   7.535   1.563   6.257  0.1124  0.4026 -0.4555
  198MOL    C8847762   7.616   1.614   6.374 -0.5685  0.0863  0.5606
  198MOL    C8947763   7.588   1.445   6.174  0.9401  0.1281  0.5167
  198MOL    C9047764   7.611   1.320   6.254  0.4466  0.3746  0.4460
  198MOL    O9147765   7.537   1.222   6.244 -0.0522  0.1739 -0.1675
  198MOL    H9247766   7.551   1.640   6.181 -1.3416  1.0544 -0.1158
  198MOL    H9347767   7.581   1.702   6.428 -1.2640 -0.0608  0.3489
  198MOL    H9447768   7.723   1.622   6.355 -0.8194 -0.7451 -1.3069
  198MOL    H9547769   7.627   1.533   6.446  0.7111 -0.6599 -0.4546
  198MOL    H9647770   7.690   1.460   6.138  0.3431  0.7785 -0.9262
  198MOL    H9747771   7.527   1.426   6.085  0.0280  1.2774  0.8851
  198MOL    O9847772   7.716   1.320   6.332 -0.2088 -0.0541  0.1448
  198MOL    C9947773   7.763   1.206   6.409  0.0800 -0.1152  0.3436
  198MOL   C10047774   7.850   1.114   6.329  0.4654 -0.0513 -0.9671
  198MOL   C10147775   7.830   1.260   6.539 -0.1157  0.0828  0.5195
  198MOL   C10247776   7.826   1.170   6.661 -0.3862  0.3202 -0.0703
  198MOL   O10347777   7.922   1.157   6.736 -0.1339  0.0396  0.7778
  198MOL   H10447778   7.680   1.142   6.439  0.8001 -0.4050  1.8163
  198MOL   H10547779   7.804   1.028   6.280  1.6641 -0.6665 -1.0266
  198MOL   H10647780   7.914   1.073   6.406 -1.6404 -2.4288 -0.4240
  198MOL   H10747781   7.924   1.168   6.269 -0.4204 -0.3106 -2.3204
  198MOL   H10847782   7.793   1.361   6.558  0.3291  0.3051  0.2022
  198MOL   H10947783   7.935   1.283   6.523 -0.0463 -0.9251 -0.5181
  198MOL   O11047784   7.695   1.132   6.690  0.0122  0.3394 -0.0695
  198MOL   C11147785   7.677   1.036   6.793 -0.5045 -0.2809  0.3197
  198MOL   C11247786   7.530   1.039   6.828  0.3922  0.1211  0.2972
  198MOL   C11347787   7.720   0.894   6.750  0.4126 -0.4116  0.7298
  198MOL   C11447788   7.660   0.857   6.611 -0.0213 -0.0476  0.3407
  198MOL   O11547789   7.719   0.890   6.508  0.2745 -0.6116  0.0542
  198MOL   H11647790   7.728   1.068   6.884  0.6483  3.3594 -1.5566
  198MOL   H11747791   7.498   0.954   6.890 -1.0417 -0.6801 -1.4940
  198MOL   H11847792   7.457   1.020   6.749  0.1764 -0.2625  0.5846
  198MOL   H11947793   7.495   1.135   6.865  0.2830  0.2426 -0.1233
  198MOL   H12047794   7.688   0.821   6.824 -0.8882 -0.2035  0.3946
  198MOL   H12147795   7.829   0.893   6.741  0.4687  1.4704  1.1356
  198MOL   O12247796   7.548   0.793   6.624  0.2954 -0.3386 -0.2965
  198MOL   C12347797   7.463   0.757   6.515 -0.3945  0.4979  0.1802
  198MOL   C12447798   7.446   0.607   6.528  0.1537 -0.0427 -0.5197
  198MOL   C12547799   7.333   0.835   6.531 -0.1606  0.2540 -0.0829
  198MOL   C12647800   7.238   0.827   6.414 -0.5009 -0.4146 -0.0302
  198MOL   O12747801   7.267   0.761   6.309  0.0097 -0.0860 -0.3177
  198MOL   H12847802   7.517   0.786   6.425  1.1580 -0.7075  0.6969
  198MOL   H12947803   7.386   0.569   6.445  0.7726 -0.2910 -0.8533
  198MOL   H13047804   7.400   0.573   6.621 -1.1266 -2.8147 -2.0976
  198MOL   H13147805   7.543   0.560   6.515 -0.5465 -1.5246 -0.4662
  198MOL   H13247806   7.342   0.943   6.524 -0.8603  0.2777 -0.7264
  198MOL   H13347807   7.275   0.812   6.620 -1.6320 -1.0941 -1.3467
  198MOL   O13447808   7.115   0.875   6.440  0.8105 -1.1435  0.6542
  198MOL   C13547809   7.012   0.876   6.343  0.5874 -0.3479 -0.1208
  198MOL   C13647810   6.914   0.764   6.388 -0.1026 -0.2289  0.1172
  198MOL   C13747811   6.958   1.016   6.327 -0.0072 -0.4330  0.4471
  198MOL   C13847812   6.859   1.034   6.210 -0.6528  0.3890 -0.4641
  198MOL   O13947813   6.804   0.935   6.163 -0.3459 -0.0564  0.8027
  198MOL   H14047814   7.061   0.858   6.247  1.4564 -0.0729  0.2587
  198MOL   H14147815   6.845   0.740   6.307 -0.3723  0.0950  0.2519
  198MOL   H14247816   6.854   0.801   6.471  1.2528 -1.4403  1.6804
  198MOL   H14347817   6.978   0.683   6.423  4.3305  2.7805 -0.4844
  198MOL   H14447818   7.037   1.090   6.318 -0.7335  0.1816 -0.9126
  198MOL   H14547819   6.919   1.054   6.422 -2.6198 -1.2376 -0.2545
  198MOL   O14647820   6.850   1.166   6.159  0.1812  0.2397 -0.4212
  198MOL   C14747821   6.803   1.186   6.029 -0.3650 -0.6561 -0.1206
  198MOL   C14847822   6.741   1.322   6.031  0.0511 -0.5525 -0.5253
  198MOL   C14947823   6.920   1.167   5.935 -0.1420 -0.2519 -0.1910
  198MOL   C15047824   6.876   1.191   5.784  0.4278  0.5537 -0.3145
  198MOL   O15147825   6.912   1.298   5.727  0.1681 -0.0612 -0.5303
  198MOL   H15247826   6.727   1.112   6.000  0.0980 -0.0355 -3.0235
  198MOL   H15347827   6.705   1.351   5.933  0.7556  1.8471 -0.1030
  198MOL   H15447828   6.818   1.385   6.075  0.6105 -2.1371  0.8587
  198MOL   H15547829   6.655   1.333   6.097 -0.2108 -2.7681 -0.4357
  198MOL   H15647830   6.962   1.068   5.950 -0.1050  0.1700  2.8005
  198MOL   H15747831   6.991   1.243   5.968 -0.7814 -0.0406  0.7328
  198MOL   O15847832   6.807   1.088   5.736  0.2175 -0.2265  0.3139
  198MOL   C15947833   6.790   1.078   5.594  1.0650  0.1871 -0.0482
  198MOL   C16047834   6.861   0.950   5.546 -0.2440 -0.5087 -0.3882
  198MOL   C16147835   6.641   1.052   5.567  0.7659 -0.6128 -0.5064
  198MOL   C16247836   6.543   1.169   5.588 -0.1837 -0.7340  0.2856
  198MOL   O16347837   6.438   1.143   5.651  0.7053  0.6794  0.4547
  198MOL   H16447838   6.820   1.168   5.540  1.7098  0.3515  0.5774
  198MOL   H16547839   6.846   0.926   5.441 -0.1341  0.4212 -0.6217
  198MOL   H16647840   6.842   0.852   5.589  3.3123 -0.8910  0.5062
  198MOL   H16747841   6.968   0.966   5.555 -0.6162  0.3519  3.3746
  198MOL   H16847842   6.616   0.966   5.629 -0.4029  0.1277  0.0796
  198MOL   H16947843   6.629   1.024   5.463 -0.2032 -0.3183 -0.4858
  198MOL   O17047844   6.581   1.298   5.551 -0.0579  0.2547 -0.0665
  198MOL   C17147845   6.502   1.408   5.584 -0.0170  0.5533  0.0345
  198MOL   C17247846   6.537   1.447   5.724 -0.2497 -0.6811  0.5449
  198MOL   C17347847   6.552   1.512   5.483 -0.1746 -0.5620  0.9281
  198MOL   C17447848   6.465   1.630   5.468  0.6655 -0.4060  0.4325
  198MOL   O17547849   6.340   1.620   5.457  0.5264 -0.0907 -0.3713
  198MOL   H17647850   6.396   1.380   5.574  0.1122 -0.4002  1.2362
  198MOL   H17747851   6.520   1.375   5.804  0.2764 -0.9526  0.4168
  198MOL   H17847852   6.469   1.530   5.742  0.7656  0.3527 -0.2739
  198MOL   H17947853   6.641   1.481   5.726  0.2912 -1.4909 -5.0861
  198MOL   H18047854   6.562   1.457   5.390 -3.1460  0.4340 -0.0265
  198MOL   H18147855   6.655   1.543   5.500  0.1116 -1.1097  0.1898
  198MOL   O18247856   6.538   1.754   5.473  0.1959 -0.1895  0.3144
  198MOL   C18347857   6.476   1.876   5.454  0.5156  0.1941  0.4910
  198MOL   C18447858   6.548   1.963   5.562  0.1361 -0.1302  0.8343
  198MOL   C18547859   6.494   1.935   5.308  0.0135  0.3339  0.4988
  198MOL   C18647860   6.408   1.878   5.194  0.1875  0.1415 -0.3376
  198MOL   O18747861   6.443   1.789   5.113  0.2889 -0.6412  0.0942
  198MOL   H18847862   6.368   1.873   5.469  0.5668 -0.8777  0.6664
  198MOL   H18947863   6.517   1.946   5.665 -2.2164 -0.6304  0.0684
  198MOL   H19047864   6.532   2.070   5.547  1.2326 -0.0203  0.4480
  198MOL   H19147865   6.655   1.943   5.568  0.1917 -1.1364 -2.5573
  198MOL   H19247866   6.593   1.916   5.267 -0.5549  0.5000 -0.9734
  198MOL   H19347867   6.480   2.043   5.313  0.0475  0.3002  1.5321
  198MOL   O19447868   6.287   1.938   5.196 -0.4397  0.1446 -0.2339
  198MOL   C19547869   6.194   1.945   5.088 -0.3869  0.0188 -0.1866
  198MOL   C19647870   6.095   1.830   5.078 -0.3392 -0.5601  0.5245
  198MOL   C19747871   6.128   2.089   5.096  0.0278  0.4120  0.2808
  198MOL   C19847872   6.138   2.160   4.959  0.4678  0.7406 -0.2851
  198MOL   O19947873   6.189   2.273   4.941  0.4965 -0.1516  0.0362
  198MOL   H20047874   6.241   1.924   4.992 -1.4807 -4.4484  0.1536
  198MOL   H20147875   6.061   1.803   5.178 -1.0113  2.3180  1.1207
  198MOL   H20247876   6.145   1.739   5.044  2.7880  0.0715  3.2766
  198MOL   H20347877   6.005   1.842   5.017 -0.8469 -1.4961  1.0765
  198MOL   H20447878   6.187   2.155   5.160 -0.4769  4.0934 -2.8545
  198MOL   H20547879   6.032   2.090   5.147  0.5110  0.1102  1.2063
  198MOL   O20647880   6.098   2.084   4.855  0.8489  0.0062 -0.4034
  198MOL   C20747881   6.105   2.126   4.721 -0.1862 -0.7111  0.2445
  198MOL   C20847882   6.206   2.031   4.647  0.3407  0.3639 -0.4292
  198MOL   C20947883   5.969   2.092   4.649  0.1522  0.1835  0.3832
  198MOL   C21047884   5.863   2.196   4.673  0.4987 -0.4076 -0.3782
  198MOL   O21147885   5.885   2.292   4.746 -0.1272  0.2558 -0.0726
  198MOL   H21247886   6.123   2.233   4.720 -0.1153 -0.6936  2.3835
  198MOL   H21347887   6.180   1.929   4.673 -2.2905  1.3185  0.8995
  198MOL   H21447888   6.308   2.059   4.673 -0.3137  0.4638  2.1340
  198MOL   H21547889   6.211   2.048   4.539  0.3700 -2.4192 -0.8860
  198MOL   H21647890   5.924   1.996   4.677  2.2453 -0.8705  0.2546
  198MOL   H21747891   5.989   2.097   4.542 -3.3257  0.9368 -0.2971
  198MOL   O21847892   5.747   2.180   4.603 -0.4850  0.8265  0.0666
  198MOL   C21947893   5.642   2.283   4.591  0.1552  0.0555  0.4497
  198MOL   C22047894   5.615   2.301   4.445  0.0130  0.3746  0.4331
  198MOL   C22147895   5.519   2.239   4.669  0.1963  0.4310 -0.6294
  198MOL   C22247896   5.543   2.258   4.821  0.2498  0.1410  0.1994
  198MOL   O22347897   5.551   2.370   4.867 -0.2601  0.2535  0.3854
  198MOL   H22447898   5.682   2.375   4.634  3.4106 -1.6212  1.2071
  198MOL   H22547899   5.592   2.222   4.374  1.9035  0.6831 -0.5592
  198MOL   H22647900   5.707   2.348   4.410  0.3627  0.1037  0.9742
  198MOL   H22747901   5.535   2.374   4.431 -0.7705 -0.7702 -1.1575
  198MOL   H22847902   5.498   2.133   4.655 -2.8133  0.6738  1.5985
  198MOL   H22947903   5.426   2.286   4.639  0.7206  0.6985 -1.8723
  198MOL   O23047904   5.531   2.137   4.889  0.4959  0.5773  0.5175
  198MOL   C23147905   5.545   2.134   5.034 -0.3606  0.1439  0.0718
  198MOL   C23247906   5.416   2.096   5.106 -0.1510  0.2085  0.4038
  198MOL   C23347907   5.673   2.053   5.080 -0.5805 -0.2773  0.8774
  198MOL   C23447908   5.659   1.897   5.089 -0.3992 -0.2437  0.8074
  198MOL   O23547909   5.563   1.835   5.138 -0.3711 -0.2037 -0.8878
  198MOL   H23647910   5.564   2.233   5.076  2.1344 -0.5215  0.5846
  198MOL   H23747911   5.330   2.160   5.090  0.0416  0.6500  1.1121
  198MOL   H23847912   5.434   2.082   5.213  0.6004  0.2986  0.2961
  198MOL   H23947913   5.392   1.997   5.068 -0.8454  0.0083  1.3519
  198MOL   H24047914   5.707   2.091   5.176 -2.4560  3.5192  0.1249
  198MOL   H24147915   5.751   2.071   5.007 -1.2954  0.0190  0.1692
  198MOL   H24247916   5.730   1.839   5.031 -1.4124 -0.0350 -0.6785
  199MOL     O147917   0.206   4.074   7.433 -0.1357 -0.0852  0.6698
  199MOL     C247918   0.204   4.209   7.395  0.4075 -0.0092 -0.2995
  199MOL     C347919   0.307   4.234   7.284 -0.0715 -0.5855  1.0458
  199MOL     C447920   0.068   4.242   7.333 -0.1159  0.2220 -0.0417
  199MOL     C547921   7.934   4.244   7.429  0.5852  0.6791 -0.2521
  199MOL     O647922   7.937   4.272   7.545 -0.2470 -0.1496 -0.2848
  199MOL     H747923   0.231   4.277   7.476 -0.9335 -1.1234  1.1018
  199MOL     H847924   0.297   4.169   7.198  0.4406 -1.6701  1.8011
  199MOL     H947925   0.411   4.220   7.314  0.6275  0.4192 -0.8328
  199MOL    H1047926   0.306   4.338   7.249  2.4646 -1.4240 -1.7457
  199MOL    H1147927   0.042   4.170   7.255 -2.9741  1.4134 -0.2227
  199MOL    H1247928   0.068   4.344   7.296 -1.6115 -0.3577 -1.7096
  199MOL    H1347929   0.258   4.067   7.512 -0.8604  1.7586  1.3332
  199MOL    O1447930   7.817   4.217   7.365  0.1478  0.1467  0.6615
  199MOL    C1547931   7.687   4.202   7.429  0.2817 -0.1561 -0.4671
  199MOL    C1647932   7.612   4.333   7.430  0.1832  1.0686  0.3236
  199MOL    C1747933   7.608   4.099   7.342  0.4403 -0.6976 -0.5323
  199MOL    C1847934   7.675   3.959   7.340 -0.3483 -0.7814 -0.0770
  199MOL    O1947935   7.707   3.897   7.238 -0.0212  0.7482  0.3278
  199MOL    H2047936   7.701   4.165   7.530 -1.4947 -0.9031 -0.4873
  199MOL    H2147937   7.641   4.375   7.526 -1.1716 -0.5154  1.4678
  199MOL    H2247938   7.504   4.323   7.434  0.2536  0.5181  0.9186
  199MOL    H2347939   7.632   4.412   7.358  1.2170 -1.5802 -2.4360
  199MOL    H2447940   7.588   4.142   7.244  1.2755  0.1596 -0.3301
  199MOL    H2547941   7.520   4.067   7.398 -1.2753  1.1155 -2.1222
  199MOL    O2647942   7.693   3.927   7.463 -0.6001  0.5868 -0.0865
  199MOL    C2747943   7.763   3.810   7.499  0.2141  0.6679 -0.1919
  199MOL    C2847944   7.915   3.839   7.510 -0.5226 -0.6030 -0.8134
  199MOL    C2947945   7.700   3.768   7.641 -0.7427 -0.2071  1.0327
  199MOL    C3047946   7.753   3.633   7.680  0.0615 -0.6112 -0.8765
  199MOL    O3147947   7.828   3.609   7.780  0.0274  0.4133 -0.1597
  199MOL    H3247948   7.736   3.734   7.426  0.9024 -0.5540  0.8112
  199MOL    H3347949   7.926   3.902   7.598  0.4644 -0.3748 -1.0893
  199MOL    H3447950   7.959   3.885   7.421 -0.6930  0.9345 -0.1182
  199MOL    H3547951   7.968   3.745   7.527 -0.1094 -0.0241  1.2190
  199MOL    H3647952   7.592   3.775   7.628 -0.8685  0.7810  2.5473
  199MOL    H3747953   7.716   3.839   7.722  0.1330 -1.9407  2.3992
  199MOL    O3847954   7.712   3.545   7.588  0.6470  0.2523  0.6738
  199MOL    C3947955   7.749   3.405   7.603 -0.0602 -0.0411 -0.3192
  199MOL    C4047956   7.654   3.320   7.525 -0.9026 -0.4103 -0.0339
  199MOL    C4147957   7.893   3.370   7.555 -0.1110 -1.0566  0.1893
  199MOL    C4247958   7.920   3.415   7.403  0.0984 -0.1943  1.2131
  199MOL    O4347959   7.902   3.528   7.360  0.2867  0.1247 -0.4792
  199MOL    H4447960   7.736   3.376   7.707  2.3139  0.5868  0.1710
  199MOL    H4547961   7.656   3.355   7.422 -2.4390  0.4975  0.2429
  199MOL    H4647962   7.552   3.333   7.559 -0.7142  0.9132  0.0426
  199MOL    H4747963   7.688   3.217   7.540 -1.0538 -0.7428 -1.7771
  199MOL    H4847964   7.912   3.263   7.559 -1.2943 -1.3460 -1.2400
  199MOL    H4947965   7.959   3.423   7.625 -0.8801 -0.4693  0.4829
  199MOL    O5047966   7.961   3.314   7.330 -0.0359  1.1245  0.1540
  199MOL    C5147967   7.961   3.309   7.186 -0.2304 -0.0775 -0.4507
  199MOL    C5247968   0.126   3.310   7.136 -0.3079  0.2230 -0.0769
  199MOL    C5347969   7.873   3.192   7.149  0.3354  0.5706  0.5045
  199MOL    C5447970   7.722   3.229   7.141  0.8106  0.1876 -0.3188
  199MOL    O5547971   7.680   3.339   7.170  0.3692 -0.1397  0.0817
  199MOL    H5647972   7.915   3.402   7.154 -1.3369  0.0908  1.5799
  199MOL    H5747973   0.174   3.230   7.193  0.6999 -1.0393 -2.6059
  199MOL    H5847974   0.178   3.399   7.171  2.1881 -1.0464 -0.3867
  199MOL    H5947975   0.144   3.296   7.029 -0.8343 -0.3598 -0.0949
  199MOL    H6047976   7.883   3.108   7.218  0.7024 -1.7389 -2.2652
  199MOL    H6147977   7.893   3.174   7.043 -2.4261  0.5353 -0.0326
  199MOL    O6247978   7.637   3.133   7.099  0.2588  0.0437  0.1104
  199MOL    C6347979   7.497   3.150   7.082  0.4759  0.1747 -0.8558
  199MOL    C6447980   7.455   3.058   6.970 -0.4425  0.2280 -0.4313
  199MOL    C6547981   7.419   3.126   7.219  0.2331  0.7442  0.2591
  199MOL    C6647982   7.267   3.140   7.207 -0.3461  0.5391 -0.0115
  199MOL    O6747983   7.191   3.070   7.282 -0.7633  0.2192 -0.3334
  199MOL    H6847984   7.471   3.250   7.046  0.5691 -0.3163 -2.2928
  199MOL    H6947985   7.505   3.083   6.876  2.1170  2.2110  1.3781
  199MOL    H7047986   7.350   3.071   6.947 -1.0700 -1.7839  1.1689
  199MOL    H7147987   7.477   2.952   6.984 -0.4100  0.3468  0.3899
  199MOL    H7247988   7.472   3.195   7.286  0.0532  1.0347  0.1007
  199MOL    H7347989   7.444   3.029   7.262  1.0471  1.1494  0.7205
  199MOL    O7447990   7.226   3.225   7.115 -0.6365  0.7376  0.0862
  199MOL    C7547991   7.090   3.260   7.099 -0.3289  0.2873 -0.3206
  199MOL    C7647992   7.092   3.417   7.070  0.5518  0.5410 -0.0783
  199MOL    C7747993   7.028   3.180   6.988 -0.3865 -0.3675  0.7064
  199MOL    C7847994   6.881   3.211   6.971  0.4578  0.3849 -0.2638
  199MOL    O7947995   6.808   3.217   7.074  0.1263 -0.5591  0.1178
  199MOL    H8047996   7.035   3.250   7.193 -1.0881 -0.1392 -0.8065
  199MOL    H8147997   6.991   3.454   7.087  0.9244  1.5455  0.0157
  199MOL    H8247998   7.108   3.438   6.964 -0.4683  1.2232 -0.1066
  199MOL    H8347999   7.164   3.474   7.129  0.5758  0.5272 -0.0945
  199MOL    H8448000   7.032   3.073   7.009  0.6881 -0.4160  0.3116
  199MOL    H8548001   7.083   3.202   6.896 -1.3533 -0.3516  0.1272
  199MOL    O8648002   6.847   3.213   6.844 -0.3008 -0.4890  0.2891
  199MOL    C8748003   6.704   3.234   6.818  0.9894 -1.0298  0.2141
  199MOL    C8848004   6.708   3.278   6.671 -0.3450  1.0596  0.1697
  199MOL    C8948005   6.616   3.114   6.847  0.1710 -0.4351  0.2881
  199MOL    C9048006   6.620   2.991   6.758 -0.4626 -0.1502  0.2249
  199MOL    O9148007   6.518   2.932   6.720 -0.7323 -0.3281  0.4062
  199MOL    H9248008   6.671   3.315   6.883  2.5973  0.8502 -1.2290
  199MOL    H9348009   6.717   3.386   6.659 -0.5934  1.4428  2.9998
  199MOL    H9448010   6.611   3.252   6.630  0.8448 -1.6202 -1.0853
  199MOL    H9548011   6.779   3.219   6.614 -0.8809 -0.4442  1.0329
  199MOL    H9648012   6.517   3.157   6.832  0.2044 -0.8253 -1.1921
  199MOL    H9748013   6.624   3.090   6.953  0.8654 -1.7081 -0.0433
  199MOL    O9848014   6.748   2.946   6.729  0.3848  0.2794 -1.2948
  199MOL    C9948015   6.768   2.836   6.649 -0.0631 -0.2747  1.4611
  199MOL   C10048016   6.892   2.864   6.560 -0.0621 -0.1652 -0.3320
  199MOL   C10148017   6.790   2.706   6.737  0.2999 -0.0271  0.0071
  199MOL   C10248018   6.937   2.672   6.784  0.1552  0.2306 -0.6923
  199MOL   O10348019   6.983   2.566   6.749 -0.4822  0.5384  0.2674
  199MOL   H10448020   6.683   2.817   6.583  0.3501  2.5287  0.0684
  199MOL   H10548021   6.929   2.772   6.514 -3.3637 -1.4678 -0.4985
  199MOL   H10648022   6.959   2.921   6.624 -1.6418  1.9035 -0.4814
  199MOL   H10748023   6.867   2.927   6.474 -0.9411  2.6093  1.8746
  199MOL   H10848024   6.750   2.621   6.682  0.5192 -1.0321  1.3676
  199MOL   H10948025   6.720   2.722   6.820 -0.0501 -1.5955  0.0182
  199MOL   O11048026   6.991   2.755   6.870  0.7042 -0.3714  0.1489
  199MOL   C11148027   7.119   2.727   6.924 -0.4766  0.0001 -0.3636
  199MOL   C11248028   7.230   2.760   6.832  0.5335  0.7178  0.3140
  199MOL   C11348029   7.136   2.808   7.052 -0.1287  0.6022 -0.3614
  199MOL   C11448030   7.023   2.782   7.151 -0.3210 -0.4836 -0.3470
  199MOL   O11548031   7.017   2.675   7.212 -0.2241 -0.1833  0.1242
  199MOL   H11648032   7.125   2.621   6.951 -1.8556 -0.4175 -1.6172
  199MOL   H11748033   7.231   2.859   6.785 -0.0882  0.5517 -0.0495
  199MOL   H11848034   7.222   2.692   6.748  1.3106  1.3367 -0.2775
  199MOL   H11948035   7.324   2.744   6.885  1.1257 -2.4519 -1.5317
  199MOL   H12048036   7.136   2.915   7.028 -1.5942  0.8461  0.6062
  199MOL   H12148037   7.237   2.789   7.086 -0.8645 -1.7460  0.6126
  199MOL   O12248038   6.934   2.890   7.157 -0.1097 -0.2910 -0.4675
  199MOL   C12348039   6.839   2.898   7.257 -0.2210  0.5001 -0.2227
  199MOL   C12448040   6.873   3.014   7.346 -0.5267 -0.0392 -0.1518
  199MOL   C12548041   6.690   2.904   7.213  0.2202  0.0314 -0.3455
  199MOL   C12648042   6.654   2.774   7.141  0.0725 -0.1590  0.2252
  199MOL   O12748043   6.607   2.771   7.027  0.0263  0.1536  0.2216
  199MOL   H12848044   6.848   2.812   7.324 -1.7776  1.3668  1.1313
  199MOL   H12948045   6.954   2.979   7.411 -3.5272 -1.3611  3.0352
  199MOL   H13048046   6.787   3.052   7.402  0.3692  0.9678  0.5594
  199MOL   H13148047   6.907   3.104   7.295  0.7898  0.7177  1.9901
  199MOL   H13248048   6.674   2.975   7.132 -1.8610  0.5066  0.4517
  199MOL   H13348049   6.631   2.938   7.298  2.3254  0.3899  1.0283
  199MOL   O13448050   6.686   2.666   7.209 -0.6446  0.7083 -0.1124
  199MOL   C13548051   6.648   2.532   7.168 -1.0179  0.1754 -0.0079
  199MOL   C13648052   6.748   2.480   7.070  0.2779  0.6571 -0.0693
  199MOL   C13748053   6.641   2.447   7.297 -0.4492  0.0708 -0.4881
  199MOL   C13848054   6.521   2.476   7.379  0.1323  0.6372 -0.1624
  199MOL   O13948055   6.411   2.446   7.341  0.0311 -0.5629  0.2219
  199MOL   H14048056   6.552   2.532   7.116 -0.9044  0.7098 -0.2181
  199MOL   H14148057   6.846   2.472   7.116  0.7275 -1.1113 -1.2858
  199MOL   H14248058   6.748   2.548   6.985 -1.9298 -2.2004 -2.4727
  199MOL   H14348059   6.726   2.381   7.031  0.4825  0.0785  1.2468
  199MOL   H14448060   6.727   2.486   7.352 -0.8310 -2.5079  2.0367
  199MOL   H14548061   6.664   2.341   7.298 -0.7687  0.0006 -0.5732
  199MOL   O14648062   6.553   2.540   7.487 -0.1778  0.2257  0.0813
  199MOL   C14748063   6.454   2.564   7.582 -0.2440 -0.1058 -0.2487
  199MOL   C14848064   6.436   2.448   7.676 -0.8579  0.0264 -0.2760
  199MOL   C14948065   6.488   2.697   7.650 -0.2975  0.2660 -0.5295
  199MOL   C15048066   6.616   2.717   7.720 -0.3447  0.0660 -0.0064
  199MOL   O15148067   6.659   2.639   7.804 -0.1773  0.2473 -0.7274
  199MOL   H15248068   6.360   2.579   7.528 -1.2275 -3.1340  0.5026
  199MOL   H15348069   6.512   2.452   7.753 -0.2225  0.7474 -0.9335
  199MOL   H15448070   6.444   2.356   7.619 -0.4815 -0.0861 -0.0374
  199MOL   H15548071   6.334   2.459   7.713 -1.4829  0.0990 -1.9859
  199MOL   H15648072   6.403   2.731   7.708  1.1269 -1.6387  2.8162
  199MOL   H15748073   6.478   2.766   7.566 -0.3148  1.3497  0.3430
  199MOL   O15848074   6.669   2.838   7.685 -0.5424  0.0362 -0.2088
  199MOL   C15948075   6.788   2.884   7.742  1.0676 -0.0905 -0.3091
  199MOL   C16048076   6.910   2.807   7.695  0.2845  0.3337 -0.3503
  199MOL   C16148077   6.805   3.036   7.715 -0.5606 -0.1087 -0.6887
  199MOL   C16248078   6.932   3.096   7.771  0.8366 -0.2587 -0.6269
  199MOL   O16348079   7.046   3.073   7.722 -0.2538 -0.9266  0.1482
  199MOL   H16448080   6.775   2.868   7.849  2.8946 -1.1924 -0.2366
  199MOL   H16548081   6.934   2.832   7.592  1.7023 -2.2149 -0.6649
  199MOL   H16648082   6.889   2.701   7.686 -1.5064  0.7110 -0.8062
  199MOL   H16748083   7.004   2.820   7.750  0.1568  0.7291 -0.2238
  199MOL   H16848084   6.710   3.083   7.739 -0.9751 -0.5376 -1.4411
  199MOL   H16948085   6.802   3.060   7.608  0.4514 -0.9049 -0.9096
  199MOL   O17048086   6.908   3.180   7.876 -0.1977 -0.0262  0.0498
  199MOL   C17148087   7.024   3.239   7.949  0.2986  0.3500 -0.3485
  199MOL   C17248088   7.037   3.385   7.910 -0.4606 -0.0542  0.5759
  199MOL   C17348089   6.979   3.237   0.117 -0.1642  0.0651 -0.5023
  199MOL   C17448090   6.986   3.098   0.174  0.4638 -0.3232 -0.2455
  199MOL   O17548091   6.896   3.058   0.243 -0.2793  0.4240  0.2080
  199MOL   H17648092   7.117   3.186   7.931 -0.5904 -1.0214 -0.9846
  199MOL   H17748093   7.078   3.393   7.809 -2.1171 -1.5710 -0.2441
  199MOL   H17848094   7.084   3.450   0.003  1.1595 -2.0194  1.3322
  199MOL   H17948095   6.937   3.427   7.901 -0.1958  0.5496  0.4166
  199MOL   H18048096   6.885   3.290   0.131  1.0155  1.5412  1.9689
  199MOL   H18148097   7.055   3.296   0.168  0.5529 -1.4462  0.2168
  199MOL   O18248098   7.103   3.025   0.144  0.4020 -0.4310  0.3289
  199MOL   C18348099   7.116   2.891   0.189  0.3548  0.2865 -0.5278
  199MOL   C18448100   7.088   2.790   0.072 -0.9584  0.3384 -0.8695
  199MOL   C18548101   7.256   2.888   0.247 -0.4255 -0.2675  0.1546
  199MOL   C18648102   7.313   2.763   0.319  0.1146 -0.1229 -0.4907
  199MOL   O18748103   7.346   2.757   0.436  0.0672  0.2972 -0.6229
  199MOL   H18848104   7.056   2.873   0.278  1.6605 -0.5977  0.1946
  199MOL   H18948105   7.100   2.682   0.082  2.3165  0.6778 -0.7525
  199MOL   H19048106   7.158   2.812   7.971 -0.2418 -1.4862 -0.7782
  199MOL   H19148107   6.986   2.799   0.035 -1.1896 -0.1592 -0.3477
  199MOL   H19248108   7.259   2.972   0.317  2.1217 -0.9389  0.8968
  199MOL   H19348109   7.330   2.907   0.170  0.0955  0.8487  0.9139
  199MOL   O19448110   7.333   2.663   0.236 -0.5839 -0.0790 -0.3241
  199MOL   C19548111   7.417   2.549   0.269 -0.7346 -0.3426 -0.1021
  199MOL   C19648112   7.316   2.446   0.321 -0.0203  0.6106  0.4056
  199MOL   C19748113   7.502   2.500   0.146  0.0246  0.2120 -0.1317
  199MOL   C19848114   7.616   2.593   0.113 -0.1129 -0.1669 -0.0155
  199MOL   O19948115   7.617   2.663   0.012 -0.2550 -0.7421  0.1572
  199MOL   H20048116   7.489   2.585   0.343 -0.3362  2.0115 -1.5944
  199MOL   H20148117   7.263   2.475   0.412  0.2129 -0.0328  0.7473
  199MOL   H20248118   7.366   2.356   0.354  2.4435  1.5216 -0.7339
  199MOL   H20348119   7.238   2.421   0.249  0.2577 -0.4183  0.4632
  199MOL   H20448120   7.434   2.495   0.061  1.2288  3.2297 -1.3097
  199MOL   H20548121   7.541   2.401   0.172 -0.2498 -0.1533 -1.0700
  199MOL   O20648122   7.703   2.580   0.209  0.1791  0.2948  0.6045
  199MOL   C20748123   7.820   2.659   0.213  0.4312 -0.0826 -0.3933
  199MOL   C20848124   7.787   2.787   0.290 -0.1041 -0.3389 -0.0201
  199MOL   C20948125   7.941   2.574   0.260  0.6845  0.0585 -0.2891
  199MOL   C21048126   7.971   2.539   0.407  0.0137 -0.3157  0.2029
  199MOL   O21148127   7.962   2.417   0.440  0.3786  0.1436 -0.1727
  199MOL   H21248128   7.840   2.694   0.111 -0.1066 -0.6506 -0.6995
  199MOL   H21348129   7.763   2.768   0.395 -0.0820 -0.6522 -0.0703
  199MOL   H21448130   7.698   2.827   0.241 -0.0892 -0.0627  0.1790
  199MOL   H21548131   7.875   2.848   0.275 -0.1047 -0.3962 -0.2521
  199MOL   H21648132   0.049   2.632   0.233 -0.5721  3.2330  2.0678
  199MOL   H21748133   7.946   2.483   0.201  1.5705  0.2529 -0.5145
  199MOL   O21848134   0.029   2.640   0.485  0.2569 -0.1034 -0.3532
  199MOL   C21948135   0.060   2.616   0.619 -0.0797 -0.9584 -0.8433
  199MOL   C22048136   0.171   2.722   0.640 -1.0003  0.1670  0.3651
  199MOL   C22148137   7.923   2.631   0.714  0.2802 -0.3436  0.4832
  199MOL   C22248138   7.850   2.502   0.737 -0.9535  0.0643  0.2396
  199MOL   O22348139   7.900   2.415   0.806  0.1809  0.1099  0.4011
  199MOL   H22448140   0.105   2.517   0.623 -0.0694 -0.8933  1.1481
  199MOL   H22548141   0.137   2.819   0.676  1.0348  1.5207 -1.1976
  199MOL   H22648142   0.225   2.745   0.548 -1.0984 -2.2567 -0.3130
  199MOL   H22748143   0.248   2.693   0.712 -2.4343 -1.4404  1.2684
  199MOL   H22848144   7.854   2.713   0.697 -0.1169 -0.8498 -0.3514
  199MOL   H22948145   7.977   2.641   0.808  0.9001 -1.1358  0.2147
  199MOL   O23048146   7.728   2.491   0.672  0.4814 -0.4902 -0.1481
  199MOL   C23148147   7.641   2.376   0.712  0.2864 -0.0047 -0.0481
  199MOL   C23248148   7.567   2.411   0.843  0.5654 -0.6701  0.3014
  199MOL   C23348149   7.541   2.346   0.603 -0.3931  0.2627 -0.1584
  199MOL   C23448150   7.605   2.271   0.479  0.2148 -0.8610 -0.1810
  199MOL   O23548151   7.550   2.188   0.408 -0.2708  0.1624  0.3255
  199MOL   H23648152   7.697   2.288   0.744  0.1464 -0.6135 -1.4132
  199MOL   H23748153   7.478   2.472   0.829  0.1773 -1.4077 -0.4745
  199MOL   H23848154   7.635   2.462   0.912  1.5584 -2.9908  1.0809
  199MOL   H23948155   7.531   2.325   0.898  2.1944 -2.3426 -1.1769
  199MOL   H24048156   7.502   2.444   0.573 -0.8600  0.3528  0.7346
  199MOL   H24148157   7.467   2.271   0.631 -1.0770  0.9083 -0.1930
  199MOL   H24248158   7.704   2.307   0.449  0.2182 -0.2360  0.5613
  200MOL     O148159   0.965   2.492   5.883  0.1498 -0.1368  0.1783
  200MOL     C248160   0.997   2.367   5.816  0.3642  0.0195 -0.7607
  200MOL     C348161   1.076   2.264   5.904 -0.1446  0.0046 -0.1624
  200MOL     C448162   0.865   2.310   5.766 -0.0064  0.2815 -0.4386
  200MOL     C548163   0.883   2.173   5.693 -0.2335 -0.3219 -0.0661
  200MOL     O648164   0.889   2.165   5.575  0.1823 -0.1567  0.2228
  200MOL     H748165   1.052   2.390   5.725 -0.2564  0.1839 -1.1017
  200MOL     H848166   1.019   2.209   5.979  1.2380  0.5415  1.3102
  200MOL     H948167   1.160   2.307   5.959 -0.4949  0.3771  0.0840
  200MOL    H1048168   1.119   2.188   5.839 -1.9739  0.5832 -2.0983
  200MOL    H1148169   0.813   2.373   5.695  0.3133  0.3005 -0.6580
  200MOL    H1248170   0.792   2.291   5.845 -0.4354  0.2962 -0.8313
  200MOL    H1348171   1.022   2.560   5.851 -0.3520 -0.0620 -0.6026
  200MOL    O1448172   0.874   2.069   5.784 -0.2375  0.5193  0.4973
  200MOL    C1548173   0.869   1.930   5.735  0.4678 -0.3723 -0.2097
  200MOL    C1648174   0.993   1.857   5.796  0.2551 -0.4215  0.1163
  200MOL    C1748175   0.735   1.879   5.785 -0.0460  0.1880 -0.2992
  200MOL    C1848176   0.702   1.742   5.737 -0.4601 -0.2469  0.0265
  200MOL    O1948177   0.656   1.665   5.822 -0.3817 -0.0367  0.4941
  200MOL    H2048178   0.895   1.920   5.630 -0.2731 -1.2989 -0.3153
  200MOL    H2148179   0.984   1.839   5.903  2.9522 -2.4547  0.0339
  200MOL    H2248180   1.079   1.924   5.790 -1.2338  1.6821  1.4793
  200MOL    H2348181   1.014   1.765   5.741  1.7789  0.4798 -0.8527
  200MOL    H2448182   0.647   1.937   5.756  1.1477  1.6162 -1.1357
  200MOL    H2548183   0.737   1.889   5.893 -0.8931  2.2569 -0.4486
  200MOL    O2648184   0.736   1.715   5.609 -0.0123  0.5206 -0.0336
  200MOL    C2748185   0.701   1.592   5.549  0.0025  0.1127  0.0007
  200MOL    C2848186   0.590   1.618   5.452  0.1483 -0.1041 -0.9217
  200MOL    C2948187   0.818   1.524   5.489  0.0336 -0.6257  0.3777
  200MOL    C3048188   0.933   1.489   5.589  0.1000  0.2808 -0.0206
  200MOL    O3148189   1.046   1.532   5.562  0.5847 -0.4338 -0.0178
  200MOL    H3248190   0.671   1.522   5.626  0.5777  1.9246  1.9380
  200MOL    H3348191   0.585   1.542   5.374 -1.7068  0.4438 -1.3587
  200MOL    H3448192   0.619   1.711   5.403 -1.8279  1.9622  1.6651
  200MOL    H3548193   0.497   1.644   5.502  1.2744  1.1128  0.5870
  200MOL    H3648194   0.865   1.572   5.403 -2.0813  0.0148 -0.4645
  200MOL    H3748195   0.779   1.434   5.442 -0.1693 -1.9637  3.0057
  200MOL    O3848196   0.894   1.411   5.697 -0.0353 -0.4694  0.5131
  200MOL    C3948197   0.978   1.387   5.812 -0.2809 -0.6367 -0.8164
  200MOL    C4048198   0.962   1.496   5.917 -0.1363 -0.4160  0.2368
  200MOL    C4148199   0.960   1.240   5.875 -0.6345 -0.9504  0.2314
  200MOL    C4248200   0.822   1.206   5.923  0.6005  0.0229 -0.8122
  200MOL    O4348201   0.806   1.104   5.990 -0.0601  0.0280 -0.0867
  200MOL    H4448202   1.083   1.405   5.786 -0.7327  2.0402 -0.9807
  200MOL    H4548203   1.001   1.470   6.016  1.7311 -2.5625 -1.0247
  200MOL    H4648204   0.856   1.518   5.930  0.2780  1.5896  0.4264
  200MOL    H4748205   1.005   1.590   5.883 -3.1578  1.0638  0.3587
  200MOL    H4848206   1.016   1.227   5.968  1.1259  1.2318 -0.4637
  200MOL    H4948207   0.992   1.168   5.799  1.5099 -0.2659  0.4457
  200MOL    O5048208   0.718   1.290   5.896  0.6214  0.3062  0.1039
  200MOL    C5148209   0.585   1.239   5.895  0.1192  0.2120 -0.6914
  200MOL    C5248210   0.516   1.314   6.017 -0.2326  0.8244  0.2982
  200MOL    C5348211   0.521   1.270   5.753  0.0481  0.3347  0.2379
  200MOL    C5448212   0.580   1.178   5.648 -0.1488 -0.3230 -0.8356
  200MOL    O5548213   0.635   1.222   5.551 -0.7119  0.9676  0.6471
  200MOL    H5648214   0.578   1.131   5.906  1.8176  0.1117 -0.4915
  200MOL    H5748215   0.414   1.276   6.026 -0.0737  0.5039  0.7583
  200MOL    H5848216   0.507   1.422   6.003 -1.8881  0.8474  1.3455
  200MOL    H5948217   0.571   1.300   6.109  0.0738  0.1321  0.0089
  200MOL    H6048218   0.525   1.374   5.724 -0.8667 -0.1867 -1.8475
  200MOL    H6148219   0.417   1.239   5.767 -0.4071  0.8666 -1.8186
  200MOL    O6248220   0.564   1.044   5.685  0.5248 -0.1591 -0.3015
  200MOL    C6348221   0.622   0.946   5.606  0.0544  0.3337  0.5812
  200MOL    C6448222   0.697   0.859   5.704 -0.3732  0.0311  0.5139
  200MOL    C6548223   0.511   0.864   5.539  0.2796 -0.6602  0.4683
  200MOL    C6648224   0.457   0.926   5.410 -0.8494  0.6820  0.3548
  200MOL    O6748225   0.338   0.952   5.398  0.4056 -0.2120 -0.4713
  200MOL    H6848226   0.693   0.978   5.529 -0.2110  1.3144  0.7396
  200MOL    H6948227   0.771   0.912   5.764 -1.5045  0.7932  1.2436
  200MOL    H7048228   0.749   0.775   5.657 -1.2927  0.0343 -0.5278
  200MOL    H7148229   0.640   0.805   5.779 -1.4509  0.9294  0.3552
  200MOL    H7248230   0.436   0.856   5.617 -0.9504 -1.1403 -0.7452
  200MOL    H7348231   0.551   0.767   5.511  2.8004 -0.4836  3.2470
  200MOL    O7448232   0.550   0.949   5.314  0.1570  0.5220 -0.6491
  200MOL    C7548233   0.511   1.028   5.200  0.0491 -0.3561 -0.4872
  200MOL    C7648234   0.602   1.150   5.182  0.9149 -0.0561  0.0043
  200MOL    C7748235   0.527   0.930   5.081  0.0050  0.0413 -0.4635
  200MOL    C7848236   0.466   0.990   4.953 -0.9092 -0.0964 -0.7019
  200MOL    O7948237   0.344   1.007   4.943  0.0617  0.7212  0.8968
  200MOL    H8048238   0.407   1.062   5.203 -0.0271 -0.6296  0.0462
  200MOL    H8148239   0.704   1.122   5.155  0.9274  0.5373 -0.5568
  200MOL    H8248240   0.594   1.212   5.272  0.0854  2.8056 -1.9821
  200MOL    H8348241   0.576   1.213   5.097  1.5810  1.0514  0.6106
  200MOL    H8448242   0.476   0.836   5.104 -2.9221  1.4822 -0.8917
  200MOL    H8548243   0.633   0.909   5.068 -0.3750 -2.3308  0.0306
  200MOL    O8648244   0.559   1.007   4.849 -0.3388 -0.1648 -0.8684
  200MOL    C8748245   0.529   1.065   4.723 -0.3340 -0.6440 -0.0942
  200MOL    C8848246   0.657   1.138   4.678  0.8918 -0.6729  0.4047
  200MOL    C8948247   0.462   0.969   4.625  0.0468  0.6976 -0.3247
  200MOL    C9048248   0.543   0.855   4.580 -0.2815 -0.5802 -0.1441
  200MOL    O9148249   0.570   0.840   4.457 -0.2113 -0.5705 -0.6512
  200MOL    H9248250   0.458   1.146   4.742  1.1600  0.7145 -0.1853
  200MOL    H9348251   0.668   1.209   4.760 -2.1537 -0.3792  0.6267
  200MOL    H9448252   0.664   1.181   4.578 -0.0458  0.3428  0.7673
  200MOL    H9548253   0.742   1.070   4.681  2.3948  0.9685 -2.4624
  200MOL    H9648254   0.440   1.023   4.533 -2.4401 -1.0492 -0.8271
  200MOL    H9748255   0.367   0.933   4.667 -0.6374  1.8288 -0.8795
  200MOL    O9848256   0.553   0.760   4.685 -0.0330  0.1388 -0.3352
  200MOL    C9948257   0.604   0.631   4.670  0.6065  0.2734 -0.5173
  200MOL   C10048258   0.721   0.617   4.775  0.6673 -0.4346 -0.1698
  200MOL   C10148259   0.493   0.526   4.676 -0.5573 -0.4952 -0.1566
  200MOL   C10248260   0.419   0.505   4.544 -0.4698  0.0928  0.3217
  200MOL   O10348261   0.333   0.583   4.505 -0.3188 -0.0463 -0.5080
  200MOL   H10448262   0.653   0.627   4.572 -0.0796 -1.0680 -0.8204
  200MOL   H10548263   0.792   0.698   4.756  1.0957 -0.5523  0.9070
  200MOL   H10648264   0.771   0.520   4.771  3.6968  0.9960  0.9949
  200MOL   H10748265   0.685   0.624   4.877  1.1040 -1.9226  0.1011
  200MOL   H10848266   0.423   0.537   4.758 -1.2606 -0.0836 -0.8028
  200MOL   H10948267   0.550   0.436   4.700 -0.0593 -0.3486 -0.7814
  200MOL   O11048268   0.469   0.403   4.467 -0.0427  0.0730 -0.1556
  200MOL   C11148269   0.399   0.359   4.353 -0.0042 -0.3656 -0.0771
  200MOL   C11248270   0.517   0.317   4.251 -0.3616 -0.0528  0.0903
  200MOL   C11348271   0.288   0.265   4.385  0.3493  1.0893 -0.5258
  200MOL   C11448272   0.329   0.134   4.440  0.1013 -0.8051 -0.1089
  200MOL   O11548273   0.312   0.034   4.380 -0.2456 -0.1301  0.0258
  200MOL   H11648274   0.350   0.448   4.313  0.1463 -0.7060 -1.0365
  200MOL   H11748275   0.577   0.241   4.303 -0.5855 -1.4751 -1.6884
  200MOL   H11848276   0.590   0.394   4.228 -0.8165  0.1619 -0.6212
  200MOL   H11948277   0.475   0.272   4.161 -1.8196  0.5915  0.4328
  200MOL   H12048278   0.233   0.231   4.297 -2.5918  0.6940  1.3742
  200MOL   H12148279   0.211   0.309   4.449 -0.6687 -1.5766  0.1357
  200MOL   O12248280   0.385   0.134   4.568 -0.6350 -0.0923 -0.0781
  200MOL   C12348281   0.407   0.022   4.648 -0.0875 -0.7128  0.4757
  200MOL   C12448282   0.556   0.003   4.676  0.2782 -0.0736 -0.1793
  200MOL   C12548283   0.322   0.033   4.772 -0.0929  0.6795 -0.4867
  200MOL   C12648284   0.377   0.138   4.872 -0.4123  0.3489 -0.0302
  200MOL   O12748285   0.321   0.251   4.880 -0.4794  0.0567 -0.1456
  200MOL   H12848286   0.379   7.917   4.586  0.7866  0.9156 -2.2716
  200MOL   H12948287   0.579   7.915   4.758  1.7892 -0.0810 -0.5927
  200MOL   H13048288   0.588   0.098   4.719  0.8506 -0.7685  0.9471
  200MOL   H13148289   0.620   0.000   4.588 -1.7029  0.3048 -1.6846
  200MOL   H13248290   0.315   7.913   4.814  0.2295  0.8296 -0.0738
  200MOL   H13348291   0.219   0.060   4.749 -0.2281  0.5788  0.0176
  200MOL   O13448292   0.479   0.096   4.946 -0.4114  0.1734  0.1927
  200MOL   C13548293   0.538   0.180   5.043 -0.2668 -0.3599  0.2552
  200MOL   C13648294   0.624   0.088   5.120  0.0023  0.1119 -0.4787
  200MOL   C13748295   0.605   0.305   4.990  0.1785 -0.6215  1.0408
  200MOL   C13848296   0.694   0.382   5.088 -0.2917 -0.3831  0.3350
  200MOL   O13948297   0.816   0.402   5.068 -0.1756 -0.1824  0.7177
  200MOL   H14048298   0.452   0.218   5.099 -0.1440  2.3686 -1.3011
  200MOL   H14148299   0.641   0.115   5.225  2.2705 -3.0888  0.0528
  200MOL   H14248300   0.713   0.057   5.066  0.2350  1.7461 -1.0496
  200MOL   H14348301   0.570   7.976   5.143  0.7522 -0.2834 -0.2869
  200MOL   H14448302   0.534   0.377   4.951  1.2625  0.4094  0.9534
  200MOL   H14548303   0.673   0.276   4.910 -1.2848  2.2466 -1.2870
  200MOL   O14648304   0.628   0.419   5.197 -0.4050  0.2260  0.9689
  200MOL   C14748305   0.687   0.491   5.299  0.1533 -0.2302  0.3150
  200MOL   C14848306   0.668   0.639   5.276  0.2494  0.2800 -0.1667
  200MOL   C14948307   0.612   0.441   5.420  0.3829 -0.1426 -0.2883
  200MOL   C15048308   0.655   0.480   5.565  0.2672  0.8349  0.4740
  200MOL   O15148309   0.605   0.569   5.631 -0.0750  0.2611 -0.4470
  200MOL   H15248310   0.792   0.462   5.306 -0.3374 -1.9625  0.7391
  200MOL   H15348311   0.730   0.663   5.190  2.0522 -0.2927  0.9605
  200MOL   H15448312   0.689   0.704   5.361  1.0081  1.2720 -1.1038
  200MOL   H15548313   0.563   0.660   5.254  0.6209  1.8158 -0.5066
  200MOL   H15648314   0.614   0.332   5.422  1.1169 -0.1257  0.7088
  200MOL   H15748315   0.505   0.458   5.408  0.1201 -1.3649  0.2602
  200MOL   O15848316   0.760   0.399   5.607 -0.8661  0.5966  0.3262
  200MOL   C15948317   0.826   0.421   5.732 -1.1768 -0.0756  0.5822
  200MOL   C16048318   0.850   0.283   5.791 -0.5113  0.7056 -0.3756
  200MOL   C16148319   0.953   0.512   5.710  0.0564 -0.1024  0.0578
  200MOL   C16248320   1.031   0.556   5.832  0.1540  0.6741 -0.2607
  200MOL   O16348321   1.157   0.560   5.825 -0.0434 -0.2197  1.2687
  200MOL   H16448322   0.758   0.486   5.788 -0.9150  0.6797  0.0447
  200MOL   H16548323   0.931   0.241   5.731 -0.0676 -0.9059  1.2916
  200MOL   H16648324   0.768   0.213   5.772 -0.2352  0.0229  0.8911
  200MOL   H16748325   0.865   0.298   5.897 -1.8346  0.6028 -0.1641
  200MOL   H16848326   0.936   0.605   5.656 -0.2859  0.3678  0.9628
  200MOL   H16948327   1.026   0.456   5.652 -1.4178 -0.9282 -1.0598
  200MOL   O17048328   0.956   0.589   5.942 -0.1893  0.7559 -0.6905
  200MOL   C17148329   1.014   0.633   6.064 -0.4456 -0.3361  0.4685
  200MOL   C17248330   0.931   0.747   6.121  0.4926  0.1304  0.5446
  200MOL   C17348331   1.012   0.511   6.159  0.0376 -0.2229  0.0245
  200MOL   C17448332   1.113   0.509   6.273  0.3206 -0.3771 -0.1337
  200MOL   O17548333   1.226   0.534   6.248  0.5780 -0.1674  0.0895
  200MOL   H17648334   1.113   0.675   6.042  0.1579 -1.7974  0.3424
  200MOL   H17748335   0.914   0.817   6.039 -0.5141  1.0273  1.5036
  200MOL   H17848336   0.983   0.813   6.191  2.0688 -0.2686 -0.2444
  200MOL   H17948337   0.834   0.718   6.163 -1.3918  1.0234 -3.0267
  200MOL   H18048338   1.041   0.421   6.104  4.4055  0.4716  1.0629
  200MOL   H18148339   0.908   0.501   6.192 -0.2484 -4.1139 -1.6656
  200MOL   O18248340   1.062   0.493   6.388  0.2232 -0.6186  0.1315
  200MOL   C18348341   1.132   0.526   6.502  0.5136  0.4840 -0.3091
  200MOL   C18448342   1.051   0.635   6.572 -0.3309 -0.2942  0.1226
  200MOL   C18548343   1.145   0.406   6.592  0.1832  0.0650 -0.3329
  200MOL   C18648344   1.256   0.315   6.562  0.2729 -0.3428  0.3859
  200MOL   O18748345   1.242   0.189   6.550 -0.1585 -0.2954  0.2089
  200MOL   H18848346   1.232   0.564   6.479  1.6469 -0.1996  3.1085
  200MOL   H18948347   0.964   0.589   6.619  0.5427 -0.5466  1.5198
  200MOL   H19048348   1.027   0.717   6.504  3.0233  1.1934  0.6809
  200MOL   H19148349   1.107   0.681   6.653 -2.4110 -0.2783  1.6118
  200MOL   H19248350   1.053   0.347   6.594  0.2347 -0.1338 -2.4314
  200MOL   H19348351   1.165   0.436   6.694 -1.8287 -0.7300  0.3381
  200MOL   O19448352   1.375   0.374   6.560  0.0666 -0.1275  0.2126
  200MOL   C19548353   1.492   0.314   6.509  0.3196  0.2779 -0.4088
  200MOL   C19648354   1.596   0.427   6.470 -0.2194  0.1480 -0.3248
  200MOL   C19748355   1.560   0.201   6.592  0.4867 -0.0086  0.3654
  200MOL   C19848356   1.570   0.220   6.743 -0.1650  0.3653 -0.0418
  200MOL   O19948357   1.526   0.137   6.820 -0.0480  0.1438  0.2619
  200MOL   H20048358   1.456   0.264   6.419  1.0500  1.0450 -1.1398
  200MOL   H20148359   1.687   0.383   6.428 -0.4104 -0.1384 -0.4409
  200MOL   H20248360   1.624   0.484   6.558  0.3276 -0.2568 -0.2321
  200MOL   H20348361   1.560   0.498   6.396 -0.1249  0.7213  0.1783
  200MOL   H20448362   1.656   0.181   6.544  0.5368  1.9597 -0.3802
  200MOL   H20548363   1.494   0.116   6.574 -0.1116  0.3210  0.9522
  200MOL   O20648364   1.638   0.329   6.767 -0.8636 -0.0517  0.3068
  200MOL   C20748365   1.650   0.375   6.901 -0.6275  0.0199 -0.1120
  200MOL   C20848366   1.799   0.352   6.942 -0.0557 -0.0810 -0.0064
  200MOL   C20948367   1.606   0.524   6.904  0.0118  0.1494 -0.2916
  200MOL   C21048368   1.627   0.570   7.050 -0.4329  0.9894  0.8508
  200MOL   O21148369   1.688   0.674   7.077  0.0214  0.2724  0.4512
  200MOL   H21248370   1.580   0.319   6.962 -0.0169 -0.2321  0.3650
  200MOL   H21348371   1.847   0.257   6.918 -0.0464 -0.1694  0.3527
  200MOL   H21448372   1.816   0.365   7.049 -0.2863  3.6929 -0.3721
  200MOL   H21548373   1.861   0.424   6.889 -0.2404 -0.2029 -0.3894
  200MOL   H21648374   1.504   0.538   6.867 -0.2059 -1.6619 -0.4453
  200MOL   H21748375   1.667   0.580   6.834  2.4361 -1.5698  0.3809
  200MOL   O21848376   1.566   0.492   7.142 -0.3067 -0.0951  0.5462
  200MOL   C21948377   1.575   0.514   7.280 -0.0847 -0.4004  0.2439
  200MOL   C22048378   1.450   0.590   7.319  0.6541 -0.1468 -0.4284
  200MOL   C22148379   1.591   0.375   7.356 -0.2622  0.9248 -0.1692
  200MOL   C22248380   1.468   0.284   7.357  0.0941 -0.2372 -0.1726
  200MOL   O22348381   1.464   0.196   7.442 -0.0864 -0.0629 -0.2520
  200MOL   H22448382   1.660   0.578   7.308 -1.4535  0.5167  2.4845
  200MOL   H22548383   1.442   0.606   7.426  0.2948 -0.2498 -0.4393
  200MOL   H22648384   1.355   0.540   7.299 -0.8395  1.3573  2.5556
  200MOL   H22748385   1.453   0.691   7.278 -1.9776  0.5851  1.0185
  200MOL   H22848386   1.620   0.401   7.457  5.3237 -1.1119 -1.0776
  200MOL   H22948387   1.678   0.321   7.320 -1.0216  0.2185 -0.9652
  200MOL   O23048388   1.393   0.287   7.237 -0.7659 -0.2651 -0.6039
  200MOL   C23148389   1.279   0.200   7.218 -0.3878  0.0503 -0.3035
  200MOL   C23248390   1.150   0.268   7.263  0.4369  0.1564 -0.4189
  200MOL   C23348391   1.292   0.152   7.067 -0.5906  0.1980  0.1995
  200MOL   C23448392   1.247   0.252   6.965  0.1300  0.0080  0.0928
  200MOL   O23548393   1.253   0.374   6.968  0.3592 -0.1469  0.6991
  200MOL   H23648394   1.294   0.116   7.286 -0.3700 -0.0175 -0.3910
  200MOL   H23748395   1.158   0.289   7.369 -2.9134 -2.4516  0.4326
  200MOL   H23848396   1.064   0.204   7.242  0.8267 -1.0838  1.6538
  200MOL   H23948397   1.132   0.368   7.224  1.3385  1.0444  1.3779
  200MOL   H24048398   1.226   0.066   7.057 -1.4734  0.8354  0.5175
  200MOL   H24148399   1.397   0.145   7.038 -0.5100  0.6751  0.3826
  200MOL   H24248400   1.216   0.216   6.867  1.0350  2.8349 -1.2751
  201MOL     O148401   2.212   6.043   3.589 -0.1202 -0.4650 -0.1391
  201MOL     C248402   2.188   6.157   3.498 -0.3374 -0.2992 -0.4490
  201MOL     C348403   2.079   6.242   3.557  0.0911 -0.3148 -0.0232
  201MOL     C448404   2.325   6.220   3.481 -0.3015  0.0394 -1.0591
  201MOL     C548405   2.327   6.356   3.416  0.2624 -0.6348 -0.5931
  201MOL     O648406   2.404   6.443   3.460 -0.5061  0.1916 -0.9009
  201MOL     H748407   2.148   6.108   3.409 -3.3160  2.4782 -0.7416
  201MOL     H848408   2.054   6.313   3.478  1.2873  1.1676  0.8787
  201MOL     H948409   2.108   6.293   3.649  0.6129 -1.1441  0.2761
  201MOL    H1048410   1.991   6.179   3.569 -1.4107  1.5689 -0.9387
  201MOL    H1148411   2.385   6.158   3.414  1.4564 -0.4065  0.8627
  201MOL    H1248412   2.386   6.229   3.572  0.9228  1.3636 -1.9825
  201MOL    H1348413   2.135   5.989   3.586 -2.3091  2.5784 -1.5670
  201MOL    O1448414   2.241   6.372   3.311 -0.5947 -0.6735 -0.2092
  201MOL    C1548415   2.248   6.483   3.224 -0.0915 -0.4760  0.1113
  201MOL    C1648416   2.371   6.483   3.143  0.7683  0.7983  0.7224
  201MOL    C1748417   2.120   6.467   3.140 -0.9344  0.7754 -0.1867
  201MOL    C1848418   2.068   6.584   3.059  0.1394  0.6261  0.0151
  201MOL    O1948419   2.093   6.700   3.093 -0.7992 -0.0349 -0.6735
  201MOL    H2048420   2.237   6.573   3.285 -1.4158  0.3294 -1.2767
  201MOL    H2148421   2.456   6.522   3.199  2.3874 -2.0771  0.3926
  201MOL    H2248422   2.365   6.537   3.049 -0.5397 -0.9274 -0.2074
  201MOL    H2348423   2.409   6.383   3.120 -1.7943  0.0591 -0.4015
  201MOL    H2448424   2.043   6.430   3.208 -1.3953  1.4691 -0.3153
  201MOL    H2548425   2.130   6.384   3.072 -0.6850 -1.3000  2.3094
  201MOL    O2648426   1.999   6.552   2.945  0.6280  0.1937 -0.0851
  201MOL    C2748427   1.939   6.649   2.865  0.1157  0.4638 -0.3746
  201MOL    C2848428   1.910   6.588   2.727 -0.2612  0.4602  0.0570
  201MOL    C2948429   1.801   6.699   2.928 -0.6550 -0.2217 -0.2025
  201MOL    C3048430   1.735   6.831   2.880 -0.5620 -0.7787 -0.1777
  201MOL    O3148431   1.775   6.893   2.781  0.8677  0.0818  0.4695
  201MOL    H3248432   2.012   6.730   2.855 -0.0644  0.5376 -1.1082
  201MOL    H3348433   1.852   6.654   2.662 -0.1970 -1.1358 -1.6837
  201MOL    H3448434   1.861   6.492   2.747 -2.0701  1.4041  0.2110
  201MOL    H3548435   2.000   6.575   2.667  0.5314 -0.7577  1.5004
  201MOL    H3648436   1.812   6.724   3.033 -1.2081  0.8999 -0.4027
  201MOL    H3748437   1.722   6.626   2.913 -0.4442 -0.3417 -0.7491
  201MOL    O3848438   1.626   6.862   2.953  0.2861 -0.3481 -0.5013
  201MOL    C3948439   1.547   6.977   2.918  0.1648 -0.0091 -0.1880
  201MOL    C4048440   1.399   6.938   2.929  0.3354  0.4449  0.1904
  201MOL    C4148441   1.602   7.097   2.998 -0.5718 -0.1930 -0.1798
  201MOL    C4248442   1.567   7.233   2.941 -0.3795 -0.0754  0.2002
  201MOL    O4348443   1.652   7.316   2.921 -0.0187 -0.5242  0.1703
  201MOL    H4448444   1.556   6.997   2.811  0.2919 -2.3540 -0.6396
  201MOL    H4548445   1.382   6.853   2.862  0.1120  2.0757 -1.8848
  201MOL    H4648446   1.336   7.018   2.890  0.4300  0.2127 -0.4502
  201MOL    H4748447   1.373   6.914   3.032  1.6067  0.9273  0.6408
  201MOL    H4848448   1.711   7.091   2.993 -0.5558 -0.3356  0.3561
  201MOL    H4948449   1.561   7.079   3.097 -2.4562 -1.0076 -1.0872
  201MOL    O5048450   1.427   7.255   2.922 -0.1744 -0.0290 -0.5960
  201MOL    C5148451   1.369   7.377   2.866  0.2404  0.5924 -0.3748
  201MOL    C5248452   1.248   7.343   2.771 -0.1104 -0.4363 -0.5395
  201MOL    C5348453   1.332   7.471   2.983 -0.0574  0.1176 -0.0687
  201MOL    C5448454   1.219   7.427   3.069 -0.0054  0.6501 -0.1396
  201MOL    O5548455   1.120   7.497   3.061  0.3490 -1.1332  0.5519
  201MOL    H5648456   1.451   7.418   2.807 -0.3443  0.6794 -1.1440
  201MOL    H5748457   1.186   7.269   2.821  0.7330 -1.1756 -0.5874
  201MOL    H5848458   1.279   7.312   2.671  1.4267 -0.2130 -0.1432
  201MOL    H5948459   1.191   7.432   2.742 -0.6544 -0.4988  0.3171
  201MOL    H6048460   1.316   7.571   2.943 -1.9929 -0.4956 -0.8875
  201MOL    H6148461   1.426   7.468   3.038 -0.3164 -0.9718  0.3405
  201MOL    O6248462   1.251   7.321   3.147  0.7970 -0.1998 -0.3300
  201MOL    C6348463   1.162   7.272   3.243  0.0777 -0.1534 -0.4645
  201MOL    C6448464   1.062   7.175   3.190  0.7876 -0.3658 -0.1543
  201MOL    C6548465   1.246   7.206   3.361  0.5235  0.2183  0.3062
  201MOL    C6648466   1.330   7.298   3.443 -0.3543  0.1671 -0.2472
  201MOL    O6748467   1.307   7.323   3.558 -0.0734  0.7176 -0.2088
  201MOL    H6848468   1.116   7.359   3.289  0.9050 -0.1027  0.2928
  201MOL    H6948469   0.987   7.225   3.129  2.7215  1.7284 -0.9008
  201MOL    H7048470   1.011   7.114   3.264  0.2935  0.8689  0.5363
  201MOL    H7148471   1.107   7.110   3.114  1.5730  0.0164 -0.0253
  201MOL    H7248472   1.310   7.123   3.332  0.4629  0.3039 -0.0776
  201MOL    H7348473   1.179   7.159   3.434 -0.4264  0.3512 -0.4625
  201MOL    O7448474   1.440   7.331   3.378  0.0846 -0.2217 -0.6356
  201MOL    C7548475   1.545   7.405   3.441  0.9541  0.5388  0.4284
  201MOL    C7648476   1.649   7.313   3.505 -0.7208  0.3285 -0.0544
  201MOL    C7748477   1.598   7.508   3.336  0.5514 -0.9016 -0.0143
  201MOL    C7848478   1.537   7.644   3.359 -0.4125 -0.0110  0.2522
  201MOL    O7948479   1.604   7.732   3.409  0.1669 -0.0479  0.0132
  201MOL    H8048480   1.508   7.454   3.531  1.5170 -0.7687  1.3804
  201MOL    H8148481   1.619   7.244   3.585  3.7497 -0.2833  1.2142
  201MOL    H8248482   1.725   7.373   3.556 -0.4509 -0.6906  0.7680
  201MOL    H8348483   1.710   7.257   3.435 -0.9645  0.0913 -0.0769
  201MOL    H8448484   1.579   7.477   3.233 -0.5742  0.4955 -0.2463
  201MOL    H8548485   1.707   7.513   3.342  0.6297 -1.3827 -0.9700
  201MOL    O8648486   1.409   7.648   3.318  0.8342 -0.6421 -0.6407
  201MOL    C8748487   1.343   7.769   3.319 -0.3324  0.0831  1.1237
  201MOL    C8848488   1.396   7.860   3.205  0.0765  0.3865  0.1310
  201MOL    C8948489   1.201   7.721   3.295 -0.1489 -0.1142 -0.2871
  201MOL    C9048490   1.091   7.804   3.361 -0.7230 -0.3820  0.0861
  201MOL    O9148491   1.024   7.883   3.297  0.0874  0.3839  0.4020
  201MOL    H9248492   1.347   7.821   3.414  1.2833  1.4476  0.3437
  201MOL    H9348493   1.492   7.905   3.228  0.7858 -0.9215 -0.2880
  201MOL    H9448494   1.322   7.937   3.181  0.3357 -0.0662 -2.2918
  201MOL    H9548495   1.416   7.808   3.111  0.4428  3.7981 -1.7736
  201MOL    H9648496   1.185   7.616   3.319  0.9857 -0.8765 -2.7008
  201MOL    H9748497   1.189   7.737   3.187 -1.9894 -2.0356 -0.3998
  201MOL    O9848498   1.079   7.766   3.488  0.0716 -0.3242 -0.2152
  201MOL    C9948499   0.978   7.819   3.578 -0.8784 -0.5325 -0.0361
  201MOL   C10048500   0.898   7.705   3.632  0.0768 -0.1184  0.0171
  201MOL   C10148501   1.053   7.897   3.683  0.2349 -0.6766 -0.1871
  201MOL   C10248502   1.143   7.818   3.786 -0.1780 -0.2892 -0.5588
  201MOL   O10348503   1.100   7.780   3.893 -0.1449  0.3111  0.1690
  201MOL   H10448504   0.919   7.888   3.520  2.3477  0.6132 -2.1023
  201MOL   H10548505   0.843   7.645   3.558  2.5252 -0.0653 -1.8960
  201MOL   H10648506   0.817   7.741   3.695  1.2801  0.6378  1.1388
  201MOL   H10748507   0.965   7.644   3.692  1.5641  0.9686 -0.5248
  201MOL   H10848508   0.969   7.944   3.736 -0.3441 -1.6649 -0.2121
  201MOL   H10948509   1.110   7.973   3.630 -2.3590  2.5162  1.4085
  201MOL   O11048510   1.266   7.784   3.739 -0.1449 -0.4293  0.3713
  201MOL   C11148511   1.372   7.720   3.818  0.0498 -0.0495 -0.2374
  201MOL   C11248512   1.355   7.573   3.788 -0.3418 -0.4593  0.4914
  201MOL   C11348513   1.514   7.776   3.775 -0.0119 -0.2788 -0.2887
  201MOL   C11448514   1.513   7.930   3.750  0.0147  0.3818  0.2700
  201MOL   O11548515   1.541   0.032   3.836  0.5396  0.3783  0.3474
  201MOL   H11648516   1.347   7.744   3.921  1.9077 -0.6834  0.3874
  201MOL   H11748517   1.260   7.543   3.833 -0.1237  0.6657  1.7349
  201MOL   H11848518   1.432   7.517   3.840 -1.0537 -2.9055 -1.0020
  201MOL   H11948519   1.351   7.559   3.680 -0.0548  0.4010  0.3676
  201MOL   H12048520   1.544   7.745   3.675  1.4667  2.3279 -0.6921
  201MOL   H12148521   1.592   7.752   3.847 -0.0455 -1.2253 -0.5526
  201MOL   O12248522   1.486   7.961   3.620 -0.3907 -0.2300  0.0583
  201MOL   C12348523   1.460   0.118   3.583  0.0642 -0.6529 -0.4684
  201MOL   C12448524   1.603   0.160   3.551 -0.5712  0.1193 -0.1949
  201MOL   C12548525   1.371   0.112   3.462  0.4176 -0.0106 -0.1945
  201MOL   C12648526   1.300   0.237   3.412 -0.0488 -0.2565 -0.2602
  201MOL   O12748527   1.348   0.346   3.428 -0.0244 -0.5009 -0.5684
  201MOL   H12848528   1.417   0.183   3.660  0.5138  1.3643 -1.8951
  201MOL   H12948529   1.625   0.113   3.455  0.1071 -0.8318  0.4134
  201MOL   H13048530   1.681   0.133   3.622  0.2873  0.2194 -1.1042
  201MOL   H13148531   1.614   0.267   3.534  0.2956  0.6443  3.2808
  201MOL   H13248532   1.289   0.042   3.478  1.5713 -1.5174 -0.7342
  201MOL   H13348533   1.426   0.078   3.373  1.8226  2.2265 -0.2005
  201MOL   O13448534   1.173   0.205   3.376 -0.3617 -0.1371  0.1564
  201MOL   C13548535   1.096   0.298   3.305 -0.2661 -0.0642  0.5759
  201MOL   C13648536   1.114   0.266   3.153 -0.0673  0.4088 -0.5908
  201MOL   C13748537   0.950   0.262   3.349  0.7585  0.5493 -0.6446
  201MOL   C13848538   0.922   0.320   3.487  0.1966  0.5172  0.2049
  201MOL   O13948539   0.847   0.421   3.495 -0.4885 -0.2198 -0.5929
  201MOL   H14048540   1.123   0.400   3.332 -0.4804 -0.0539  0.7592
  201MOL   H14148541   1.074   0.173   3.115  0.5112 -0.3940  0.7310
  201MOL   H14248542   1.221   0.269   3.134  0.7520  1.3462  3.5119
  201MOL   H14348543   1.054   0.341   3.102 -1.0941  1.1869  1.6881
  201MOL   H14448544   0.915   0.159   3.345  0.3316  0.6002  1.4890
  201MOL   H14548545   0.883   0.304   3.274 -0.0387 -1.1161 -0.8901
  201MOL   O14648546   0.992   0.270   3.580 -0.2051  0.0526 -0.0268
  201MOL   C14748547   1.000   0.324   3.709 -0.0472 -0.5939 -0.2580
  201MOL   C14848548   0.867   0.280   3.787  0.0775  0.2349  0.2395
  201MOL   C14948549   1.129   0.262   3.774 -0.1372 -0.0381  0.5255
  201MOL   C15048550   1.207   0.350   3.869 -0.3514 -1.0817 -0.0618
  201MOL   O15148551   1.156   0.452   3.921 -0.1128 -0.1227  0.1277
  201MOL   H15248552   1.014   0.432   3.699 -0.1447 -0.3378  2.1300
  201MOL   H15348553   0.843   0.174   3.781  1.6171 -0.2012  1.5111
  201MOL   H15448554   0.785   0.342   3.752 -0.8354 -0.1270  1.7079
  201MOL   H15548555   0.873   0.286   3.895  1.0987  2.6082  0.0837
  201MOL   H15648556   1.197   0.222   3.699  0.9390  1.4071  0.7065
  201MOL   H15748557   1.104   0.167   3.821  0.1144 -0.2708  0.1875
  201MOL   O15848558   1.326   0.299   3.884  0.2373  0.1734 -0.2349
  201MOL   C15948559   1.419   0.357   3.970  0.6632 -0.1769 -0.0988
  201MOL   C16048560   1.451   0.249   4.077 -0.4810 -1.2122 -0.6983
  201MOL   C16148561   1.548   0.393   3.884  0.0149 -0.1541 -0.3698
  201MOL   C16248562   1.553   0.526   3.812  0.1668 -0.5912 -0.2238
  201MOL   O16348563   1.651   0.595   3.813  0.3022 -0.6894  0.0729
  201MOL   H16448564   1.375   0.448   4.010  1.0828  0.3591 -0.8429
  201MOL   H16548565   1.490   0.159   4.030  1.5370 -0.6053 -0.2285
  201MOL   H16648566   1.360   0.232   4.135  0.2622  0.2004  0.9021
  201MOL   H16748567   1.518   0.289   4.153 -1.5654  0.4702 -0.6068
  201MOL   H16848568   1.563   0.312   3.812 -1.8344 -0.0825 -0.8396
  201MOL   H16948569   1.630   0.396   3.957 -1.7933  3.1862  1.6197
  201MOL   O17048570   1.437   0.561   3.753 -0.4969  0.3720 -0.3141
  201MOL   C17148571   1.429   0.677   3.673 -0.3974  0.1597 -0.9013
  201MOL   C17248572   1.504   0.660   3.540 -0.2193  0.0648  0.2236
  201MOL   C17348573   1.288   0.733   3.657  0.2817  0.2636 -0.0153
  201MOL   C17448574   1.287   0.870   3.589  1.1643 -0.2816 -0.5571
  201MOL   O17548575   1.303   0.970   3.657 -0.2120  0.0791 -0.5665
  201MOL   H17648576   1.475   0.760   3.728  0.7340 -1.6664  0.9837
  201MOL   H17748577   1.606   0.632   3.565  0.5054  1.7711 -0.7298
  201MOL   H17848578   1.528   0.759   3.502  2.1095 -0.7580 -0.5308
  201MOL   H17948579   1.449   0.600   3.468 -0.5261  0.7672 -0.1269
  201MOL   H18048580   1.241   0.738   3.755 -0.2396  1.0574 -0.2979
  201MOL   H18148581   1.235   0.658   3.598  1.9459  0.6438 -2.0376
  201MOL   O18248582   1.259   0.872   3.456  0.2401  0.1401 -0.1894
  201MOL   C18348583   1.262   0.995   3.385 -0.2571  0.3093 -0.0360
  201MOL   C18448584   1.348   0.983   3.256 -0.2813 -1.0571 -0.0387
  201MOL   C18548585   1.125   1.058   3.376  0.3268 -0.1955 -0.6435
  201MOL   C18648586   1.037   0.985   3.272  0.1647  0.0836 -0.3087
  201MOL   O18748587   1.018   1.030   3.161  0.6108  0.8308  0.4759
  201MOL   H18848588   1.315   1.068   3.446 -1.5902 -0.5616  2.2063
  201MOL   H18948589   1.310   0.903   3.193  4.9257 -2.2525 -1.9043
  201MOL   H19048590   1.448   0.955   3.289 -0.3601  0.4746  1.5530
  201MOL   H19148591   1.363   1.070   3.191 -1.1144 -2.1565 -1.7388
  201MOL   H19248592   1.131   1.163   3.348  2.7737 -0.1713 -0.1425
  201MOL   H19348593   1.070   1.054   3.470  0.8500  2.6541 -0.1877
  201MOL   O19448594   0.998   0.862   3.318 -0.2656 -0.0021 -0.3139
  201MOL   C19548595   0.929   0.763   3.237  0.0449  0.2845 -0.2536
  201MOL   C19648596   1.043   0.661   3.204  0.2431 -0.3130  0.2245
  201MOL   C19748597   0.811   0.699   3.306 -0.8553  0.3808  0.1695
  201MOL   C19848598   0.719   0.630   3.212 -0.2623  0.7627 -0.5599
  201MOL   O19948599   0.683   0.694   3.112 -0.1550  0.0058 -0.2836
  201MOL   H20048600   0.897   0.798   3.139 -0.3890 -1.9738 -0.9568
  201MOL   H20148601   1.108   0.701   3.126  1.0625  2.6194  2.3485
  201MOL   H20248602   1.013   0.563   3.166  5.1666 -2.0433  0.3689
  201MOL   H20348603   1.110   0.636   3.287  0.8744 -0.7219 -0.3970
  201MOL   H20448604   0.754   0.778   3.355 -0.5934  0.6954 -0.0321
  201MOL   H20548605   0.844   0.635   3.388 -2.0265 -0.7582 -0.2483
  201MOL   O20648606   0.689   0.503   3.241  0.1629 -0.3980  0.3144
  201MOL   C20748607   0.597   0.433   3.163  0.3531  0.1274 -0.2299
  201MOL   C20848608   0.678   0.365   3.047  0.1485  0.2851 -0.7089
  201MOL   C20948609   0.512   0.329   3.247  0.3812 -0.1749 -0.1729
  201MOL   C21048610   0.426   0.231   3.172  0.2122 -0.4629  0.0175
  201MOL   O21148611   0.423   0.116   3.211  0.1958 -0.2885 -0.1056
  201MOL   H21248612   0.527   0.504   3.119 -1.8051  0.1277  3.0224
  201MOL   H21348613   0.738   0.433   2.986 -0.1135  1.5831  0.4703
  201MOL   H21448614   0.610   0.322   2.974 -0.5710 -0.1946  0.2384
  201MOL   H21548615   0.751   0.291   3.080  1.0614  0.9810 -1.1299
  201MOL   H21648616   0.444   0.378   3.317 -0.6482 -1.3856 -0.3128
  201MOL   H21748617   0.578   0.278   3.317 -1.4572  0.0500  1.7825
  201MOL   O21848618   0.358   0.284   3.066 -0.3935  0.1747  0.3970
  201MOL   C21948619   0.262   0.213   2.988  0.0234 -0.3908  0.1592
  201MOL   C22048620   0.132   0.291   2.975 -0.1178  0.2758 -0.1085
  201MOL   C22148621   0.323   0.168   2.852  0.2004  0.2623  0.0099
  201MOL   C22248622   0.376   0.022   2.849  0.2179  0.6447 -0.0587
  201MOL   O22348623   0.326   7.916   2.785 -0.0633  0.3204  0.7271
  201MOL   H22448624   0.230   0.122   3.040 -2.1886  1.2863  1.8127
  201MOL   H22548625   0.144   0.389   2.930  0.7206  0.4352  0.4524
  201MOL   H22648626   0.089   0.314   3.073 -0.6405 -0.1898 -0.2213
  201MOL   H22748627   0.060   0.231   2.920 -1.1681  0.1578  1.3409
  201MOL   H22848628   0.391   0.240   2.806 -0.9023  0.8857 -0.6689
  201MOL   H22948629   0.247   0.172   2.774  1.7707 -0.9523 -1.6408
  201MOL   O23048630   0.489   0.016   2.935 -0.2520  0.1305 -0.3915
  201MOL   C23148631   0.538   7.865   2.959 -0.4688  0.0998 -0.3805
  201MOL   C23248632   0.633   7.830   2.847 -0.2444 -0.1331  0.2298
  201MOL   C23348633   0.604   7.853   3.097 -0.1627 -0.2152 -0.0547
  201MOL   C23448634   0.740   7.915   3.126 -0.2621  0.4824 -0.0275
  201MOL   O23548635   0.793   0.023   3.069  0.1822  0.2213  0.4325
  201MOL   H23648636   0.458   7.792   2.953  0.4514 -0.7706 -2.5729
  201MOL   H23748637   0.726   7.885   2.842 -0.8088  0.7254 -1.2529
  201MOL   H23848638   0.586   7.848   2.750  4.2592  1.6646 -1.7199
  201MOL   H23948639   0.657   7.723   2.848  2.1274  0.3739 -0.8192
  201MOL   H24048640   0.619   7.745   3.103 -0.0182 -0.2682 -1.1963
  201MOL   H24148641   0.535   7.873   3.179 -0.1480 -1.6535  0.3321
  201MOL   H24248642   0.794   7.863   3.205 -1.3852  1.6634  1.5437
  202MOL     O148643   2.592   2.801   2.571  0.2511 -0.3541 -0.0135
  202MOL     C248644   2.698   2.858   2.634  0.9840  0.3167  0.0071
  202MOL     C348645   2.766   2.958   2.534  0.5076  0.4807 -0.7738
  202MOL     C448646   2.640   2.912   2.769 -0.0651 -0.0198  0.2771
  202MOL     C548647   2.751   2.984   2.853 -0.0317  0.4327 -0.0668
  202MOL     O648648   2.766   3.104   2.848 -0.1209  0.0772 -0.3502
  202MOL     H748649   2.757   2.767   2.646  0.2604 -0.6046 -2.8727
  202MOL     H848650   2.755   2.933   2.428  2.6761  2.2549 -1.4595
  202MOL     H948651   2.872   2.963   2.559  1.0597 -4.7873 -1.3728
  202MOL    H1048652   2.719   3.056   2.533  1.8848  1.1428 -2.9811
  202MOL    H1148653   2.594   2.837   2.833  1.5365 -2.8299 -1.7523
  202MOL    H1248654   2.570   2.995   2.759 -1.0818 -0.9273 -0.2448
  202MOL    H1348655   2.543   2.872   2.532  0.4096  0.3793  1.1159
  202MOL    O1448656   2.815   2.904   2.934  0.1204  0.0557  0.4320
  202MOL    C1548657   2.892   2.964   3.035 -0.1989 -0.6948 -0.2197
  202MOL    C1648658   2.818   2.940   3.167  0.2223 -0.3979  0.2487
  202MOL    C1748659   3.025   2.889   3.035  0.0632 -0.1538  0.0849
  202MOL    C1848660   3.122   2.938   2.932  0.0910 -0.1539  0.0434
  202MOL    O1948661   3.082   2.986   2.822 -0.6888  0.0743 -0.2813
  202MOL    H2048662   2.907   3.072   3.030  0.7408 -0.7633  0.8926
  202MOL    H2148663   2.803   2.833   3.167 -0.2177 -0.3405 -0.3296
  202MOL    H2248664   2.719   2.985   3.161 -0.0515 -0.8267  1.5376
  202MOL    H2348665   2.875   2.981   3.250  0.7762 -0.4823 -0.0901
  202MOL    H2448666   3.019   2.784   3.007  2.7429  0.0836 -1.5949
  202MOL    H2548667   3.083   2.897   3.127  1.4715 -0.3419 -0.7736
  202MOL    O2648668   3.250   2.910   2.976 -0.3839  0.0689 -0.0289
  202MOL    C2748669   3.369   2.919   2.900  0.3642  0.4087 -0.3390
  202MOL    C2848670   3.493   2.967   2.988  0.2687  0.4580  0.3207
  202MOL    C2948671   3.391   2.774   2.842  0.4263  0.1450 -0.1428
  202MOL    C3048672   3.444   2.670   2.950 -0.2186 -0.0257 -0.4400
  202MOL    O3148673   3.366   2.605   3.022  0.5377 -0.6284 -0.0645
  202MOL    H3248674   3.358   2.984   2.814  2.2800 -1.6232 -2.1739
  202MOL    H3348675   3.475   3.063   3.036 -0.8135  0.4110  0.0187
  202MOL    H3448676   3.584   2.962   2.928 -0.6576  0.9475 -1.1498
  202MOL    H3548677   3.511   2.913   3.081  2.0598  0.5638  0.0471
  202MOL    H3648678   3.476   2.776   2.773  0.9158  0.7338  0.4674
  202MOL    H3748679   3.299   2.739   2.796 -0.2519  1.0687  0.4823
  202MOL    O3848680   3.578   2.656   2.945  0.4183  0.4749 -0.5553
  202MOL    C3948681   3.640   2.593   3.048  0.0233  0.4094  0.5018
  202MOL    C4048682   3.646   2.433   3.031  0.6939 -0.3018  0.6499
  202MOL    C4148683   3.784   2.640   3.070  0.6417  0.5952  0.8909
  202MOL    C4248684   3.811   2.777   3.140 -0.4955  0.0496  0.5944
  202MOL    O4348685   3.728   2.839   3.204  0.0141 -1.0334  0.2076
  202MOL    H4448686   3.592   2.623   3.141  0.1726  1.3336  0.2904
  202MOL    H4548687   3.697   2.388   3.116  2.3878  1.4009  0.5524
  202MOL    H4648688   3.702   2.398   2.945 -0.9418 -4.6399  1.2014
  202MOL    H4748689   3.543   2.395   3.031  1.0572 -1.3671  3.0189
  202MOL    H4848690   3.853   2.633   2.986 -1.6388 -0.0572 -0.9690
  202MOL    H4948691   3.832   2.578   3.147  3.0269 -0.4115 -1.3454
  202MOL    O5048692   3.932   2.818   3.127  0.3207  0.2767 -0.1796
  202MOL    C5148693   3.975   2.945   3.182  0.0037 -0.3593 -0.3037
  202MOL    C5248694   4.102   2.911   3.263  1.5066 -0.0544  0.0262
  202MOL    C5348695   3.994   3.051   3.071  0.3091  0.3515 -0.5612
  202MOL    C5448696   4.111   3.029   2.968  0.4291  0.7602  0.4934
  202MOL    O5548697   4.082   2.991   2.854  0.1996 -0.2941 -0.5157
  202MOL    H5648698   3.900   2.976   3.255  0.8104  1.2301 -0.1240
  202MOL    H5748699   4.139   3.003   3.308 -2.0180 -0.1789  3.4465
  202MOL    H5848700   4.183   2.890   3.192  2.4543  0.4155  0.9415
  202MOL    H5948701   4.080   2.840   3.342  0.2954 -1.0702 -1.2081
  202MOL    H6048702   4.024   3.142   3.123 -0.3069  1.5556 -2.2803
  202MOL    H6148703   3.900   3.086   3.029 -1.1474 -1.9880  0.6544
  202MOL    O6248704   4.234   3.056   3.013 -0.3823 -0.1557 -0.3849
  202MOL    C6348705   4.342   3.036   2.925 -0.5604 -0.4230 -0.8604
  202MOL    C6448706   4.376   3.174   2.851 -0.1284 -0.2969  0.1280
  202MOL    C6548707   4.455   2.973   3.001 -0.3221  0.8914 -0.3794
  202MOL    C6648708   4.582   2.947   2.916 -0.0727  0.0937 -0.5628
  202MOL    O6748709   4.695   2.973   2.955 -0.2505 -0.3149  0.7312
  202MOL    H6848710   4.320   2.961   2.849 -0.6132 -0.5942 -0.6779
  202MOL    H6948711   4.438   3.156   2.763 -0.9010  0.0505 -0.4856
  202MOL    H7048712   4.425   3.235   2.927 -0.9522 -0.1633  0.5554
  202MOL    H7148713   4.286   3.222   2.813 -2.1897 -2.1325  2.4940
  202MOL    H7248714   4.420   2.873   3.028  1.3532  1.1368  3.0499
  202MOL    H7348715   4.481   3.017   3.098  0.2802  0.3089 -0.2724
  202MOL    O7448716   4.558   2.889   2.793 -0.1348  0.4408  0.0472
  202MOL    C7548717   4.663   2.865   2.699  0.1457 -0.5100 -0.2665
  202MOL    C7648718   4.687   2.714   2.674 -0.2332  0.2104  0.6807
  202MOL    C7748719   4.620   2.951   2.576 -0.2300  0.4699  0.8879
  202MOL    C7848720   4.511   2.888   2.494 -0.5402  0.2536 -0.2079
  202MOL    O7948721   4.519   2.879   2.373  0.3498  0.3072  0.4996
  202MOL    H8048722   4.760   2.900   2.733  0.9601 -3.6807  0.8931
  202MOL    H8148723   4.771   2.709   2.605  0.2462 -1.7149  1.3494
  202MOL    H8248724   4.605   2.658   2.630  0.1633  1.0377 -1.1617
  202MOL    H8348725   4.714   2.674   2.772  0.3099 -0.6486  0.1891
  202MOL    H8448726   4.703   2.942   2.507 -1.8544 -1.0789 -0.9233
  202MOL    H8548727   4.606   3.056   2.601 -0.7790  0.5745  0.1690
  202MOL    O8648728   4.400   2.848   2.568  0.0257  0.3630  0.4282
  202MOL    C8748729   4.288   2.803   2.494 -0.1413  0.1402  0.0753
  202MOL    C8848730   4.310   2.656   2.475  0.0338 -0.7145 -0.0755
  202MOL    C8948731   4.163   2.846   2.580  0.4907 -0.3699  0.1548
  202MOL    C9048732   4.118   2.987   2.559  0.5329  0.4956 -0.6233
  202MOL    O9148733   4.200   3.080   2.544 -0.3094 -0.4132 -0.5800
  202MOL    H9248734   4.278   2.852   2.397 -4.0974 -0.4148  0.1118
  202MOL    H9348735   4.326   2.599   2.567 -1.0289 -2.2281 -0.8117
  202MOL    H9448736   4.388   2.635   2.402 -3.5072 -2.0865 -3.5682
  202MOL    H9548737   4.224   2.604   2.434 -1.1777  1.4614 -0.3130
  202MOL    H9648738   4.175   2.831   2.687 -1.5825  1.4641  0.6900
  202MOL    H9748739   4.075   2.784   2.561 -2.7679  3.3926  2.2371
  202MOL    O9848740   3.985   3.004   2.553 -0.0934 -0.4405  0.1052
  202MOL    C9948741   3.933   3.121   2.489  0.1865  0.1852 -0.3413
  202MOL   C10048742   3.875   3.072   2.357  0.7410  0.1456 -1.1869
  202MOL   C10148743   3.824   3.189   2.576 -0.1119 -0.3603 -0.5269
  202MOL   C10248744   3.697   3.113   2.621 -0.6201  0.0715 -0.4934
  202MOL   O10348745   3.693   3.031   2.711  0.4875 -0.3406 -0.1269
  202MOL   H10448746   4.008   3.196   2.463  1.4860 -1.4002 -1.2536
  202MOL   H10548747   3.832   3.153   2.297  1.2585  2.0792  1.0067
  202MOL   H10648748   3.804   2.991   2.377 -0.8223  1.4447 -1.3399
  202MOL   H10748749   3.948   3.024   2.291  1.4628 -1.8668  1.0267
  202MOL   H10848750   3.793   3.287   2.540 -0.0659  0.8556  2.6184
  202MOL   H10948751   3.887   3.204   2.663  0.3073 -0.7329 -0.7610
  202MOL   O11048752   3.602   3.133   2.533 -0.2469  0.1779  0.0408
  202MOL   C11148753   3.474   3.068   2.550 -0.0880 -0.2960  0.3441
  202MOL   C11248754   3.386   3.166   2.634  0.4456  0.1008 -0.8711
  202MOL   C11348755   3.410   3.040   2.421 -0.4761  0.3335 -0.2660
  202MOL   C11448756   3.476   2.939   2.331  0.4856  0.6787  0.2628
  202MOL   O11548757   3.508   2.830   2.377  0.0081 -0.4319 -0.5119
  202MOL   H11648758   3.483   2.968   2.592  2.5579 -0.1922  0.1033
  202MOL   H11748759   3.438   3.176   2.730  1.0342 -1.6302 -0.9946
  202MOL   H11848760   3.287   3.123   2.645  1.1759 -1.8144 -1.4338
  202MOL   H11948761   3.369   3.264   2.591 -0.1136 -0.3462 -1.6879
  202MOL   H12048762   3.402   3.132   2.362  1.6747 -0.2609 -1.5719
  202MOL   H12148763   3.309   3.003   2.439 -1.1954  3.2105  1.8867
  202MOL   O12248764   3.493   2.978   2.196  0.2781 -0.4271 -0.5263
  202MOL   C12348765   3.548   2.892   2.099 -0.1612 -0.2871  0.1276
  202MOL   C12448766   3.466   2.876   1.973  0.3999 -0.1345 -0.0561
  202MOL   C12548767   3.695   2.932   2.059  0.1090  0.1064 -0.4234
  202MOL   C12648768   3.720   3.062   1.978  0.0336 -0.2149 -0.2110
  202MOL   O12748769   3.731   3.168   2.032 -0.3266 -0.1497  0.0461
  202MOL   H12848770   3.555   2.797   2.154  0.1033 -0.5124 -0.2929
  202MOL   H12948771   3.528   2.836   1.893  1.3574 -0.8159  1.0272
  202MOL   H13048772   3.423   2.971   1.940  3.0856  0.3988 -2.1723
  202MOL   H13148773   3.387   2.802   1.989 -0.0973  0.3075 -0.4162
  202MOL   H13248774   3.727   2.849   1.995 -2.2961  0.7312 -2.4824
  202MOL   H13348775   3.757   2.938   2.149 -1.4478  2.6360  0.5225
  202MOL   O13448776   3.717   3.042   1.845 -0.4794 -0.2192 -0.3523
  202MOL   C13548777   3.704   3.149   1.749  0.0225 -0.1380  1.2328
  202MOL   C13648778   3.740   3.097   1.604  0.3125 -1.0936  0.1064
  202MOL   C13748779   3.577   3.236   1.761 -0.8478 -0.8685  0.2630
  202MOL   C13848780   3.457   3.191   1.675 -0.3331  0.0537  0.1658
  202MOL   O13948781   3.393   3.276   1.604  0.0730 -0.0329 -0.2533
  202MOL   H14048782   3.791   3.211   1.769 -0.0358  1.2322 -2.2565
  202MOL   H14148783   3.679   3.008   1.583 -0.9376 -0.3091  0.3461
  202MOL   H14248784   3.844   3.065   1.600  0.4894 -0.2781 -2.5893
  202MOL   H14348785   3.731   3.172   1.526 -0.7837 -0.9157  0.3848
  202MOL   H14448786   3.603   3.334   1.720  0.4786 -0.3457  2.3019
  202MOL   H14548787   3.545   3.243   1.865 -0.4320  1.6041  0.2613
  202MOL   O14648788   3.424   3.068   1.680  0.0382 -0.0506  0.7335
  202MOL   C14748789   3.318   3.003   1.599 -0.0548 -0.3397  0.3317
  202MOL   C14848790   3.389   2.883   1.529  0.0507 -0.3915 -0.3635
  202MOL   C14948791   3.200   2.978   1.691 -0.4184  0.0016  0.0052
  202MOL   C15048792   3.070   2.928   1.625  0.8057  0.4080 -0.1243
  202MOL   O15148793   2.981   3.002   1.582 -0.4728  0.1246 -0.2994
  202MOL   H15248794   3.295   3.080   1.526  4.4368 -1.2934 -2.2531
  202MOL   H15348795   3.330   2.834   1.451  1.0846  1.5157 -2.3914
  202MOL   H15448796   3.422   2.807   1.601  0.7680  0.2263 -0.0337
  202MOL   H15548797   3.474   2.910   1.466  0.3732  0.2686  0.3483
  202MOL   H15648798   3.185   3.072   1.744  1.1672 -0.2546  0.9304
  202MOL   H15748799   3.236   2.908   1.766  1.3182  1.2050  0.3097
  202MOL   O15848800   3.066   2.786   1.607 -0.3117  1.1648 -0.1057
  202MOL   C15948801   2.970   2.725   1.523  0.3210 -0.1031  0.2226
  202MOL   C16048802   3.034   2.640   1.411 -0.3477  0.3306  0.7248
  202MOL   C16148803   2.880   2.645   1.624  0.0914  0.1043  0.2804
  202MOL   C16248804   2.768   2.566   1.562 -0.3498  0.1672 -0.2495
  202MOL   O16348805   2.717   2.611   1.459  0.6936  0.2031 -0.4101
  202MOL   H16448806   2.912   2.802   1.474  0.1359  0.0916  0.7408
  202MOL   H16548807   2.960   2.618   1.334 -1.4478  1.1199  1.5459
  202MOL   H16648808   3.088   2.559   1.460 -0.4435  0.2631  0.7182
  202MOL   H16748809   3.120   2.695   1.373  0.0976 -0.8396  0.0169
  202MOL   H16848810   2.828   2.716   1.689 -2.9728 -0.4288 -1.4739
  202MOL   H16948811   2.946   2.580   1.681 -2.5821 -2.0901  0.9633
  202MOL   O17048812   2.740   2.458   1.634  0.0341 -0.2000 -0.4771
  202MOL   C17148813   2.671   2.346   1.577  0.1486 -0.1265  0.5160
  202MOL   C17248814   2.766   2.248   1.530 -0.7168  0.7859  0.9682
  202MOL   C17348815   2.570   2.285   1.674  0.8099 -0.4075  0.1587
  202MOL   C17448816   2.432   2.351   1.656 -0.0296  0.3129  0.1001
  202MOL   O17548817   2.326   2.296   1.616  0.2188  0.1509  0.3202
  202MOL   H17648818   2.619   2.395   1.495 -2.1396 -2.3441  0.5968
  202MOL   H17748819   2.834   2.288   1.455 -0.3122 -1.7978 -0.0710
  202MOL   H17848820   2.728   2.155   1.489  1.9183 -0.1028  0.3953
  202MOL   H17948821   2.837   2.202   1.600 -0.2744 -1.0871 -0.6652
  202MOL   H18048822   2.602   2.303   1.776  2.5528 -0.5266 -0.3545
  202MOL   H18148823   2.557   2.180   1.649  1.5697  0.2386 -3.2694
  202MOL   O18248824   2.444   2.483   1.677 -0.2890  0.7930 -0.3977
  202MOL   C18348825   2.333   2.573   1.662  0.2098  0.6226 -0.1893
  202MOL   C18448826   2.257   2.577   1.790 -0.6186 -0.2062  0.5816
  202MOL   C18548827   2.381   2.706   1.601 -0.2497  0.6526  0.0444
  202MOL   C18648828   2.459   2.800   1.691 -0.2073  0.2583  0.2319
  202MOL   O18748829   2.581   2.811   1.676 -0.6476 -0.2904 -0.7583
  202MOL   H18848830   2.276   2.532   1.578 -1.5288 -0.5324  1.4997
  202MOL   H18948831   2.167   2.636   1.776 -0.1782  0.0628 -1.2360
  202MOL   H19048832   2.300   2.618   1.881 -1.6392  1.4192  0.3513
  202MOL   H19148833   2.218   2.477   1.809  0.3125 -1.0096 -1.6309
  202MOL   H19248834   2.290   2.765   1.586 -1.3547 -1.1141 -0.2883
  202MOL   H19348835   2.423   2.690   1.502 -1.0106  1.1164 -0.3579
  202MOL   O19448836   2.378   2.865   1.792 -0.3268 -0.2829 -0.2678
  202MOL   C19548837   2.443   2.925   1.901 -0.8057 -0.3221 -1.0929
  202MOL   C19648838   2.340   3.029   1.956 -0.2702  0.0142 -0.0029
  202MOL   C19748839   2.484   2.825   2.011 -0.1416 -0.1327 -0.8900
  202MOL   C19848840   2.615   2.751   1.986 -0.3055 -0.5408  0.0571
  202MOL   O19948841   2.612   2.642   1.928 -0.6864 -0.2742  0.1763
  202MOL   H20048842   2.537   2.977   1.882  0.0410 -2.4692 -2.9969
  202MOL   H20148843   2.238   2.998   1.934  0.0242 -1.3279  0.4354
  202MOL   H20248844   2.361   3.121   1.902 -1.8070 -0.0075 -0.6636
  202MOL   H20348845   2.349   3.041   2.064 -1.8454 -0.2584  0.1739
  202MOL   H20448846   2.411   2.745   2.022 -0.6137  0.2358 -1.3252
  202MOL   H20548847   2.497   2.867   2.111 -2.8165  0.2139 -0.6472
  202MOL   O20648848   2.717   2.821   2.018  0.3288 -0.1872  0.1410
  202MOL   C20748849   2.843   2.776   1.984  0.9158  0.3955 -0.2302
  202MOL   C20848850   2.918   2.906   1.952  0.0032 -0.4958  0.3271
  202MOL   C20948851   2.901   2.681   2.091 -0.4151  1.0306  0.3946
  202MOL   C21048852   3.046   2.634   2.065  0.1503  0.0851  0.8612
  202MOL   O21148853   3.100   2.629   1.958  0.3753  0.1868  0.0249
  202MOL   H21248854   2.841   2.717   1.892 -2.2333 -2.5099  1.6085
  202MOL   H21348855   2.860   2.961   1.879  0.0727 -0.8590 -0.0018
  202MOL   H21448856   3.014   2.902   1.901  0.2547 -1.9471  0.8764
  202MOL   H21548857   2.917   2.977   2.035 -0.2734  1.3690 -1.2333
  202MOL   H21648858   2.849   2.586   2.098  0.4737  0.3459 -2.0297
  202MOL   H21748859   2.905   2.734   2.187 -1.2631  0.5336  0.7046
  202MOL   O21848860   3.102   2.587   2.176  0.1508 -0.3064  0.7426
  202MOL   C21948861   3.209   2.491   2.166  0.4575  0.3699 -0.7348
  202MOL   C22048862   3.337   2.553   2.227 -0.2769 -0.2771  0.0122
  202MOL   C22148863   3.151   2.357   2.227 -0.8196 -0.7173 -0.8379
  202MOL   C22248864   3.127   2.357   2.378 -0.5325 -0.3015  0.2590
  202MOL   O22348865   3.189   2.282   2.457 -0.0242  0.1969 -0.0104
  202MOL   H22448866   3.229   2.475   2.061  0.3249  1.6634 -0.9626
  202MOL   H22548867   3.391   2.604   2.148 -2.5373  0.3174 -1.2081
  202MOL   H22648868   3.407   2.481   2.270  0.0435  0.3900  0.6240
  202MOL   H22748869   3.311   2.630   2.300  0.7080  0.0594  0.0191
  202MOL   H22848870   3.214   2.269   2.214 -1.1744 -1.0861 -0.0796
  202MOL   H22948871   3.059   2.338   2.172  0.1765  1.1434 -3.2367
  202MOL   O23048872   3.023   2.446   2.410  0.2139  0.2593  0.2166
  202MOL   C23148873   2.990   2.467   2.547 -0.6042  0.1799 -0.4885
  202MOL   C23248874   3.051   2.610   2.575  0.5750 -0.0103 -0.2660
  202MOL   C23348875   2.837   2.452   2.567 -0.2699 -0.8585  0.4449
  202MOL   C23448876   2.802   2.305   2.555  0.2886 -0.8306  0.4211
  202MOL   O23548877   2.859   2.211   2.607  0.8388 -0.1110 -0.0287
  202MOL   H23648878   3.032   2.381   2.598 -1.5620  0.8022  1.3886
  202MOL   H23748879   3.160   2.623   2.575  0.8304 -1.9888  0.0823
  202MOL   H23848880   3.025   2.643   2.675  0.1156  1.0829 -0.7380
  202MOL   H23948881   3.016   2.693   2.514  1.8322  2.8472  2.7170
  202MOL   H24048882   2.779   2.510   2.495  1.2768  0.5684  0.3323
  202MOL   H24148883   2.805   2.488   2.665 -1.2835  0.7567 -0.4556
  202MOL   H24248884   2.716   2.274   2.494  0.5833  0.0682 -0.4686
  203MOL     O148885   6.093   5.276   2.125 -0.1874  0.5495  0.6041
  203MOL     C248886   6.037   5.359   2.225  0.2337 -0.0759 -0.0195
  203MOL     C348887   5.928   5.440   2.144  0.1450  0.3809  0.4196
  203MOL     C448888   5.989   5.271   2.341  0.2763 -0.2458 -0.1069
  203MOL     C548889   5.972   5.350   2.473  0.2306 -0.1783  0.3464
  203MOL     O648890   5.974   5.469   2.473  0.4153 -1.2339 -0.1912
  203MOL     H748891   6.115   5.434   2.243 -1.2325  1.1629  1.2553
  203MOL     H848892   5.962   5.473   2.046  0.7580 -1.9094 -0.1614
  203MOL     H948893   5.897   5.524   2.206  1.4872  2.2672 -1.4108
  203MOL    H1048894   5.842   5.375   2.132  0.7964 -0.2717 -0.7592
  203MOL    H1148895   6.074   5.209   2.368  1.5178  1.5840  0.2828
  203MOL    H1248896   5.905   5.207   2.316  1.6428 -1.7275 -0.9579
  203MOL    H1348897   6.181   5.309   2.112  0.7377 -2.1616 -0.3481
  203MOL    O1448898   5.948   5.265   2.578  0.0710 -0.1215 -0.3453
  203MOL    C1548899   5.953   5.317   2.712  0.2837  0.0039  0.5442
  203MOL    C1648900   5.834   5.255   2.789 -0.1191 -0.4629 -0.4670
  203MOL    C1748901   6.091   5.289   2.785 -0.8322  0.1732 -0.2104
  203MOL    C1848902   6.117   5.384   2.897 -0.0735  0.3333  0.3912
  203MOL    O1948903   6.153   5.345   3.007 -0.1069 -0.3775  0.0141
  203MOL    H2048904   5.925   5.421   2.699 -2.0690 -0.5820  0.6564
  203MOL    H2148905   5.828   5.295   2.891 -1.3510  0.6315 -0.9544
  203MOL    H2248906   5.843   5.147   2.796  1.5512 -0.3551 -0.7310
  203MOL    H2348907   5.737   5.279   2.745 -0.2207  1.9070  0.9272
  203MOL    H2448908   6.168   5.310   2.710  0.3559  0.0612  0.9637
  203MOL    H2548909   6.090   5.183   2.812  3.8342  0.2888  0.9073
  203MOL    O2648910   6.102   5.514   2.871  0.7623 -0.6318 -0.7965
  203MOL    C2748911   6.109   5.611   2.978 -0.5913  0.8598  1.0636
  203MOL    C2848912   6.221   5.708   2.929 -0.5509  0.1839 -0.6594
  203MOL    C2948913   5.971   5.675   2.996 -0.4024 -0.9318 -0.5255
  203MOL    C3048914   5.883   5.579   3.076  0.8147 -1.2160 -0.2229
  203MOL    O3148915   5.764   5.575   3.048 -0.5675  0.0225 -0.4712
  203MOL    H3248916   6.136   5.569   3.075  2.1885  0.7100  0.2578
  203MOL    H3348917   6.246   5.793   2.991  1.7559 -1.5221  0.8210
  203MOL    H3448918   6.208   5.740   2.826  0.8621 -1.0464 -1.2339
  203MOL    H3548919   6.315   5.655   2.939 -1.0352 -0.4711  0.5331
  203MOL    H3648920   5.935   5.690   2.895  1.4804 -0.9372 -1.2193
  203MOL    H3748921   5.984   5.766   3.053  0.4159 -0.0829 -2.0431
  203MOL    O3848922   5.940   5.511   3.175  0.1290 -0.3448 -0.6238
  203MOL    C3948923   5.867   5.414   3.243  0.5225  0.3520 -0.1828
  203MOL    C4048924   5.938   5.279   3.219 -0.5153 -0.2471  0.4992
  203MOL    C4148925   5.858   5.444   3.389  0.4447 -0.1422 -0.0071
  203MOL    C4248926   5.784   5.579   3.423 -0.1499 -0.3117 -0.4330
  203MOL    O4348927   5.663   5.583   3.450 -0.1458 -0.0137 -0.4138
  203MOL    H4448928   5.770   5.398   3.195  0.2698 -0.1443  0.4852
  203MOL    H4548929   6.042   5.290   3.250 -0.5481 -0.3858  0.6539
  203MOL    H4648930   5.936   5.239   3.118  2.7080  0.7767 -0.0392
  203MOL    H4748931   5.896   5.213   3.294 -0.2308  1.2020  1.9752
  203MOL    H4848932   5.959   5.449   3.430  0.9857  1.7924 -1.4900
  203MOL    H4948933   5.799   5.367   3.439  0.1866  0.0857  0.0468
  203MOL    O5048934   5.868   5.683   3.440 -0.5678  0.5465  0.0067
  203MOL    C5148935   5.818   5.804   3.498 -0.0509  0.1638 -0.6954
  203MOL    C5248936   5.918   5.851   3.601 -0.6728 -0.2489 -0.6280
  203MOL    C5348937   5.786   5.898   3.378 -0.6151 -0.5781  0.1535
  203MOL    C5448938   5.904   5.981   3.334  0.5455 -0.1797 -0.0503
  203MOL    O5548939   5.968   5.962   3.233 -0.4934 -0.1479  0.1047
  203MOL    H5648940   5.723   5.788   3.548  0.2657 -0.8924 -0.4244
  203MOL    H5748941   5.891   5.953   3.627 -1.6511 -0.0031 -2.5306
  203MOL    H5848942   6.015   5.863   3.554 -1.0819 -0.7504 -1.6137
  203MOL    H5948943   5.939   5.777   3.678  1.5513 -1.0108 -1.9357
  203MOL    H6048944   5.708   5.969   3.406 -0.4771 -0.3676  0.0059
  203MOL    H6148945   5.745   5.846   3.292 -1.5284 -0.3239  0.4244
  203MOL    O6248946   5.923   6.081   3.415  0.2182  0.0209 -0.4067
  203MOL    C6348947   6.032   6.169   3.393  0.9114 -0.4377  0.3208
  203MOL    C6448948   5.989   6.292   3.300 -0.1760  0.0018 -0.4528
  203MOL    C6548949   6.077   6.212   3.535  0.4492 -0.2253 -0.3792
  203MOL    C6648950   6.177   6.128   3.613  0.1919  0.6153  0.5273
  203MOL    O6748951   6.232   6.031   3.562 -0.1946 -0.3769  0.4612
  203MOL    H6848952   6.116   6.112   3.352  1.7324  1.0051 -0.0219
  203MOL    H6948953   6.077   6.348   3.270  0.8922 -1.5358 -0.2547
  203MOL    H7048954   5.924   6.365   3.348  3.1953  2.0374  1.1694
  203MOL    H7148955   5.946   6.246   3.211 -2.0323 -1.3496  1.1002
  203MOL    H7248956   5.986   6.217   3.596 -0.0890 -1.4886 -1.0693
  203MOL    H7348957   6.117   6.314   3.530  1.0434 -0.3444  1.6117
  203MOL    O7448958   6.189   6.164   3.744  0.3753  0.1410  0.3128
  203MOL    C7548959   6.251   6.074   3.829  0.2347 -0.6945  0.2704
  203MOL    C7648960   6.311   6.165   3.947  0.5375 -0.0420  0.3857
  203MOL    C7748961   6.145   5.970   3.884  0.4102  0.2482 -0.0017
  203MOL    C7848962   6.192   5.820   3.883 -0.1170  1.1558  0.9053
  203MOL    O7948963   6.203   5.760   3.990 -0.2474 -0.1625  0.4063
  203MOL    H8048964   6.330   6.021   3.775  0.0087  0.5219 -1.3092
  203MOL    H8148965   6.222   6.199   4.001 -0.0643  0.7686 -1.1046
  203MOL    H8248966   6.366   6.256   3.927 -1.3733  0.6930 -1.8257
  203MOL    H8348967   6.358   6.092   4.013 -1.8713  0.0058  2.2331
  203MOL    H8448968   6.062   5.982   3.815 -0.0591 -1.1423  0.3190
  203MOL    H8548969   6.102   6.001   3.980  1.1089 -1.4151  0.8589
  203MOL    O8648970   6.202   5.757   3.756 -0.4949 -0.4945  0.1093
  203MOL    C8748971   6.233   5.616   3.740 -0.3092 -0.9700  0.4055
  203MOL    C8848972   6.128   5.561   3.643 -0.6288 -0.4428  0.4654
  203MOL    C8948973   6.376   5.590   3.683  0.7566  0.6157  0.0167
  203MOL    C9048974   6.482   5.611   3.785  0.0993 -0.3966 -0.1040
  203MOL    O9148975   6.507   5.524   3.870  0.3203 -0.1027  0.2458
  203MOL    H9248976   6.209   5.564   3.833  1.0837 -0.2079  1.2098
  203MOL    H9348977   6.133   5.614   3.549 -0.3594  1.4389  1.5216
  203MOL    H9448978   6.032   5.570   3.695  0.1812  1.7721  1.6436
  203MOL    H9548979   6.142   5.453   3.635 -1.1046 -0.4836  0.1415
  203MOL    H9648980   6.399   5.649   3.594  0.3651  3.5033  1.7433
  203MOL    H9748981   6.386   5.487   3.652 -2.9514  0.7775 -2.0270
  203MOL    O9848982   6.541   5.737   3.774 -0.2074 -0.1173  0.3353
  203MOL    C9948983   6.636   5.787   3.874 -0.1753  0.6409  0.4359
  203MOL   C10048984   6.750   5.862   3.806 -0.0754 -0.0240 -0.3472
  203MOL   C10148985   6.565   5.866   3.990 -0.0460 -0.3344  0.3354
  203MOL   C10248986   6.656   5.885   4.113  0.5450 -0.1841 -0.2006
  203MOL   O10348987   6.657   5.790   4.192 -0.0770 -0.5055 -0.0278
  203MOL   H10448988   6.683   5.697   3.914  2.5231  0.8112 -2.1938
  203MOL   H10548989   6.830   5.875   3.879  0.5171  0.9947 -1.1509
  203MOL   H10648990   6.721   5.953   3.753  0.7128  0.1013 -0.5695
  203MOL   H10748991   6.809   5.802   3.736 -0.2270  0.1749 -0.6495
  203MOL   H10848992   6.459   5.846   4.007 -0.6027  2.9769  1.1704
  203MOL   H10948993   6.551   5.964   3.943  4.1475  0.6249  0.9409
  203MOL   O11048994   6.727   5.993   4.113  0.1665  0.0232  0.8708
  203MOL   C11148995   6.821   6.027   4.214  0.1481 -0.1784  0.2869
  203MOL   C11248996   6.959   5.982   4.158  0.3539 -0.1636 -0.8718
  203MOL   C11348997   6.820   6.173   4.255 -0.3050  0.6025 -0.6175
  203MOL   C11448998   6.691   6.223   4.315  0.1480  0.5314 -1.2015
  203MOL   O11548999   6.584   6.166   4.292  0.4213  0.6010 -0.3018
  203MOL   H11649000   6.792   5.982   4.309 -0.6454  2.2404  1.2188
  203MOL   H11749001   6.989   6.049   4.077  0.8998 -0.9391 -1.3192
  203MOL   H11849002   6.954   5.880   4.119 -0.4073 -1.2276  1.9237
  203MOL   H11949003   7.027   5.979   4.242  0.1831  0.1218 -0.7242
  203MOL   H12049004   6.840   6.247   4.177 -1.1703  0.1401 -1.2857
  203MOL   H12149005   6.909   6.205   4.309  0.2528  0.3181 -1.3514
  203MOL   O12249006   6.713   6.328   4.399 -0.6348  0.0745  0.2007
  203MOL   C12349007   6.603   6.378   4.471 -1.3636 -0.0969  1.0630
  203MOL   C12449008   6.658   6.450   4.599 -0.3387  0.0410  0.0464
  203MOL   C12549009   6.499   6.459   4.382 -0.1325  0.0636  0.3126
  203MOL   C12649010   6.564   6.580   4.324  0.2854 -0.3580  0.4795
  203MOL   O12749011   6.583   6.687   4.382  0.0502 -0.2468  0.6961
  203MOL   H12849012   6.536   6.298   4.500 -1.0456 -0.2069  1.5004
  203MOL   H12949013   6.579   6.474   4.671 -1.2488  0.1207 -0.9736
  203MOL   H13049014   6.714   6.542   4.583 -2.7860  1.2954 -1.7175
  203MOL   H13149015   6.726   6.383   4.651  0.3350  0.3771 -0.3919
  203MOL   H13249016   6.412   6.498   4.435  0.3269  1.8438 -0.2330
  203MOL   H13349017   6.459   6.398   4.301  1.7984 -0.3554 -0.3557
  203MOL   O13449018   6.611   6.545   4.207  0.0061 -0.3194 -0.7521
  203MOL   C13549019   6.671   6.636   4.120 -0.2532 -0.2996  0.0556
  203MOL   C13649020   6.827   6.619   4.117 -0.4482  0.2031 -0.0992
  203MOL   C13749021   6.593   6.616   3.985 -0.2054  0.0450  0.1651
  203MOL   C13849022   6.645   6.706   3.876 -0.0939 -0.5401  0.2357
  203MOL   O13949023   6.700   6.669   3.769  0.8408  0.2407  0.0746
  203MOL   H14049024   6.648   6.736   4.158  0.8544  0.5980 -1.5770
  203MOL   H14149025   6.874   6.701   4.063 -0.9330  0.1894 -0.5538
  203MOL   H14249026   6.860   6.518   4.090  0.4292  0.7624 -1.1477
  203MOL   H14349027   6.840   6.635   4.224 -0.0879 -3.4915  0.4735
  203MOL   H14449028   6.487   6.640   3.995 -0.9364 -1.8914 -2.3962
  203MOL   H14549029   6.609   6.513   3.953  1.1276  0.8428 -1.7998
  203MOL   O14649030   6.635   6.838   3.916  0.2775 -0.2348  0.2978
  203MOL   C14749031   6.692   6.941   3.846 -0.0419 -0.0747 -0.3287
  203MOL   C14849032   6.575   7.032   3.794 -0.1185  0.2116  0.0249
  203MOL   C14949033   6.791   7.000   3.947 -0.1253  0.3810 -0.4392
  203MOL   C15049034   6.893   7.097   3.885  0.3811 -0.2585 -0.4251
  203MOL   O15149035   6.885   7.115   3.761 -0.5439 -0.3991  0.2743
  203MOL   H15249036   6.760   6.901   3.771  0.3693 -0.6001  0.3155
  203MOL   H15349037   6.506   6.988   3.721 -0.2900  1.1166 -0.3660
  203MOL   H15449038   6.601   7.127   3.749 -0.2844 -1.0665 -2.9152
  203MOL   H15549039   6.519   7.054   3.885 -0.8342 -3.7455  0.6537
  203MOL   H15649040   6.844   6.906   3.967  1.4708  1.5328  0.8355
  203MOL   H15749041   6.745   7.028   4.041  1.1093 -1.1945  0.6678
  203MOL   O15849042   6.958   7.163   3.978 -0.2250 -0.5749 -0.3421
  203MOL   C15949043   7.059   7.255   3.958 -0.7777  0.2087  0.1746
  203MOL   C16049044   7.005   7.395   4.002 -0.0950 -0.0134 -0.3305
  203MOL   C16149045   7.189   7.215   4.026 -0.7776 -0.3725 -0.3162
  203MOL   C16249046   7.309   7.297   3.979 -0.3184 -0.7454 -0.5343
  203MOL   O16349047   7.359   7.390   4.046  0.0557  0.3891 -0.2276
  203MOL   H16449048   7.085   7.270   3.853 -1.4767 -1.5441 -0.2722
  203MOL   H16549049   7.058   7.483   3.964 -0.5336  0.7852  0.8817
  203MOL   H16649050   6.990   7.400   4.110 -1.9828  1.2284 -0.6220
  203MOL   H16749051   6.904   7.398   3.959 -0.0741 -2.6421 -0.6394
  203MOL   H16849052   7.224   7.112   4.015  1.2893  0.1970  0.6038
  203MOL   H16949053   7.184   7.240   4.132  0.7288  1.5323 -0.6555
  203MOL   O17049054   7.359   7.244   3.861  0.4858 -0.3196 -0.0369
  203MOL   C17149055   7.465   7.306   3.795  0.2187 -0.9702  0.2193
  203MOL   C17249056   7.593   7.232   3.831 -0.5639 -0.4656 -0.2779
  203MOL   C17349057   7.441   7.311   3.635  0.1335 -0.1640 -0.1418
  203MOL   C17449058   7.552   7.389   3.560  0.2309 -0.0239 -0.3483
  203MOL   O17549059   7.643   7.326   3.507  0.3532  0.1921 -0.6377
  203MOL   H17649060   7.464   7.409   3.831 -0.0602 -0.6874 -0.5691
  203MOL   H17749061   7.625   7.155   3.760 -1.0501 -1.2399  0.3343
  203MOL   H17849062   7.591   7.177   3.925 -2.1323  1.5017  0.8528
  203MOL   H17949063   7.673   7.306   3.828 -0.5521 -0.4820 -0.3796
  203MOL   H18049064   7.352   7.367   3.607  0.4696 -0.0905 -1.0679
  203MOL   H18149065   7.422   7.211   3.596  2.5410  0.2529 -2.5364
  203MOL   O18249066   7.527   7.522   3.569 -0.4041  0.4672 -0.1407
  203MOL   C18349067   7.630   7.621   3.541  0.7681  0.1413 -0.2726
  203MOL   C18449068   7.592   7.679   3.404 -0.2291 -0.4515  0.1209
  203MOL   C18549069   7.609   7.722   3.652  0.2164  0.0593 -0.7040
  203MOL   C18649070   7.635   7.673   3.789 -0.2202 -0.3035  0.0580
  203MOL   O18749071   7.684   7.565   3.821 -0.0447 -0.3741  0.1645
  203MOL   H18849072   7.733   7.587   3.541  0.9635  0.6333  2.8851
  203MOL   H18949073   7.670   7.733   3.351  1.9958 -2.8076  0.8495
  203MOL   H19049074   7.501   7.739   3.404  1.6972  2.5436  0.7904
  203MOL   H19149075   7.573   7.594   3.338  2.3053 -1.7973  1.0580
  203MOL   H19249076   7.507   7.761   3.658  0.8710  1.5790  1.1862
  203MOL   H19349077   7.670   7.811   3.640 -0.5747  0.4650 -1.8401
  203MOL   O19449078   7.583   7.762   3.876  0.0232 -0.0156  0.0365
  203MOL   C19549079   7.560   7.725   4.011 -0.1113  0.4635  0.4828
  203MOL   C19649080   7.685   7.748   4.102 -0.3453  0.6384 -0.0392
  203MOL   C19749081   7.434   7.796   4.061 -0.0804  0.4302  0.0075
  203MOL   C19849082   7.306   7.736   4.010 -0.0542  0.5131  0.2784
  203MOL   O19949083   7.214   7.700   4.084  0.0007  0.1417 -0.0395
  203MOL   H20049084   7.529   7.621   4.020  0.2044  0.0839 -2.4257
  203MOL   H20149085   7.657   7.733   4.206  0.0726 -1.3007 -0.1835
  203MOL   H20249086   7.722   7.850   4.093 -2.1377  1.2987 -0.0991
  203MOL   H20349087   7.766   7.678   4.082 -1.3125 -0.8613  1.1777
  203MOL   H20449088   7.447   7.903   4.048  0.0142  0.5676  1.1578
  203MOL   H20549089   7.420   7.787   4.169  1.3587  0.6726  0.2358
  203MOL   O20649090   7.300   7.750   3.876 -0.0484 -0.2351  0.0249
  203MOL   C20749091   7.181   7.718   3.806  0.3423 -1.0116  0.2949
  203MOL   C20849092   7.149   7.828   3.698 -0.1568 -0.1123 -0.1455
  203MOL   C20949093   7.187   7.577   3.738  0.4265  0.2132 -0.0184
  203MOL   C21049094   7.059   7.516   3.681 -0.6199  0.7111 -0.6056
  203MOL   O21149095   6.949   7.549   3.722  0.2596  0.1474 -0.3234
  203MOL   H21249096   7.093   7.705   3.869 -1.1538 -1.6769 -1.8280
  203MOL   H21349097   7.238   7.831   3.636  0.1717  0.2468  0.3461
  203MOL   H21449098   7.126   7.923   3.746 -1.1682 -0.7237  0.5967
  203MOL   H21549099   7.062   7.797   3.639 -0.4927  1.1162 -0.2988
  203MOL   H21649100   7.227   7.500   3.804  2.6011  2.5089  1.4401
  203MOL   H21749101   7.264   7.586   3.661  0.9248  0.1216  0.4712
  203MOL   O21849102   7.079   7.429   3.574 -0.1923  0.3193  0.0349
  203MOL   C21949103   6.971   7.344   3.535 -0.0390  0.2178 -0.2781
  203MOL   C22049104   6.885   7.401   3.413  0.2649  0.6757 -0.2094
  203MOL   C22149105   7.028   7.213   3.496  0.1138 -0.0581 -0.0577
  203MOL   C22249106   7.104   7.203   3.364  0.3033  0.2582  0.3273
  203MOL   O22349107   7.047   7.204   3.258 -0.0931  0.2510 -0.2973
  203MOL   H22449108   6.915   7.316   3.624  0.7152 -0.1792  0.0762
  203MOL   H22549109   6.963   7.438   3.346  0.5078 -0.6789 -0.6856
  203MOL   H22649110   6.825   7.482   3.452 -0.6001  0.9092 -1.9626
  203MOL   H22749111   6.831   7.320   3.363 -0.5927  1.4361 -0.5194
  203MOL   H22849112   6.939   7.149   3.497 -0.9852  1.4716  0.7680
  203MOL   H22949113   7.092   7.184   3.579  0.3815  0.8688  0.0647
  203MOL   O23049114   7.241   7.214   3.369 -0.4632  0.2437  0.0983
  203MOL   C23149115   7.314   7.201   3.252  0.2584 -0.2287 -0.4683
  203MOL   C23249116   7.367   7.335   3.224  0.3733  0.5497 -0.5247
  203MOL   C23349117   7.431   7.107   3.275 -0.1470 -0.4730 -0.0899
  203MOL   C23449118   7.398   6.959   3.270  0.0228 -0.0177  0.1679
  203MOL   O23549119   7.346   6.901   3.371 -0.0836 -0.3035 -0.2311
  203MOL   H23649120   7.262   7.161   3.165 -1.0535 -1.7369  0.9682
  203MOL   H23749121   7.442   7.368   3.296 -0.3616  1.6104 -0.2239
  203MOL   H23849122   7.295   7.416   3.236 -1.1358 -1.0027  1.1098
  203MOL   H23949123   7.407   7.359   3.126  0.6808  2.0028 -0.0618
  203MOL   H24049124   7.460   7.117   3.380 -0.3076  1.6512 -0.2291
  203MOL   H24149125   7.509   7.117   3.200 -1.4924  3.2577 -1.1189
  203MOL   H24249126   7.411   6.910   3.174  1.7206 -1.1344  0.9232
  204MOL     O149127   0.879   2.185   1.181  0.1095 -0.5094 -0.4624
  204MOL     C249128   0.744   2.152   1.187 -0.1468 -0.0587 -0.0133
  204MOL     C349129   0.720   2.020   1.107  0.3858  0.6690 -0.0864
  204MOL     C449130   0.722   2.146   1.346  0.4138  0.0842 -0.0853
  204MOL     C549131   0.581   2.111   1.382 -0.3127  0.1223  0.6924
  204MOL     O649132   0.501   2.203   1.419  0.1618  0.2552  1.1588
  204MOL     H749133   0.689   2.236   1.143  0.2797 -0.6523 -1.7154
  204MOL     H849134   0.616   1.986   1.101  0.7058 -0.1924 -0.7646
  204MOL     H949135   0.774   1.937   1.152 -0.9782  0.6509  1.6099
  204MOL    H1049136   0.759   2.033   1.006 -0.0028 -0.8917 -0.4529
  204MOL    H1149137   0.748   2.244   1.387 -0.1088 -0.1878  0.9071
  204MOL    H1249138   0.795   2.076   1.388 -0.8901 -0.4396  1.3544
  204MOL    H1349139   0.893   2.261   1.235 -0.5711 -1.0056  0.4279
  204MOL    O1449140   0.563   1.982   1.371  0.7775 -0.4708 -0.2342
  204MOL    C1549141   0.435   1.931   1.398  0.2156  0.4878  0.3483
  204MOL    C1649142   0.388   1.843   1.273  0.0517  0.1727 -0.0999
  204MOL    C1749143   0.443   1.849   1.529  0.6898  0.1571 -0.2302
  204MOL    C1849144   0.306   1.837   1.602 -0.5128  0.7955 -0.1145
  204MOL    O1949145   0.303   1.871   1.720  0.5929  0.1303 -0.4924
  204MOL    H2049146   0.368   2.017   1.405 -0.2832  0.2111 -0.9677
  204MOL    H2149147   0.396   1.903   1.182  1.1383  1.8034  1.0379
  204MOL    H2249148   0.284   1.817   1.287  0.0627  0.0804 -0.1851
  204MOL    H2349149   0.451   1.755   1.261  1.8418  1.4341 -0.1967
  204MOL    H2449150   0.514   1.890   1.601  3.2449 -0.7906 -2.1392
  204MOL    H2549151   0.487   1.751   1.508 -2.0964 -1.7369  2.2266
  204MOL    O2649152   0.216   1.776   1.530  0.0378 -0.4930 -0.3836
  204MOL    C2749153   0.084   1.750   1.589 -0.2378  0.2270  0.3457
  204MOL    C2849154   7.968   1.773   1.470  0.4304  0.2222 -0.0302
  204MOL    C2949155   0.072   1.616   1.647  0.0207  0.6466 -0.7383
  204MOL    C3049156   7.957   1.604   1.770 -0.6633  0.8773  0.2474
  204MOL    O3149157   0.022   1.572   1.878 -0.1964  0.0285 -0.5945
  204MOL    H3249158   0.065   1.825   1.665  0.0940 -0.3630  1.0197
  204MOL    H3349159   0.029   1.866   1.429 -1.1053  1.9958  2.3409
  204MOL    H3449160   7.867   1.785   1.510  0.2606  0.5718 -0.5547
  204MOL    H3549161   0.000   1.703   1.387 -1.1482  0.7283 -0.7090
  204MOL    H3649162   0.171   1.599   1.689  0.5865 -1.2112 -2.7050
  204MOL    H3749163   0.071   1.519   1.597 -1.3038 -0.0292  0.5747
  204MOL    O3849164   7.822   1.617   1.744  0.1436 -0.3832  0.2090
  204MOL    C3949165   7.727   1.595   1.846 -0.1077  0.5442  0.3919
  204MOL    C4049166   7.728   1.716   1.950 -0.0499  0.2614 -0.2475
  204MOL    C4149167   7.595   1.539   1.797  0.3723  0.4248  0.5571
  204MOL    C4249168   7.503   1.644   1.746 -0.5234 -0.1376  0.5911
  204MOL    O4349169   7.403   1.682   1.808  0.1446  0.4726 -0.3179
  204MOL    H4449170   7.777   1.516   1.902  1.1620  1.4473  0.5470
  204MOL    H4549171   7.689   1.811   1.913  0.9812 -0.2803 -2.7533
  204MOL    H4649172   7.830   1.726   1.987  0.1147 -1.6648 -0.0904
  204MOL    H4749173   7.667   1.688   2.037  2.1697  0.6425  1.4765
  204MOL    H4849174   7.546   1.492   1.882  1.3280 -1.1649  0.2670
  204MOL    H4949175   7.615   1.463   1.721 -0.5466 -1.7299  2.3758
  204MOL    O5049176   7.533   1.696   1.626 -0.0490 -0.7407  0.4633
  204MOL    C5149177   7.450   1.792   1.563  0.4917  0.6568  0.8240
  204MOL    C5249178   7.524   1.927   1.552  0.0319  0.1880 -0.5811
  204MOL    C5349179   7.422   1.735   1.426  0.1196  0.0810  0.0766
  204MOL    C5449180   7.325   1.612   1.433 -0.2187 -0.6182 -0.1039
  204MOL    O5549181   7.362   1.491   1.443 -0.3167 -0.2716 -0.1689
  204MOL    H5649182   7.355   1.801   1.615  0.6381  2.1123  0.8655
  204MOL    H5749183   7.476   2.009   1.498  0.3107  1.0636  0.4779
  204MOL    H5849184   7.610   1.905   1.490 -0.0038 -1.1881 -0.1510
  204MOL    H5949185   7.566   1.971   1.643  1.3521  0.3703 -1.2667
  204MOL    H6049186   7.514   1.695   1.383  1.4796  0.3415  2.6048
  204MOL    H6149187   7.381   1.811   1.360  1.6299  0.0290 -0.9442
  204MOL    O6249188   7.200   1.649   1.422  0.0547  0.0521 -0.3912
  204MOL    C6349189   7.095   1.558   1.422 -0.6450 -0.4256  0.6228
  204MOL    C6449190   6.980   1.639   1.469  0.6050 -0.0003 -0.0488
  204MOL    C6549191   7.086   1.492   1.279  0.3698 -0.0171 -0.1592
  204MOL    C6649192   7.107   1.336   1.275  0.2595 -0.2383 -0.6529
  204MOL    O6749193   7.100   1.264   1.376  0.0233 -0.2885 -0.0374
  204MOL    H6849194   7.119   1.482   1.496  1.3845  1.7142  2.2327
  204MOL    H6949195   7.007   1.664   1.571  0.7896 -0.8908  0.1204
  204MOL    H7049196   6.891   1.576   1.467  2.5443 -2.8527 -0.0752
  204MOL    H7149197   6.960   1.726   1.407 -1.4791 -0.0342  0.5442
  204MOL    H7249198   7.145   1.540   1.201 -0.4641 -0.4024 -1.0368
  204MOL    H7349199   6.981   1.500   1.251  0.3364  0.2371  0.0396
  204MOL    O7449200   7.135   1.292   1.157 -0.4906  0.4328  0.3393
  204MOL    C7549201   7.187   1.160   1.139  0.0353  0.4788  1.0579
  204MOL    C7649202   7.176   1.115   1.000 -0.0321 -0.2076  0.1795
  204MOL    C7749203   7.342   1.158   1.176  0.0445  0.4067  0.6021
  204MOL    C7849204   7.385   1.024   1.249  0.1823 -0.4855 -0.8594
  204MOL    O7949205   7.306   0.955   1.307 -0.0624  0.0749 -0.0293
  204MOL    H8049206   7.137   1.099   1.215  1.8719  0.4192  2.2549
  204MOL    H8149207   7.072   1.112   0.968  0.2235 -0.8557 -0.6053
  204MOL    H8249208   7.214   1.015   0.980  3.3629  1.1878 -0.6693
  204MOL    H8349209   7.227   1.189   0.938 -0.9594  0.4896  0.2243
  204MOL    H8449210   7.365   1.228   1.257 -1.7491 -1.9833  3.3041
  204MOL    H8549211   7.405   1.188   1.093 -0.5717  0.4853  0.1695
  204MOL    O8649212   7.515   0.996   1.252  0.1437 -0.2027  0.9528
  204MOL    C8749213   7.562   0.885   1.319 -0.4151 -0.1097 -0.1975
  204MOL    C8849214   7.595   0.772   1.219 -0.9849  0.2630 -0.0774
  204MOL    C8949215   7.697   0.928   1.388  0.8479  0.1148 -0.1892
  204MOL    C9049216   7.735   0.825   1.487  0.4065  0.2394  0.6344
  204MOL    O9149217   7.850   0.782   1.498  0.2335  0.8126 -0.2116
  204MOL    H9249218   7.492   0.845   1.393  0.8612 -1.6676  0.2128
  204MOL    H9349219   7.500   0.753   1.168 -1.9293  1.0793  1.3472
  204MOL    H9449220   7.633   0.682   1.268  1.1820  1.2486  0.0835
  204MOL    H9549221   7.661   0.808   1.141 -0.7462 -0.9330 -0.4423
  204MOL    H9649222   7.685   1.026   1.435 -1.2287 -0.4450  0.4850
  204MOL    H9749223   7.770   0.942   1.308  0.3662  1.3755 -0.4294
  204MOL    O9849224   7.637   0.792   1.579 -0.1467  0.0380  0.0235
  204MOL    C9949225   7.669   0.698   1.678  0.0970 -0.0569  0.9319
  204MOL   C10049226   7.761   0.750   1.788  0.6628 -0.2516 -0.1669
  204MOL   C10149227   7.536   0.643   1.721 -0.5801  0.7265  0.1874
  204MOL   C10249228   7.481   0.547   1.616  0.6872 -0.2035 -0.0725
  204MOL   O10349229   7.424   0.588   1.516  0.0427 -0.0186 -0.2373
  204MOL   H10449230   7.719   0.610   1.638  2.9919  0.8185  2.4975
  204MOL   H10549231   7.763   0.670   1.863 -1.7986 -1.8327 -1.6867
  204MOL   H10649232   7.707   0.833   1.833 -0.7998 -0.6341 -1.1648
  204MOL   H10749233   7.852   0.795   1.749  0.3201  0.8362  0.2675
  204MOL   H10849234   7.465   0.723   1.740 -0.9171  0.8320 -1.4504
  204MOL   H10949235   7.550   0.585   1.812  2.2951  0.4609 -0.3659
  204MOL   O11049236   7.474   0.419   1.651  0.0906 -0.3180 -0.0248
  204MOL   C11149237   7.430   0.328   1.553 -0.7843 -0.3058  0.6561
  204MOL   C11249238   7.500   0.192   1.575  0.0090  0.5325  0.2116
  204MOL   C11349239   7.276   0.292   1.577  0.0811  0.0672 -0.4422
  204MOL   C11449240   7.177   0.394   1.521 -0.1218  0.1246  0.7250
  204MOL   O11549241   7.072   0.419   1.587  0.3916 -0.8746 -0.0270
  204MOL   H11649242   7.447   0.363   1.451  1.7562  0.9708  1.4770
  204MOL   H11749243   7.492   0.180   1.683 -0.4531 -2.4266 -0.1089
  204MOL   H11849244   7.605   0.202   1.546 -0.8747 -0.5616 -3.5564
  204MOL   H11949245   7.446   0.105   1.540 -1.7069  1.7907 -0.3516
  204MOL   H12049246   7.256   0.281   1.684  1.5017 -1.4415 -0.3269
  204MOL   H12149247   7.257   0.201   1.520 -1.7026  1.1719 -1.6910
  204MOL   O12249248   7.201   0.441   1.399 -0.0374 -0.1830  0.3974
  204MOL   C12349249   7.096   0.502   1.326  0.3186  0.5903  0.8293
  204MOL   C12449250   7.151   0.631   1.269 -0.0382  0.1831 -0.0639
  204MOL   C12549251   7.048   0.403   1.213  0.1501 -0.2589  0.2344
  204MOL   C12649252   6.973   0.286   1.274 -0.0821 -0.3030  0.4581
  204MOL   O12749253   6.850   0.297   1.284  0.8187  0.1373  0.5053
  204MOL   H12849254   7.020   0.534   1.397  1.5387  0.4212  2.2476
  204MOL   H12949255   7.253   0.620   1.232 -0.5180  0.8023 -1.5995
  204MOL   H13049256   7.154   0.707   1.348 -0.3630  2.0189 -1.7676
  204MOL   H13149257   7.090   0.653   1.182 -0.0834 -1.8677 -0.5611
  204MOL   H13249258   7.133   0.368   1.154  0.8138  2.0391 -0.2080
  204MOL   H13349259   6.984   0.462   1.147 -1.6141  1.3599  3.2806
  204MOL   O13449260   7.046   0.189   1.326 -0.4253 -0.4273  0.0048
  204MOL   C13549261   6.984   0.082   1.400 -0.4049  0.2364  0.3534
  204MOL   C13649262   7.066   7.933   1.394 -0.1166 -0.2008  0.4852
  204MOL   C13749263   6.932   0.128   1.535 -0.2264  0.3945  0.1004
  204MOL   C13849264   6.825   0.036   1.598 -0.2203  0.2582  0.5556
  204MOL   O13949265   6.838   7.895   1.621 -0.6194 -0.5626  0.5056
  204MOL   H14049266   6.903   0.054   1.332  0.8799  0.7709 -1.4197
  204MOL   H14149267   7.119   7.927   1.298 -0.2760  1.5316  0.2694
  204MOL   H14249268   6.994   7.851   1.391  0.4790 -0.7261  0.2019
  204MOL   H14349269   7.135   7.927   1.478  0.7588 -0.2393 -0.2279
  204MOL   H14449270   6.884   0.226   1.534 -1.7168 -0.2985 -3.1922
  204MOL   H14549271   7.016   0.138   1.604 -0.9940  0.4813  1.0269
  204MOL   O14649272   6.714   0.115   1.618  0.4091  0.7075  0.1817
  204MOL   C14749273   6.588   0.057   1.648  0.2984  0.3306  0.5831
  204MOL   C14849274   6.542   0.101   1.788  0.1618 -0.1050 -0.2284
  204MOL   C14949275   6.485   0.078   1.533 -0.1772 -0.3432 -0.6493
  204MOL   C15049276   6.495   7.957   1.423 -0.3669  0.1026 -0.4487
  204MOL   O15149277   6.396   7.888   1.382  0.2105  0.1048 -0.5574
  204MOL   H15249278   6.599   7.929   1.659 -3.1088 -0.5978 -3.7135
  204MOL   H15349279   6.512   0.206   1.785 -1.4189 -0.4976  0.7827
  204MOL   H15449280   6.625   0.108   1.859 -1.3116 -0.5458  1.5807
  204MOL   H15549281   6.458   0.044   1.828  0.9666  0.6149  2.6179
  204MOL   H15649282   6.498   0.177   1.489 -0.5489 -0.1087 -0.2422
  204MOL   H15749283   6.387   0.072   1.582  0.4444  0.4294  0.7188
  204MOL   O15849284   6.608   7.976   1.351  0.3749 -0.1835 -0.2090
  204MOL   C15949285   6.625   7.899   1.229 -0.0049  0.3466  1.4351
  204MOL   C16049286   6.657   0.026   1.122 -0.2262 -0.0181 -1.1003
  204MOL   C16149287   6.739   7.793   1.243 -0.6572  0.1652  0.4818
  204MOL   C16249288   6.724   7.678   1.146 -0.1671  0.5361  0.1479
  204MOL   O16349289   6.644   7.679   1.050 -0.6127 -0.3156 -0.7189
  204MOL   H16449290   6.536   7.846   1.196 -0.7635  1.8297  1.0548
  204MOL   H16549291   6.679   7.948   1.032  1.0470 -1.1991 -0.0456
  204MOL   H16649292   6.751   0.077   1.144  0.6897 -1.4576 -1.6591
  204MOL   H16749293   6.578   0.094   1.090  0.7729  1.1258 -1.1831
  204MOL   H16849294   6.724   7.756   1.345 -1.0583  0.1383  0.4155
  204MOL   H16949295   6.843   7.822   1.232 -0.4203 -0.8628 -0.0021
  204MOL   O17049296   6.811   7.571   1.172 -0.1736  0.5530 -0.4605
  204MOL   C17149297   6.814   7.450   1.090 -0.0463  0.9951 -0.7722
  204MOL   C17249298   6.863   7.469   0.942  0.0479 -0.0037  0.2712
  204MOL   C17349299   6.903   7.347   1.174  0.7110  0.2961  0.2468
  204MOL   C17449300   6.875   7.193   1.156  0.2480  0.0009  0.4146
  204MOL   O17549301   6.764   7.140   1.170 -0.1749  0.3324 -0.8418
  204MOL   H17649302   6.710   7.418   1.093  0.2628 -0.0125 -0.7987
  204MOL   H17749303   6.878   7.375   0.888 -0.4223  0.8338 -1.3306
  204MOL   H17849304   6.951   7.532   0.933 -0.5682  0.9457  0.7444
  204MOL   H17949305   6.788   7.519   0.882  0.0137 -0.0624  0.2651
  204MOL   H18049306   6.873   7.365   1.278 -1.8931  1.4524 -0.6568
  204MOL   H18149307   7.010   7.370   1.176  0.7008  0.9918 -3.9660
  204MOL   O18249308   6.990   7.125   1.119  0.1729  0.1832  0.8941
  204MOL   C18349309   6.989   6.989   1.076  0.5665  0.5915 -0.3236
  204MOL   C18449310   7.038   6.981   0.927 -0.0783 -0.2021 -0.1925
  204MOL   C18549311   7.076   6.919   1.181 -0.2774 -0.2341 -0.5001
  204MOL   C18649312   6.990   6.886   1.303  0.6868 -0.1874 -0.1725
  204MOL   O18749313   6.920   6.785   1.302  0.3046 -0.3007 -0.3387
  204MOL   H18849314   6.886   6.957   1.088  1.1663 -1.3609 -0.2638
  204MOL   H18949315   7.042   6.879   0.889 -0.9015 -0.5501  0.6386
  204MOL   H19049316   7.135   7.027   0.906 -1.1136  1.1813 -2.1405
  204MOL   H19149317   6.963   7.032   0.866 -1.4528  0.3463  1.9032
  204MOL   H19249318   7.164   6.972   1.217 -1.5257 -0.1849  2.7176
  204MOL   H19349319   7.110   6.825   1.139  1.7288  1.3838 -2.5964
  204MOL   O19449320   6.998   6.967   1.406  0.6085  0.1065 -0.4085
  204MOL   C19549321   6.919   6.960   1.524 -0.1873  0.0662  0.2202
  204MOL   C19649322   7.010   6.964   1.641  1.1775 -0.4865  0.7937
  204MOL   C19749323   6.822   7.079   1.520 -0.2235  0.0449  0.2189
  204MOL   C19849324   6.697   7.058   1.610  0.1388  0.2707  0.7706
  204MOL   O19949325   6.701   6.968   1.696 -0.0127  0.1544 -0.5127
  204MOL   H20049326   6.852   6.874   1.526  0.7905 -0.7059 -0.1605
  204MOL   H20149327   7.072   6.875   1.633 -0.8112 -1.9280  1.1081
  204MOL   H20249328   6.968   6.966   1.742  1.2662  1.2830  0.8199
  204MOL   H20349329   7.087   7.041   1.636  1.1157 -0.5236 -1.1676
  204MOL   H20449330   6.788   7.099   1.418 -2.2476  0.8399  1.0143
  204MOL   H20549331   6.857   7.178   1.549 -0.0999  0.3998 -1.1149
  204MOL   O20649332   6.597   7.141   1.575 -0.4296  0.6058 -0.4129
  204MOL   C20749333   6.471   7.129   1.644 -0.3417 -0.0919  0.3431
  204MOL   C20849334   6.464   7.241   1.751 -0.1879 -0.4605 -0.8756
  204MOL   C20949335   6.354   7.102   1.543  0.7594 -0.1786  1.2041
  204MOL   C21049336   6.334   7.221   1.449  0.3879  0.7793  0.0380
  204MOL   O21149337   6.369   7.226   1.334  0.2273  0.5787  1.0767
  204MOL   H21249338   6.484   7.037   1.701  3.4331 -0.0190 -0.2892
  204MOL   H21349339   6.372   7.235   1.808 -0.8911  0.3155 -1.9017
  204MOL   H21449340   6.435   7.333   1.700 -0.7413 -0.0183  0.2138
  204MOL   H21549341   6.556   7.256   1.809 -1.3439  0.2057  0.8343
  204MOL   H21649342   6.263   7.078   1.599 -0.0567  0.1257  0.0253
  204MOL   H21749343   6.368   7.017   1.477  2.6415  0.1291  1.2008
  204MOL   O21849344   6.269   7.326   1.507 -0.2474  0.4196 -0.3726
  204MOL   C21949345   6.247   7.442   1.427  0.6954 -0.3295  0.0811
  204MOL   C22049346   6.094   7.465   1.410 -0.2332 -0.1588  1.1008
  204MOL   C22149347   6.326   7.555   1.496 -0.4965  0.0511 -0.2968
  204MOL   C22249348   6.481   7.561   1.488 -0.1417 -0.0312 -0.2732
  204MOL   O22349349   6.538   7.582   1.378 -0.2849 -0.1594 -0.1561
  204MOL   H22449350   6.275   7.433   1.322  0.2730 -0.9260  0.0128
  204MOL   H22549351   6.037   7.381   1.369 -0.6816  1.0717 -0.9039
  204MOL   H22649352   6.075   7.544   1.338 -0.9589 -1.0390  0.3137
  204MOL   H22749353   6.045   7.487   1.504 -0.0893 -0.6640  1.2957
  204MOL   H22849354   6.295   7.564   1.600 -1.5976 -0.7938 -0.5481
  204MOL   H22949355   6.289   7.645   1.448 -0.5834 -0.2992 -0.8892
  204MOL   O23049356   6.545   7.539   1.601 -0.0988  0.0545  0.4440
  204MOL   C23149357   6.680   7.581   1.627 -0.4595 -0.0548  0.4172
  204MOL   C23249358   6.697   7.599   1.777 -0.5978  0.0255  0.0285
  204MOL   C23349359   6.774   7.478   1.568 -0.3387 -0.1913  0.1349
  204MOL   C23449360   6.913   7.536   1.561 -0.0588 -0.0765  0.0662
  204MOL   O23549361   7.008   7.458   1.565  0.2996 -0.0476  0.3394
  204MOL   H23649362   6.707   7.677   1.582 -0.3183  1.0580  2.7811
  204MOL   H23749363   6.633   7.680   1.813 -0.0945  1.0358 -1.3053
  204MOL   H23849364   6.797   7.624   1.811 -0.9185 -1.1423  1.8351
  204MOL   H23949365   6.675   7.515   1.843  2.8419 -1.6607 -0.8956
  204MOL   H24049366   6.740   7.471   1.464  1.6816 -0.2503 -0.5286
  204MOL   H24149367   6.775   7.376   1.606 -0.1915 -0.2781 -0.0995
  204MOL   H24249368   6.923   7.644   1.573  0.6536 -0.3292  1.8569
  205MOL     O149369   0.551   0.938   7.766 -0.1970 -0.6115  0.0802
  205MOL     C249370   0.503   0.874   7.650  0.0853  0.3640 -0.0197
  205MOL     C349371   0.406   0.972   7.584 -0.2095  0.1910 -0.1525
  205MOL     C449372   0.616   0.821   7.557 -0.5742  0.6837 -0.1560
  205MOL     C549373   0.662   0.677   7.570  0.0767 -0.2595 -0.3683
  205MOL     O649374   0.590   0.583   7.601  0.2891  0.1520 -0.0360
  205MOL     H749375   0.444   0.788   7.681 -1.3900  1.0694 -0.8284
  205MOL     H849376   0.368   0.923   7.494 -2.1368  0.1510  0.6604
  205MOL     H949377   0.447   1.070   7.558  1.3397  0.1810  2.1472
  205MOL    H1049378   0.312   0.994   7.633  0.7406  2.6645  0.6281
  205MOL    H1149379   0.706   0.883   7.567 -0.0480 -0.1005 -0.0256
  205MOL    H1249380   0.576   0.822   7.455 -0.1927  0.2307 -0.3121
  205MOL    H1349381   0.630   0.987   7.749 -0.5962  0.1087  0.2619
  205MOL    O1449382   0.789   0.664   7.547  0.1536 -0.2935  0.0816
  205MOL    C1549383   0.854   0.542   7.532 -0.8340  0.2244 -0.1020
  205MOL    C1649384   0.983   0.570   7.446  0.0735  0.3695 -0.1402
  205MOL    C1749385   0.877   0.460   7.662 -0.2819 -0.0896 -0.6078
  205MOL    C1849386   0.934   0.319   7.655 -0.1541  0.0012  0.1361
  205MOL    O1949387   1.055   0.304   7.646 -0.6025 -0.0110  0.5966
  205MOL    H2049388   0.786   0.489   7.464 -0.5877 -0.1603 -0.0525
  205MOL    H2149389   0.941   0.597   7.349 -2.3034 -0.2042  0.6920
  205MOL    H2249390   1.050   0.484   7.443 -0.1812  0.1721 -0.2213
  205MOL    H2349391   1.037   0.657   7.484 -0.4571  0.1526  1.1474
  205MOL    H2449392   0.777   0.435   7.699 -0.5092 -0.0300 -1.1771
  205MOL    H2549393   0.938   0.516   7.732 -2.3193  1.1806  0.1890
  205MOL    O2649394   0.836   0.225   7.631 -0.2408  0.1391  0.0382
  205MOL    C2749395   0.873   0.091   7.593  0.4887  0.3108 -0.0935
  205MOL    C2849396   0.826   7.970   7.696 -0.1360 -0.0045  0.2423
  205MOL    C2949397   0.819   0.070   7.454  0.3587  0.3270  0.0519
  205MOL    C3049398   0.865   7.913   7.396  0.2178  0.6619  0.7581
  205MOL    O3149399   0.785   7.827   7.364 -0.5728 -0.6100  0.3083
  205MOL    H3249400   0.981   0.081   7.584  0.4013 -1.9439  1.0502
  205MOL    H3349401   0.853   0.041   7.789 -1.1801 -0.9444  1.0719
  205MOL    H3449402   0.888   7.884   7.673  1.7807  1.2379  0.6941
  205MOL    H3549403   0.722   7.937   7.698 -0.4416  0.9285  0.3570
  205MOL    H3649404   0.860   0.140   7.382 -1.4332  0.1218 -1.1956
  205MOL    H3749405   0.710   0.079   7.452  0.3159  0.1575  1.1180
  205MOL    O3849406   0.993   7.908   7.382 -0.1936  0.9769  0.0520
  205MOL    C3949407   1.062   7.788   7.346 -0.3039  0.0516 -0.2955
  205MOL    C4049408   1.126   7.815   7.221 -0.1867  0.1119 -0.2252
  205MOL    C4149409   1.157   7.722   7.444  0.4800  0.2175  0.9134
  205MOL    C4249410   1.270   7.815   7.494 -0.1309 -0.6275 -0.6402
  205MOL    O4349411   1.371   7.831   7.428 -0.0972  0.4261 -0.1614
  205MOL    H4449412   0.996   7.706   7.314  0.5387 -0.2511 -1.2919
  205MOL    H4549413   1.053   7.845   7.146 -1.1175 -0.2619  0.5190
  205MOL    H4649414   1.186   7.736   7.175 -0.7696 -1.4974  1.7322
  205MOL    H4749415   1.187   7.906   7.221  0.9371 -0.6260  0.2678
  205MOL    H4849416   1.193   7.623   7.417  2.1452  0.3485  2.5074
  205MOL    H4949417   1.090   7.704   7.529 -0.0182 -0.0861  0.4547
  205MOL    O5049418   1.249   7.874   7.617  0.0251 -0.0576 -0.5084
  205MOL    C5149419   1.343   7.957   7.681 -0.2508 -0.1738  0.1073
  205MOL    C5249420   1.281   0.107   7.726 -0.7316 -0.2721 -0.1807
  205MOL    C5349421   1.415   7.881   7.791  0.8126  1.2385 -0.2968
  205MOL    C5449422   1.337   7.845   7.915  0.1181 -0.0164  0.1783
  205MOL    O5549423   1.364   7.901   0.039 -0.7329 -0.2430  0.1678
  205MOL    H5649424   1.422   0.011   7.615 -1.0729  2.1455  0.2550
  205MOL    H5749425   1.294   0.186   7.653  2.4497 -1.0932 -0.5780
  205MOL    H5849426   1.338   0.143   7.811 -0.2471 -1.8374  0.1827
  205MOL    H5949427   1.177   0.101   7.761 -0.3397 -1.5049  0.8272
  205MOL    H6049428   1.500   7.935   7.834  1.1928  1.4707 -1.3183
  205MOL    H6149429   1.450   7.787   7.748 -1.6709  0.2194 -0.1702
  205MOL    O6249430   1.248   7.753   7.908  0.3118  0.1426 -0.0919
  205MOL    C6349431   1.192   7.693   0.042  0.1624 -0.2264 -0.1981
  205MOL    C6449432   1.051   7.652   0.007  0.5018  0.3803 -0.1033
  205MOL    C6549433   1.276   7.573   0.088 -0.7943 -0.4731 -0.1958
  205MOL    C6649434   1.252   7.534   0.234 -0.6316  0.4811  0.9632
  205MOL    O6749435   1.139   7.506   0.279  0.4815  0.1245  0.3135
  205MOL    H6849436   1.188   7.763   0.126 -0.0536 -0.5598  0.0746
  205MOL    H6949437   0.999   7.742   7.954 -1.2556 -0.8682 -0.8158
  205MOL    H7049438   1.005   7.613   0.098  2.2590 -0.5360  0.4090
  205MOL    H7149439   1.057   7.578   7.907  0.5076 -0.5431  0.7439
  205MOL    H7249440   1.380   7.606   0.089 -0.4456 -1.3352 -2.8706
  205MOL    H7349441   1.269   7.488   0.019  2.8267  0.1402 -1.4507
  205MOL    O7449442   1.361   7.559   0.313 -0.1158  0.6611  0.0064
  205MOL    C7549443   1.346   7.535   0.460  0.4933 -0.4975  0.0012
  205MOL    C7649444   1.427   7.407   0.496  0.5646  0.2412 -0.3554
  205MOL    C7749445   1.403   7.652   0.535 -0.3876 -0.0275  0.7044
  205MOL    C7849446   1.380   7.639   0.686 -0.0070  0.8751 -0.0220
  205MOL    O7949447   1.479   7.625   0.763  0.1841  0.0508  0.4489
  205MOL    H8049448   1.244   7.506   0.482 -0.4897  2.5092 -0.3424
  205MOL    H8149449   1.387   7.313   0.458  1.1288 -0.4616  0.7688
  205MOL    H8249450   1.429   7.391   0.604 -1.0186 -0.4660 -0.4194
  205MOL    H8349451   1.531   7.413   0.463  1.7825 -1.4528  2.9683
  205MOL    H8449452   1.353   7.745   0.508 -0.1641 -0.2806 -0.6315
  205MOL    H8549453   1.508   7.672   0.514 -0.3073 -0.4795  0.6740
  205MOL    O8649454   1.247   7.645   0.716 -0.5906  0.3015  0.0029
  205MOL    C8749455   1.192   7.611   0.849 -0.1175  0.1923 -0.5720
  205MOL    C8849456   1.136   7.728   0.919 -0.4032 -0.8090 -0.0262
  205MOL    C8949457   1.075   7.510   0.809  0.3112 -0.4651 -0.3028
  205MOL    C9049458   1.139   7.384   0.753  0.1077  0.7023 -0.0234
  205MOL    O9149459   1.131   7.349   0.633 -0.0957 -0.4269 -0.2282
  205MOL    H9249460   1.265   7.560   0.913  1.2288  1.7451 -0.8390
  205MOL    H9349461   1.098   7.710   1.019  1.0618 -0.6784  0.5616
  205MOL    H9449462   1.060   7.766   0.850 -0.3307 -3.0191 -1.3761
  205MOL    H9549463   1.209   7.808   0.931  0.6339 -1.4994 -1.5781
  205MOL    H9649464   1.006   7.562   0.743 -0.8529  0.7225  1.7780
  205MOL    H9749465   1.022   7.477   0.899 -0.2841 -0.2799 -0.5874
  205MOL    O9849466   1.202   7.318   0.847  0.3887  0.6112 -0.0402
  205MOL    C9949467   1.267   7.188   0.812  0.2606 -0.0830  0.4389
  205MOL   C10049468   1.409   7.202   0.853 -0.7843  0.3508  0.7674
  205MOL   C10149469   1.194   7.072   0.875 -0.1190  0.9147  0.5031
  205MOL   C10249470   1.259   6.936   0.837 -0.4565  0.1940  0.8421
  205MOL   O10349471   1.272   6.852   0.917  0.8285  0.0301 -0.5663
  205MOL   H10449472   1.273   7.169   0.705  0.2161  1.7694  0.1035
  205MOL   H10549473   1.421   7.238   0.956  1.2554  0.5918  0.4665
  205MOL   H10649474   1.460   7.282   0.800  1.7244 -0.1709  2.3067
  205MOL   H10749475   1.459   7.105   0.851  1.8593  1.7013 -1.0328
  205MOL   H10849476   1.089   7.079   0.846  0.3457  1.1981 -1.1519
  205MOL   H10949477   1.199   7.080   0.984  1.7630  0.9751  0.4369
  205MOL   O11049478   1.299   6.925   0.711  0.1413  0.1238  0.2294
  205MOL   C11149479   1.386   6.820   0.669 -0.1049  0.5834 -0.2546
  205MOL   C11249480   1.323   6.734   0.559  0.2299 -0.9180 -0.8349
  205MOL   C11349481   1.525   6.880   0.641  0.3861  0.5070  1.0721
  205MOL   C11449482   1.526   6.995   0.542 -0.1163  0.6464  0.0423
  205MOL   O11549483   1.514   7.112   0.578  0.2908  0.1777 -0.2831
  205MOL   H11649484   1.406   6.754   0.752 -1.3104 -0.1016 -0.5042
  205MOL   H11749485   1.237   6.685   0.606 -0.6817  0.3010 -1.1999
  205MOL   H11849486   1.395   6.657   0.532  2.4202  0.2456  1.4512
  205MOL   H11949487   1.305   6.800   0.474  1.8982 -1.6037 -1.7460
  205MOL   H12049488   1.586   6.799   0.601  0.2285  1.2032 -0.6329
  205MOL   H12149489   1.573   6.906   0.735  1.5145  1.6925  0.1735
  205MOL   O12249490   1.534   6.954   0.416  0.1097  0.3976 -0.1172
  205MOL   C12349491   1.528   7.050   0.304 -0.1110  0.6172  0.1887
  205MOL   C12449492   1.662   7.116   0.280 -0.0299  0.0061  0.4718
  205MOL   C12549493   1.487   6.966   0.192 -0.2206 -0.7567  0.1843
  205MOL   C12649494   1.434   7.040   0.066  0.2886  0.6500  1.2634
  205MOL   O12749495   1.456   7.164   0.045  0.0151  0.2764 -0.2541
  205MOL   H12849496   1.452   7.125   0.327 -1.2872 -0.5164  0.0772
  205MOL   H12949497   1.743   7.046   0.301 -2.4801 -2.9588  0.5025
  205MOL   H13049498   1.678   7.192   0.356 -1.5275 -0.2035  1.0179
  205MOL   H13149499   1.667   7.156   0.179 -1.3056  1.3026  0.9109
  205MOL   H13249500   1.404   6.898   0.211 -0.1114 -0.7023  0.8525
  205MOL   H13349501   1.568   6.905   0.152  0.9341  1.0161 -0.2558
  205MOL   O13449502   1.359   6.959   7.962  0.2678 -0.1736 -0.1483
  205MOL   C13549503   1.294   7.012   7.847  0.1534  0.2489 -0.2461
  205MOL   C13649504   1.271   6.895   7.757 -0.4075  0.0130 -0.4438
  205MOL   C13749505   1.167   7.092   7.892 -0.0971  0.3215 -0.5130
  205MOL   C13849506   1.112   7.161   7.767 -0.4817  0.4108  0.1958
  205MOL   O13949507   0.994   7.148   7.727  0.2693  0.1967 -0.1481
  205MOL   H14049508   1.359   7.084   7.797  2.9860 -2.2584 -0.3199
  205MOL   H14149509   1.214   6.914   7.666  0.8661  1.2694 -0.9957
  205MOL   H14249510   1.219   6.821   7.819 -1.7736  0.2756 -1.2550
  205MOL   H14349511   1.353   6.843   7.706 -0.5400 -1.2464  0.6019
  205MOL   H14449512   1.173   7.174   7.963  0.2635 -0.6730  0.6115
  205MOL   H14549513   1.085   7.027   7.920 -1.4451  2.4248  0.5517
  205MOL   O14649514   1.195   7.254   7.715 -0.2804  0.1977  0.5124
  205MOL   C14749515   1.177   7.319   7.587  0.2163  0.0188 -0.6388
  205MOL   C14849516   1.108   7.453   7.611 -0.1025  0.3472 -0.3786
  205MOL   C14949517   1.322   7.334   7.509 -0.9348 -0.0362 -0.5521
  205MOL   C15049518   1.403   7.200   7.485  0.1700  0.0044 -0.3467
  205MOL   O15149519   1.353   7.104   7.425 -0.1302  0.6160 -0.6064
  205MOL   H15249520   1.110   7.262   7.521  1.5457 -0.3571 -1.6862
  205MOL   H15349521   1.032   7.441   7.687  2.5124 -2.2623  1.9670
  205MOL   H15449522   1.053   7.481   7.521  1.8305  0.8024 -1.4442
  205MOL   H15549523   1.176   7.530   7.648 -0.6930 -0.2458  2.0293
  205MOL   H15649524   1.386   7.403   7.563  0.0055  1.2561 -3.2133
  205MOL   H15749525   1.313   7.380   7.410 -1.0960  1.5621  0.1882
  205MOL   O15849526   1.528   7.214   7.524 -0.6793  0.0813  0.0666
  205MOL   C15949527   1.624   7.111   7.514  0.5568 -0.1794  0.2981
  205MOL   C16049528   1.759   7.157   7.460 -0.0992 -0.1059 -0.1176
  205MOL   C16149529   1.624   7.058   7.657  0.2607 -0.1000  0.0290
  205MOL   C16249530   1.677   6.918   7.681  0.5275  0.2281 -0.2764
  205MOL   O16349531   1.730   6.853   7.590  0.0013  0.4032 -0.2144
  205MOL   H16449532   1.588   7.038   7.441 -2.9479  0.2377  1.5418
  205MOL   H16549533   1.798   7.235   7.526 -0.4199 -0.1756  0.1583
  205MOL   H16649534   1.751   7.195   7.359  0.4456  0.5474  0.0820
  205MOL   H16749535   1.819   7.066   7.453  0.1649  0.0029  0.6576
  205MOL   H16849536   1.518   7.061   7.682  0.5892  2.9091  1.2423
  205MOL   H16949537   1.673   7.132   7.720  0.3090  0.8269 -1.0921
  205MOL   O17049538   1.658   6.863   7.799 -0.4955  0.1495 -0.3087
  205MOL   C17149539   1.685   6.725   7.831 -0.3412 -0.2611 -0.1800
  205MOL   C17249540   1.757   6.722   7.963  0.8735  0.3741  0.1299
  205MOL   C17349541   1.561   6.634   7.839 -0.4141 -0.6535 -0.0645
  205MOL   C17449542   1.513   6.569   7.710  0.7022 -0.3942 -0.1962
  205MOL   O17549543   1.412   6.595   7.642 -0.5206  0.2996  0.6342
  205MOL   H17649544   1.760   6.688   7.760  1.4016 -0.3768  1.6723
  205MOL   H17749545   1.849   6.781   7.958  1.3524 -0.5681 -3.9003
  205MOL   H17849546   1.786   6.619   0.004  0.7521  0.0302 -1.3664
  205MOL   H17949547   1.702   6.754   0.071  0.3297  0.4576 -0.2445
  205MOL   H18049548   1.481   6.693   7.883 -0.9009 -1.9041  0.7309
  205MOL   H18149549   1.582   6.555   7.911 -0.6915 -1.6546 -1.0603
  205MOL   O18249550   1.602   6.473   7.664  0.0565 -0.6226 -0.0827
  205MOL   C18349551   1.583   6.404   7.539 -0.3897 -0.6373  0.0737
  205MOL   C18449552   1.723   6.372   7.494  0.3663 -0.0323  0.0348
  205MOL   C18549553   1.506   6.278   7.545 -0.1083 -0.1272  0.5336
  205MOL   C18649554   1.428   6.247   7.410  0.1385 -0.4480  0.0021
  205MOL   O18749555   1.495   6.242   7.309  0.6122  0.0938 -0.4131
  205MOL   H18849556   1.549   6.471   7.461  0.3128  2.5739  2.4369
  205MOL   H18949557   1.762   6.296   7.562 -0.6533 -0.2572  0.3659
  205MOL   H19049558   1.785   6.461   7.502  1.6251 -1.0053  1.4725
  205MOL   H19149559   1.715   6.340   7.390 -0.0115 -0.8599  0.3142
  205MOL   H19249560   1.434   6.289   7.627 -0.2651  2.9133  0.0471
  205MOL   H19349561   1.570   6.194   7.573 -0.4820 -1.0144 -1.2078
  205MOL   O19449562   1.300   6.222   7.434  0.4516  0.3420  0.0414
  205MOL   C19549563   1.216   6.214   7.321  0.4101  0.3523  0.0408
  205MOL   C19649564   1.097   6.130   7.356 -0.2845 -0.1319  0.5938
  205MOL   C19749565   1.175   6.364   7.289 -0.0598  0.9202  0.4024
  205MOL   C19849566   1.096   6.374   7.159 -0.4567  0.1653 -0.0726
  205MOL   O19949567   1.087   6.274   7.085  0.1883 -1.1837 -0.0708
  205MOL   H20049568   1.273   6.166   7.241  1.2177  1.6315 -0.1737
  205MOL   H20149569   1.030   6.124   7.270 -0.4502  1.3197  0.6068
  205MOL   H20249570   1.056   6.174   7.446  0.8944  0.4082  0.8823
  205MOL   H20349571   1.117   6.026   7.384  0.3329  0.2191  1.4538
  205MOL   H20449572   1.250   6.442   7.273  0.5875  0.1824 -0.2662
  205MOL   H20549573   1.123   6.403   7.376  2.3679  1.9627  1.4451
  205MOL   O20649574   1.050   6.497   7.140  0.1678 -0.2626  0.6998
  205MOL   C20749575   0.944   6.524   7.051 -0.9340  0.3588  0.0682
  205MOL   C20849576   0.818   6.555   7.135 -0.2536  1.3273  0.5699
  205MOL   C20949577   0.987   6.641   6.962 -0.2777 -0.4126  0.4981
  205MOL   C21049578   1.045   6.588   6.828  0.5535  0.1283 -0.8764
  205MOL   O21149579   1.162   6.621   6.798  0.0671 -0.0066 -0.6121
  205MOL   H21249580   0.927   6.434   6.992 -0.5327 -0.4449  1.1624
  205MOL   H21349581   0.742   6.592   7.066  0.7356  1.4819 -0.4528
  205MOL   H21449582   0.836   6.629   7.212 -1.1429 -0.3068  2.3999
  205MOL   H21549583   0.792   6.455   7.171  1.0589  0.2149 -1.4833
  205MOL   H21649584   1.059   6.717   6.994  0.7397  0.6014 -3.8527
  205MOL   H21749585   0.895   6.697   6.946 -0.7926 -0.9707  1.5043
  205MOL   O21849586   0.966   6.507   6.760 -0.2447  0.0030  0.4032
  205MOL   C21949587   1.005   6.408   6.667 -0.1881  0.0584  0.4737
  205MOL   C22049588   1.060   6.472   6.538  0.2332  0.1348  0.2779
  205MOL   C22149589   1.094   6.300   6.740  0.1542 -0.5193  0.3617
  205MOL   C22249590   1.139   6.187   6.655  0.7329  1.0930  0.5447
  205MOL   O22349591   1.062   6.142   6.573  0.0071 -0.1036 -0.2013
  205MOL   H22449592   0.916   6.358   6.630  0.5998  0.9131 -2.7035
  205MOL   H22549593   1.060   6.398   6.459  0.1208 -1.8595  2.1067
  205MOL   H22649594   1.161   6.510   6.551 -0.3575  1.5304  0.9535
  205MOL   H22749595   0.998   6.558   6.511  0.1748 -0.3825 -1.2587
  205MOL   H22849596   1.043   6.256   6.825 -1.2617  0.7887  0.2099
  205MOL   H22949597   1.178   6.344   6.793  1.2882 -2.2255  0.0506
  205MOL   O23049598   1.264   6.146   6.679 -0.1811 -0.7531 -0.4493
  205MOL   C23149599   1.329   6.036   6.600  0.4180  0.4288 -0.0501
  205MOL   C23249600   1.442   6.096   6.516 -0.2911  0.4532 -0.2854
  205MOL   C23349601   1.386   5.940   6.705 -0.2789  0.2982  0.0059
  205MOL   C23449602   1.277   5.880   6.798  0.7079 -0.3052 -0.5700
  205MOL   O23549603   1.269   5.901   6.920 -0.0794 -0.1627  0.4385
  205MOL   H23649604   1.259   5.988   6.532  0.7095  0.2828 -0.2511
  205MOL   H23749605   1.491   6.163   6.586  0.0331 -0.9121  0.8289
  205MOL   H23849606   1.414   6.157   6.430 -1.4960 -0.8558 -0.8421
  205MOL   H23949607   1.525   6.031   6.488  0.2762  0.9622  0.2234
  205MOL   H24049608   1.466   5.996   6.753 -0.0733 -1.4149  1.7370
  205MOL   H24149609   1.425   5.861   6.641 -0.6073  1.0635 -1.1586
  205MOL   H24249610   1.209   5.829   6.730  0.7346 -0.8120 -0.2125
  206MOL     O149611   2.481   4.580   6.269 -0.0351  0.2327  0.0256
  206MOL     C249612   2.572   4.479   6.237 -0.1285  0.5842  1.0053
  206MOL     C349613   2.711   4.538   6.262 -0.3087  0.0675  0.3226
  206MOL     C449614   2.546   4.348   6.312 -0.4638  0.4604  0.1994
  206MOL     C549615   2.640   4.237   6.264  0.1109 -0.1821  0.3542
  206MOL     O649616   2.748   4.214   6.328 -0.2908 -0.7350  0.0661
  206MOL     H749617   2.562   4.451   6.132  2.8437 -1.5376  1.2340
  206MOL     H849618   2.793   4.478   6.224 -0.0735  0.4727  0.1906
  206MOL     H949619   2.741   4.566   6.363  0.5570  0.0479  0.0712
  206MOL    H1049620   2.712   4.636   6.213 -0.6871 -0.7123 -1.2539
  206MOL    H1149621   2.438   4.336   6.302 -0.7213 -0.2597  3.4774
  206MOL    H1249622   2.572   4.371   6.415 -1.9882 -3.9861  1.7001
  206MOL    H1349623   2.393   4.545   6.269  0.0208  0.0463  1.5393
  206MOL    O1449624   2.593   4.166   6.164 -0.4889 -0.0250 -0.4816
  206MOL    C1549625   2.676   4.065   6.107 -0.6175  0.0959 -0.4841
  206MOL    C1649626   2.564   3.967   6.057 -0.2122  0.5119  0.3365
  206MOL    C1749627   2.772   4.109   5.986  0.6974 -1.0165  0.2148
  206MOL    C1849628   2.899   4.025   5.967 -0.1668  0.0276 -0.4848
  206MOL    O1949629   3.008   4.074   5.965  0.2627 -0.1389  0.3622
  206MOL    H2049630   2.735   4.008   6.180 -0.9628 -1.3899 -1.3577
  206MOL    H2149631   2.524   3.886   6.117 -1.1643 -1.6952 -3.1573
  206MOL    H2249632   2.600   3.904   5.976  0.2797 -0.3866  1.2483
  206MOL    H2349633   2.477   4.014   6.011 -0.5760  0.1747  0.6822
  206MOL    H2449634   2.806   4.212   5.994  0.7057 -0.7367 -2.9265
  206MOL    H2549635   2.708   4.117   5.899  2.0147  1.6522 -0.5463
  206MOL    O2649636   2.869   3.906   5.929 -0.7405  0.6230  0.0608
  206MOL    C2749637   2.964   3.807   5.895 -0.4150  0.7162  0.8132
  206MOL    C2849638   2.956   3.690   5.990 -0.2215 -0.3457  0.2306
  206MOL    C2949639   2.957   3.773   5.742 -0.4282 -0.4817 -0.4100
  206MOL    C3049640   3.024   3.876   5.653  0.3206  0.0789  0.7827
  206MOL    O3149641   3.148   3.866   5.634  0.8705 -0.0353 -0.3505
  206MOL    H3249642   3.060   3.857   5.910 -0.5641  1.9685 -2.0263
  206MOL    H3349643   2.872   3.621   5.975 -0.6792  0.7242 -2.5857
  206MOL    H3449644   2.958   3.720   6.094  0.2274 -0.6557  0.3133
  206MOL    H3549645   3.033   3.614   5.979 -0.5844 -0.6236 -0.4780
  206MOL    H3649646   2.854   3.760   5.708 -1.2726  0.0707  1.8030
  206MOL    H3749647   2.995   3.672   5.725 -1.6800 -1.0192 -0.1254
  206MOL    O3849648   2.943   3.982   5.612  0.5601  0.5096 -0.2977
  206MOL    C3949649   2.987   4.082   5.527 -0.0980 -0.1985  0.0747
  206MOL    C4049650   2.891   4.119   5.414  0.0294 -0.8662 -0.4650
  206MOL    C4149651   3.041   4.202   5.609 -0.3484 -0.4797 -0.6517
  206MOL    C4249652   2.945   4.286   5.684  0.1650 -0.9635 -0.1522
  206MOL    O4349653   2.829   4.261   5.700 -0.2095  0.3946  0.7492
  206MOL    H4449654   3.065   4.038   5.466  1.7947  1.9086  0.9233
  206MOL    H4549655   2.852   4.027   5.370  1.8018 -2.3374  0.9331
  206MOL    H4649656   2.947   4.173   5.337  0.7997  0.4284  0.9665
  206MOL    H4749657   2.810   4.179   5.455  0.4885 -1.1634  0.8986
  206MOL    H4849658   3.106   4.265   5.549 -0.0679 -1.2832 -1.1841
  206MOL    H4949659   3.103   4.159   5.688 -1.1645  1.6337  1.2252
  206MOL    O5049660   3.006   4.407   5.717 -0.2840 -1.2306  0.6794
  206MOL    C5149661   2.931   4.525   5.759  0.5753  0.4251 -0.2786
  206MOL    C5249662   2.939   4.554   5.910 -0.7646 -0.2710  0.9848
  206MOL    C5349663   2.976   4.637   5.667 -0.1092 -0.4800  0.1241
  206MOL    C5449664   2.862   4.735   5.631  0.2856 -0.3368 -0.2525
  206MOL    O5549665   2.840   4.843   5.686 -0.6214 -0.3875 -0.1360
  206MOL    H5649666   2.826   4.511   5.732  1.2657 -2.1649 -1.8076
  206MOL    H5749667   2.925   4.457   5.958 -2.7824  0.6668  2.3543
  206MOL    H5849668   2.862   4.621   5.949  0.4390  0.8050  1.5736
  206MOL    H5949669   3.029   4.604   5.947 -1.2631  0.0591  1.7581
  206MOL    H6049670   3.007   4.607   5.567  1.0189  1.9232 -0.2803
  206MOL    H6149671   3.061   4.691   5.710 -1.9137  0.7481  2.2862
  206MOL    O6249672   2.782   4.689   5.531 -0.1720 -0.0982 -0.5288
  206MOL    C6349673   2.704   4.788   5.463 -0.3078  0.1892  0.1414
  206MOL    C6449674   2.701   4.747   5.313 -0.3638  0.1541 -0.0248
  206MOL    C6549675   2.571   4.808   5.526  0.3339  0.0443  0.2763
  206MOL    C6649676   2.483   4.911   5.448  0.6349 -0.1999 -0.0058
  206MOL    O6749677   2.376   4.878   5.400  0.8805  0.2568 -0.1727
  206MOL    H6849678   2.753   4.885   5.453 -0.2477 -0.0472 -2.2796
  206MOL    H6949679   2.792   4.772   5.260 -0.7939  0.5991 -0.5565
  206MOL    H7049680   2.629   4.798   5.249 -0.2062 -1.3928 -1.4624
  206MOL    H7149681   2.682   4.640   5.304  0.5737 -0.3195  3.0606
  206MOL    H7249682   2.573   4.826   5.633 -2.6856 -0.4090  0.4545
  206MOL    H7349683   2.515   4.716   5.507 -1.1142  0.8854  0.4177
  206MOL    O7449684   2.521   5.030   5.464  0.7011 -0.0065  0.0567
  206MOL    C7549685   2.461   5.141   5.397 -0.0039 -0.5268 -0.3763
  206MOL    C7649686   2.416   5.243   5.502 -0.3098 -0.4245 -0.7688
  206MOL    C7749687   2.567   5.213   5.310  0.3315 -0.1586  0.3323
  206MOL    C7849688   2.593   5.140   5.178  0.2628  0.1516  0.3428
  206MOL    O7949689   2.575   5.019   5.164 -0.0657  0.4424  0.0146
  206MOL    H8049690   2.369   5.107   5.350 -1.2866  0.3788  1.4113
  206MOL    H8149691   2.348   5.315   5.456  0.7719  1.2832  0.2115
  206MOL    H8249692   2.498   5.306   5.538 -0.6999 -0.2394 -0.1924
  206MOL    H8349693   2.375   5.187   5.586  0.7412 -1.0271 -0.6513
  206MOL    H8449694   2.653   5.216   5.376  1.5396 -1.9757 -1.1032
  206MOL    H8549695   2.545   5.318   5.290  0.4181  0.0092  1.1037
  206MOL    O8649696   2.667   5.214   5.095  0.0206 -0.0608 -0.4779
  206MOL    C8749697   2.699   5.171   4.962 -0.8465  0.4989 -0.1681
  206MOL    C8849698   2.743   5.296   4.888 -0.3287 -0.5681 -0.7120
  206MOL    C8949699   2.797   5.055   4.973  0.4637  0.6612 -0.3852
  206MOL    C9049700   2.806   4.970   4.847  0.8639 -0.0182 -0.0320
  206MOL    O9149701   2.897   4.980   4.762 -0.4577 -0.3385  0.4730
  206MOL    H9249702   2.610   5.123   4.922 -1.5195  1.8446 -0.2810
  206MOL    H9349703   2.664   5.371   4.897  1.5585  1.5292 -1.3358
  206MOL    H9449704   2.758   5.275   4.782  0.5998  2.9726 -1.3428
  206MOL    H9549705   2.831   5.338   4.936 -0.2759  0.1754 -1.4537
  206MOL    H9649706   2.799   4.995   5.064  0.4573  0.1148 -0.7391
  206MOL    H9749707   2.890   5.110   4.979  0.9488  0.2300 -3.1976
  206MOL    O9849708   2.707   4.878   4.842 -0.4498 -0.4326  0.0364
  206MOL    C9949709   2.673   4.812   4.721  0.5792  0.0501 -0.0271
  206MOL   C10049710   2.697   4.657   4.746 -0.3640 -0.2796  0.3054
  206MOL   C10149711   2.520   4.836   4.683  0.4704  0.2498 -0.7649
  206MOL   C10249712   2.513   4.970   4.618  0.2544 -0.3420  0.3317
  206MOL   O10349713   2.485   5.068   4.685  0.3809 -0.4798  0.2058
  206MOL   H10449714   2.731   4.845   4.635 -0.2909  2.1438  0.1600
  206MOL   H10549715   2.800   4.636   4.774 -0.8494  0.1509  2.5159
  206MOL   H10649716   2.671   4.596   4.660 -0.6373 -3.2162  2.4244
  206MOL   H10749717   2.643   4.618   4.832  0.9574  0.4577  1.4702
  206MOL   H10849718   2.453   4.834   4.769  0.6598 -2.5766 -0.6392
  206MOL   H10949719   2.493   4.756   4.614 -0.4889  0.8460 -1.0903
  206MOL   O11049720   2.540   4.971   4.481  0.0252 -0.2504  0.5637
  206MOL   C11149721   2.546   5.088   4.398 -0.2249  0.0310 -0.4974
  206MOL   C11249722   2.402   5.134   4.382 -0.3195 -0.6206  0.5134
  206MOL   C11349723   2.647   5.193   4.458  0.1812  0.3389 -0.2330
  206MOL   C11449724   2.672   5.307   4.368  0.1943 -1.0766 -0.4530
  206MOL   O11549725   2.640   5.423   4.391 -0.1938 -0.1423  0.1662
  206MOL   H11649726   2.583   5.051   4.303  0.8280 -1.0895  0.3169
  206MOL   H11749727   2.396   5.239   4.354 -2.1111 -0.1676  2.4631
  206MOL   H11849728   2.336   5.129   4.469 -1.6899 -0.9586 -0.5321
  206MOL   H11949729   2.360   5.079   4.298 -0.0444 -1.2020  0.7523
  206MOL   H12049730   2.749   5.164   4.483 -0.0618 -2.1956 -2.0251
  206MOL   H12149731   2.603   5.235   4.548  0.2531  1.5579 -0.7537
  206MOL   O12249732   2.752   5.268   4.273 -0.6498  0.1938  0.1795
  206MOL   C12349733   2.784   5.342   4.160 -0.8973 -0.0584 -0.2980
  206MOL   C12449734   2.925   5.314   4.105 -0.4116 -0.6679 -1.0352
  206MOL   C12549735   2.682   5.303   4.047  0.6840 -0.7278 -0.0449
  206MOL   C12649736   2.575   5.413   4.033  0.6902 -0.8467  0.5254
  206MOL   O12749737   2.584   5.501   3.942 -0.2629  0.1235  0.2074
  206MOL   H12849738   2.775   5.448   4.184 -2.8162 -0.4434  0.7572
  206MOL   H12949739   2.939   5.206   4.093 -0.6080 -0.8003 -0.0949
  206MOL   H13049740   3.001   5.345   4.177 -1.4267 -0.2657 -0.1301
  206MOL   H13149741   2.953   5.370   4.016  0.5150  0.3913 -0.0807
  206MOL   H13249742   2.650   5.199   4.045 -1.7634 -0.0070  0.5497
  206MOL   H13349743   2.736   5.311   3.952 -0.6266 -3.0026 -1.0204
  206MOL   O13449744   2.475   5.408   4.125  0.1762 -0.5224 -0.2393
  206MOL   C13549745   2.366   5.500   4.123  0.5048 -0.0928 -1.1585
  206MOL   C13649746   2.258   5.440   4.025  0.5643 -0.0092  0.5521
  206MOL   C13749747   2.317   5.515   4.268  0.4857 -0.2559 -0.8190
  206MOL   C13849748   2.211   5.619   4.289  0.5043  0.0437 -0.3910
  206MOL   O13949749   2.097   5.582   4.327 -0.4358  0.3877  0.3818
  206MOL   H14049750   2.396   5.596   4.080  1.3960  0.6724  1.0887
  206MOL   H14149751   2.166   5.498   4.025  1.4185  1.3917 -1.1832
  206MOL   H14249752   2.230   5.341   4.062  1.8958  0.3200  2.4981
  206MOL   H14349753   2.286   5.429   3.920 -0.3896 -0.8260  0.3686
  206MOL   H14449754   2.402   5.536   4.332  0.2703  0.1536 -0.6657
  206MOL   H14549755   2.275   5.416   4.287 -0.7720  0.1862 -1.2271
  206MOL   O14649756   2.264   5.739   4.269  0.0630 -0.2807  0.5143
  206MOL   C14749757   2.191   5.845   4.304  0.0535 -0.1539 -0.5812
  206MOL   C14849758   2.294   5.956   4.338 -0.3337 -0.1836 -0.5852
  206MOL   C14949759   2.098   5.883   4.188  0.4932 -1.1754 -0.4338
  206MOL   C15049760   2.155   5.937   4.059  0.0091 -0.4617 -1.2151
  206MOL   O15149761   2.155   6.058   4.035 -0.0116  0.2603  0.8482
  206MOL   H15249762   2.136   5.824   4.395  1.1478 -0.6115 -0.0100
  206MOL   H15349763   2.338   6.009   4.253  1.1224 -0.5047 -0.0479
  206MOL   H15449764   2.366   5.917   4.409 -0.4235  0.2042 -0.2779
  206MOL   H15549765   2.241   6.041   4.381  0.3404  0.3153 -0.7175
  206MOL   H15649766   2.023   5.951   4.230  0.6101 -0.9176 -0.6457
  206MOL   H15749767   2.031   5.798   4.175 -1.7940  0.4407  0.4276
  206MOL   O15849768   2.205   5.838   3.986 -0.3342  0.8301  0.1097
  206MOL   C15949769   2.272   5.860   3.862  0.9634 -0.1665  0.0217
  206MOL   C16049770   2.418   5.888   3.888 -0.3162 -0.2059  0.4102
  206MOL   C16149771   2.243   5.735   3.771  0.7294 -0.1610  1.0743
  206MOL   C16249772   2.101   5.729   3.723 -0.0032 -0.7026 -0.0589
  206MOL   O16349773   2.051   5.836   3.681  0.3291  0.7424 -0.8928
  206MOL   H16449774   2.223   5.944   3.812  0.5569 -0.1910  0.3796
  206MOL   H16549775   2.461   5.804   3.942 -0.5322 -0.5809 -0.0009
  206MOL   H16649776   2.423   5.979   3.947 -1.2574 -0.2572  0.5862
  206MOL   H16749777   2.473   5.897   3.794  0.0268 -0.7377  0.5579
  206MOL   H16849778   2.267   5.638   3.814 -1.0386 -1.2022 -0.2122
  206MOL   H16949779   2.309   5.745   3.685 -1.6988  0.6201 -0.7540
  206MOL   O17049780   2.040   5.610   3.723  0.2683 -0.0109 -0.1357
  206MOL   C17149781   1.915   5.603   3.660 -0.2624 -0.1718 -0.2904
  206MOL   C17249782   1.901   5.481   3.570 -0.0498  0.1856  0.5220
  206MOL   C17349783   1.808   5.622   3.772 -0.3872 -0.6308 -0.1225
  206MOL   C17449784   1.783   5.508   3.862  0.3177  0.6745  0.1985
  206MOL   O17549785   1.849   5.486   3.964  0.3403  0.3309 -0.7285
  206MOL   H17649786   1.897   5.682   3.587  1.8536 -0.9289 -1.6544
  206MOL   H17749787   1.991   5.485   3.509 -1.4504  0.5520 -1.5775
  206MOL   H17849788   1.821   5.495   3.497 -0.8921 -2.9949  0.7553
  206MOL   H17949789   1.883   5.391   3.629  0.9149 -0.9069 -0.8186
  206MOL   H18049790   1.714   5.652   3.726  0.0179 -0.7748 -1.0616
  206MOL   H18149791   1.821   5.710   3.836 -2.0332  0.0155 -0.6562
  206MOL   O18249792   1.679   5.438   3.817 -0.3561 -0.5487 -0.3245
  206MOL   C18349793   1.630   5.340   3.899  0.5743 -0.1524 -0.7069
  206MOL   C18449794   1.483   5.371   3.937  0.1267 -0.2386 -0.6349
  206MOL   C18549795   1.624   5.204   3.815  0.1446 -0.8181 -0.1019
  206MOL   C18649796   1.740   5.118   3.802 -0.1391  0.7591  0.3457
  206MOL   O18749797   1.750   5.013   3.867 -0.0191 -0.0255 -0.1805
  206MOL   H18849798   1.678   5.342   3.996 -2.0288 -0.1282  0.6131
  206MOL   H18949799   1.433   5.289   3.989 -1.4870  0.0692 -1.6653
  206MOL   H19049800   1.422   5.383   3.847 -2.4211  1.7139  1.2577
  206MOL   H19149801   1.479   5.460   4.000  0.6919  0.9960 -2.3266
  206MOL   H19249802   1.580   5.231   3.718 -0.5014  0.1753  0.4603
  206MOL   H19349803   1.554   5.136   3.864  0.3834 -0.3151  0.9460
  206MOL   O19449804   1.844   5.167   3.724 -0.0023  0.3942  0.2232
  206MOL   C19549805   1.969   5.099   3.729  0.1370  0.2285  0.5918
  206MOL   C19649806   2.019   5.103   3.579  0.3644  0.0119 -0.7891
  206MOL   C19749807   2.074   5.173   3.826  0.2401  0.4993 -0.9431
  206MOL   C19849808   2.066   5.130   3.973 -0.6966 -0.2559  0.4572
  206MOL   O19949809   2.156   5.051   4.017  0.3197 -0.1506 -0.5773
  206MOL   H20049810   1.951   4.995   3.758 -1.4064  0.2920 -0.0927
  206MOL   H20149811   2.124   5.075   3.566  1.2679  2.0470  1.6897
  206MOL   H20249812   2.024   5.204   3.536  0.5208  0.8651  1.1820
  206MOL   H20349813   1.952   5.043   3.518  1.7640 -1.0482 -1.3345
  206MOL   H20449814   2.047   5.278   3.813 -0.0793  0.4222 -0.9099
  206MOL   H20549815   2.173   5.148   3.787  0.4816 -0.3907  0.2147
  206MOL   O20649816   1.956   5.168   4.045  0.0364  0.0708 -0.2078
  206MOL   C20749817   1.952   5.128   4.184  0.0627  0.2107  0.1647
  206MOL   C20849818   1.870   5.237   4.251 -0.0502 -0.2383 -0.1586
  206MOL   C20949819   1.895   4.984   4.189  0.1596 -0.0091 -0.3995
  206MOL   C21049820   1.890   4.916   4.331  0.2784  0.1689  0.2539
  206MOL   O21149821   1.818   4.815   4.346 -0.3176 -0.5941 -0.3069
  206MOL   H21249822   2.053   5.134   4.224  1.4494 -0.6055 -3.0487
  206MOL   H21349823   1.915   5.335   4.241 -0.5075  0.0465  0.5490
  206MOL   H21449824   1.862   5.230   4.360 -1.9027  1.8386 -0.1114
  206MOL   H21549825   1.772   5.248   4.205  1.0851 -0.4247 -2.6849
  206MOL   H21649826   1.966   4.930   4.126 -0.1968  1.7044 -2.3293
  206MOL   H21749827   1.804   4.961   4.133 -0.2234 -0.9763  0.6046
  206MOL   O21849828   1.989   4.962   4.421  0.8648  0.0469 -0.3344
  206MOL   C21949829   2.010   4.892   4.542 -0.2441 -0.0485 -0.1903
  206MOL   C22049830   2.142   4.821   4.525 -0.7035 -0.1477 -0.1485
  206MOL   C22149831   2.030   5.003   4.648 -0.5840  0.3141  0.4809
  206MOL   C22249832   1.904   5.076   4.696  0.4940  0.5502  0.2867
  206MOL   O22349833   1.793   5.032   4.667  0.3723 -0.2584 -0.1881
  206MOL   H22449834   1.925   4.828   4.565  0.1717 -0.9564 -1.1199
  206MOL   H22549835   2.180   4.767   4.611  0.9053  0.9960 -0.1139
  206MOL   H22649836   2.214   4.892   4.485  0.7339 -0.8034  1.2178
  206MOL   H22749837   2.130   4.747   4.446 -0.2887 -0.0813 -0.2750
  206MOL   H22849838   2.080   5.089   4.605  3.4650 -1.9885  0.4297
  206MOL   H22949839   2.096   4.975   4.730  1.6281  0.3047 -1.2816
  206MOL   O23049840   1.927   5.192   4.755 -0.2101 -0.2318 -0.4007
  206MOL   C23149841   1.819   5.282   4.773 -0.6715 -0.3067 -0.3029
  206MOL   C23249842   1.750   5.250   4.907  0.7361  0.1503 -0.5756
  206MOL   C23349843   1.870   5.422   4.782 -0.3210 -0.7109  0.4534
  206MOL   C23449844   1.936   5.470   4.651  0.5282  0.0737  0.2079
  206MOL   O23549845   1.920   5.584   4.609 -0.3522  0.3760 -0.0011
  206MOL   H23649846   1.744   5.285   4.695  0.1837  2.9925 -1.0764
  206MOL   H23749847   1.803   5.271   5.000  0.2592 -1.3311  0.0407
  206MOL   H23849848   1.722   5.145   4.904 -2.8069  1.0647 -2.0475
  206MOL   H23949849   1.655   5.302   4.915  1.8138  1.9803  0.5228
  206MOL   H24049850   1.929   5.431   4.874 -0.4764 -0.6306  0.5445
  206MOL   H24149851   1.795   5.497   4.804 -0.0470 -0.6979  1.3616
  206MOL   H24249852   2.005   5.401   4.602 -1.1814 -1.2391 -0.4448
   7.97978   7.97978   7.97978
