;
; Gromacs include topology (itp) file.
; For Molecular Group XYZ
; Force field scheme: opls2005
; Produced from DL_FIELD v4.11
;


[ moleculetype ]
; name    nrexcl
XYZ    3

[ atoms ]
; nr   type   resnr   residu    atom    cgnr    charge    mass
    1       OAL    1  MOL      O1     1  -0.6830000   15.9994
    2        CT    1  MOL      C2     2   0.2050000   12.0115
    3        CT    1  MOL      C3     3  -0.1800000   12.0115
    4        CT    1  MOL      C4     4  -0.1200000   12.0115
    5       CO4    1  MOL      C5     5   0.5100000   12.0115
    6         O    1  MOL      O6     6  -0.4300000   15.9994
    7        HC    1  MOL      H7     7   0.0600000    1.0080
    8        HC    1  MOL      H8     8   0.0600000    1.0080
    9        HC    1  MOL      H9     9   0.0600000    1.0080
   10        HC    1  MOL     H10    10   0.0600000    1.0080
   11       HAE    1  MOL     H11    11   0.0600000    1.0080
   12       HAE    1  MOL     H12    12   0.0600000    1.0080
   13        HO    1  MOL     H13    13   0.4180000    1.0080
   14       OES    1  MOL     O14    14  -0.3300000   15.9994
   15        CT    1  MOL     C15    15   0.2200000   12.0115
   16        CT    1  MOL     C16    16  -0.1800000   12.0115
   17        CT    1  MOL     C17    17  -0.1200000   12.0115
   18       CO4    1  MOL     C18    18   0.5100000   12.0115
   19         O    1  MOL     O19    19  -0.4300000   15.9994
   20       HAE    1  MOL     H20    20   0.0300000    1.0080
   21        HC    1  MOL     H21    21   0.0600000    1.0080
   22        HC    1  MOL     H22    22   0.0600000    1.0080
   23        HC    1  MOL     H23    23   0.0600000    1.0080
   24       HAE    1  MOL     H24    24   0.0600000    1.0080
   25       HAE    1  MOL     H25    25   0.0600000    1.0080
   26       OES    1  MOL     O26    26  -0.3300000   15.9994
   27        CT    1  MOL     C27    27   0.2200000   12.0115
   28        CT    1  MOL     C28    28  -0.1800000   12.0115
   29        CT    1  MOL     C29    29  -0.1200000   12.0115
   30       CO4    1  MOL     C30    30   0.5100000   12.0115
   31         O    1  MOL     O31    31  -0.4300000   15.9994
   32       HAE    1  MOL     H32    32   0.0300000    1.0080
   33        HC    1  MOL     H33    33   0.0600000    1.0080
   34        HC    1  MOL     H34    34   0.0600000    1.0080
   35        HC    1  MOL     H35    35   0.0600000    1.0080
   36       HAE    1  MOL     H36    36   0.0600000    1.0080
   37       HAE    1  MOL     H37    37   0.0600000    1.0080
   38       OES    1  MOL     O38    38  -0.3300000   15.9994
   39        CT    1  MOL     C39    39   0.2200000   12.0115
   40        CT    1  MOL     C40    40  -0.1800000   12.0115
   41        CT    1  MOL     C41    41  -0.1200000   12.0115
   42       CO4    1  MOL     C42    42   0.5100000   12.0115
   43         O    1  MOL     O43    43  -0.4300000   15.9994
   44       HAE    1  MOL     H44    44   0.0300000    1.0080
   45        HC    1  MOL     H45    45   0.0600000    1.0080
   46        HC    1  MOL     H46    46   0.0600000    1.0080
   47        HC    1  MOL     H47    47   0.0600000    1.0080
   48       HAE    1  MOL     H48    48   0.0600000    1.0080
   49       HAE    1  MOL     H49    49   0.0600000    1.0080
   50       OES    1  MOL     O50    50  -0.3300000   15.9994
   51        CT    1  MOL     C51    51   0.2200000   12.0115
   52        CT    1  MOL     C52    52  -0.1800000   12.0115
   53        CT    1  MOL     C53    53  -0.1200000   12.0115
   54       CO4    1  MOL     C54    54   0.5100000   12.0115
   55         O    1  MOL     O55    55  -0.4300000   15.9994
   56       HAE    1  MOL     H56    56   0.0300000    1.0080
   57        HC    1  MOL     H57    57   0.0600000    1.0080
   58        HC    1  MOL     H58    58   0.0600000    1.0080
   59        HC    1  MOL     H59    59   0.0600000    1.0080
   60       HAE    1  MOL     H60    60   0.0600000    1.0080
   61       HAE    1  MOL     H61    61   0.0600000    1.0080
   62       OES    1  MOL     O62    62  -0.3300000   15.9994
   63        CT    1  MOL     C63    63   0.2200000   12.0115
   64        CT    1  MOL     C64    64  -0.1800000   12.0115
   65        CT    1  MOL     C65    65  -0.1200000   12.0115
   66       CO4    1  MOL     C66    66   0.5100000   12.0115
   67         O    1  MOL     O67    67  -0.4300000   15.9994
   68       HAE    1  MOL     H68    68   0.0300000    1.0080
   69        HC    1  MOL     H69    69   0.0600000    1.0080
   70        HC    1  MOL     H70    70   0.0600000    1.0080
   71        HC    1  MOL     H71    71   0.0600000    1.0080
   72       HAE    1  MOL     H72    72   0.0600000    1.0080
   73       HAE    1  MOL     H73    73   0.0600000    1.0080
   74       OES    1  MOL     O74    74  -0.3300000   15.9994
   75        CT    1  MOL     C75    75   0.2200000   12.0115
   76        CT    1  MOL     C76    76  -0.1800000   12.0115
   77        CT    1  MOL     C77    77  -0.1200000   12.0115
   78       CO4    1  MOL     C78    78   0.5100000   12.0115
   79         O    1  MOL     O79    79  -0.4300000   15.9994
   80       HAE    1  MOL     H80    80   0.0300000    1.0080
   81        HC    1  MOL     H81    81   0.0600000    1.0080
   82        HC    1  MOL     H82    82   0.0600000    1.0080
   83        HC    1  MOL     H83    83   0.0600000    1.0080
   84       HAE    1  MOL     H84    84   0.0600000    1.0080
   85       HAE    1  MOL     H85    85   0.0600000    1.0080
   86       OES    1  MOL     O86    86  -0.3300000   15.9994
   87        CT    1  MOL     C87    87   0.2200000   12.0115
   88        CT    1  MOL     C88    88  -0.1800000   12.0115
   89        CT    1  MOL     C89    89  -0.1200000   12.0115
   90       CO4    1  MOL     C90    90   0.5100000   12.0115
   91         O    1  MOL     O91    91  -0.4300000   15.9994
   92       HAE    1  MOL     H92    92   0.0300000    1.0080
   93        HC    1  MOL     H93    93   0.0600000    1.0080
   94        HC    1  MOL     H94    94   0.0600000    1.0080
   95        HC    1  MOL     H95    95   0.0600000    1.0080
   96       HAE    1  MOL     H96    96   0.0600000    1.0080
   97       HAE    1  MOL     H97    97   0.0600000    1.0080
   98       OES    1  MOL     O98    98  -0.3300000   15.9994
   99        CT    1  MOL     C99    99   0.2200000   12.0115
  100        CT    1  MOL    C100   100  -0.1800000   12.0115
  101        CT    1  MOL    C101   101  -0.1200000   12.0115
  102       CO4    1  MOL    C102   102   0.5100000   12.0115
  103         O    1  MOL    O103   103  -0.4300000   15.9994
  104       HAE    1  MOL    H104   104   0.0300000    1.0080
  105        HC    1  MOL    H105   105   0.0600000    1.0080
  106        HC    1  MOL    H106   106   0.0600000    1.0080
  107        HC    1  MOL    H107   107   0.0600000    1.0080
  108       HAE    1  MOL    H108   108   0.0600000    1.0080
  109       HAE    1  MOL    H109   109   0.0600000    1.0080
  110       OES    1  MOL    O110   110  -0.3300000   15.9994
  111        CT    1  MOL    C111   111   0.2200000   12.0115
  112        CT    1  MOL    C112   112  -0.1800000   12.0115
  113        CT    1  MOL    C113   113  -0.1200000   12.0115
  114       CO4    1  MOL    C114   114   0.5100000   12.0115
  115         O    1  MOL    O115   115  -0.4300000   15.9994
  116       HAE    1  MOL    H116   116   0.0300000    1.0080
  117        HC    1  MOL    H117   117   0.0600000    1.0080
  118        HC    1  MOL    H118   118   0.0600000    1.0080
  119        HC    1  MOL    H119   119   0.0600000    1.0080
  120       HAE    1  MOL    H120   120   0.0600000    1.0080
  121       HAE    1  MOL    H121   121   0.0600000    1.0080
  122       OES    1  MOL    O122   122  -0.3300000   15.9994
  123        CT    1  MOL    C123   123   0.2200000   12.0115
  124        CT    1  MOL    C124   124  -0.1800000   12.0115
  125        CT    1  MOL    C125   125  -0.1200000   12.0115
  126       CO4    1  MOL    C126   126   0.5100000   12.0115
  127         O    1  MOL    O127   127  -0.4300000   15.9994
  128       HAE    1  MOL    H128   128   0.0300000    1.0080
  129        HC    1  MOL    H129   129   0.0600000    1.0080
  130        HC    1  MOL    H130   130   0.0600000    1.0080
  131        HC    1  MOL    H131   131   0.0600000    1.0080
  132       HAE    1  MOL    H132   132   0.0600000    1.0080
  133       HAE    1  MOL    H133   133   0.0600000    1.0080
  134       OES    1  MOL    O134   134  -0.3300000   15.9994
  135        CT    1  MOL    C135   135   0.2200000   12.0115
  136        CT    1  MOL    C136   136  -0.1800000   12.0115
  137        CT    1  MOL    C137   137  -0.1200000   12.0115
  138       CO4    1  MOL    C138   138   0.5100000   12.0115
  139         O    1  MOL    O139   139  -0.4300000   15.9994
  140       HAE    1  MOL    H140   140   0.0300000    1.0080
  141        HC    1  MOL    H141   141   0.0600000    1.0080
  142        HC    1  MOL    H142   142   0.0600000    1.0080
  143        HC    1  MOL    H143   143   0.0600000    1.0080
  144       HAE    1  MOL    H144   144   0.0600000    1.0080
  145       HAE    1  MOL    H145   145   0.0600000    1.0080
  146       OES    1  MOL    O146   146  -0.3300000   15.9994
  147        CT    1  MOL    C147   147   0.2200000   12.0115
  148        CT    1  MOL    C148   148  -0.1800000   12.0115
  149        CT    1  MOL    C149   149  -0.1200000   12.0115
  150       CO4    1  MOL    C150   150   0.5100000   12.0115
  151         O    1  MOL    O151   151  -0.4300000   15.9994
  152       HAE    1  MOL    H152   152   0.0300000    1.0080
  153        HC    1  MOL    H153   153   0.0600000    1.0080
  154        HC    1  MOL    H154   154   0.0600000    1.0080
  155        HC    1  MOL    H155   155   0.0600000    1.0080
  156       HAE    1  MOL    H156   156   0.0600000    1.0080
  157       HAE    1  MOL    H157   157   0.0600000    1.0080
  158       OES    1  MOL    O158   158  -0.3300000   15.9994
  159        CT    1  MOL    C159   159   0.2200000   12.0115
  160        CT    1  MOL    C160   160  -0.1800000   12.0115
  161        CT    1  MOL    C161   161  -0.1200000   12.0115
  162       CO4    1  MOL    C162   162   0.5100000   12.0115
  163         O    1  MOL    O163   163  -0.4300000   15.9994
  164       HAE    1  MOL    H164   164   0.0300000    1.0080
  165        HC    1  MOL    H165   165   0.0600000    1.0080
  166        HC    1  MOL    H166   166   0.0600000    1.0080
  167        HC    1  MOL    H167   167   0.0600000    1.0080
  168       HAE    1  MOL    H168   168   0.0600000    1.0080
  169       HAE    1  MOL    H169   169   0.0600000    1.0080
  170       OES    1  MOL    O170   170  -0.3300000   15.9994
  171        CT    1  MOL    C171   171   0.2200000   12.0115
  172        CT    1  MOL    C172   172  -0.1800000   12.0115
  173        CT    1  MOL    C173   173  -0.1200000   12.0115
  174       CO4    1  MOL    C174   174   0.5100000   12.0115
  175         O    1  MOL    O175   175  -0.4300000   15.9994
  176       HAE    1  MOL    H176   176   0.0300000    1.0080
  177        HC    1  MOL    H177   177   0.0600000    1.0080
  178        HC    1  MOL    H178   178   0.0600000    1.0080
  179        HC    1  MOL    H179   179   0.0600000    1.0080
  180       HAE    1  MOL    H180   180   0.0600000    1.0080
  181       HAE    1  MOL    H181   181   0.0600000    1.0080
  182       OES    1  MOL    O182   182  -0.3300000   15.9994
  183        CT    1  MOL    C183   183   0.2200000   12.0115
  184        CT    1  MOL    C184   184  -0.1800000   12.0115
  185        CT    1  MOL    C185   185  -0.1200000   12.0115
  186       CO4    1  MOL    C186   186   0.5100000   12.0115
  187         O    1  MOL    O187   187  -0.4300000   15.9994
  188       HAE    1  MOL    H188   188   0.0300000    1.0080
  189        HC    1  MOL    H189   189   0.0600000    1.0080
  190        HC    1  MOL    H190   190   0.0600000    1.0080
  191        HC    1  MOL    H191   191   0.0600000    1.0080
  192       HAE    1  MOL    H192   192   0.0600000    1.0080
  193       HAE    1  MOL    H193   193   0.0600000    1.0080
  194       OES    1  MOL    O194   194  -0.3300000   15.9994
  195        CT    1  MOL    C195   195   0.2200000   12.0115
  196        CT    1  MOL    C196   196  -0.1800000   12.0115
  197        CT    1  MOL    C197   197  -0.1200000   12.0115
  198       CO4    1  MOL    C198   198   0.5100000   12.0115
  199         O    1  MOL    O199   199  -0.4300000   15.9994
  200       HAE    1  MOL    H200   200   0.0300000    1.0080
  201        HC    1  MOL    H201   201   0.0600000    1.0080
  202        HC    1  MOL    H202   202   0.0600000    1.0080
  203        HC    1  MOL    H203   203   0.0600000    1.0080
  204       HAE    1  MOL    H204   204   0.0600000    1.0080
  205       HAE    1  MOL    H205   205   0.0600000    1.0080
  206       OES    1  MOL    O206   206  -0.3300000   15.9994
  207        CT    1  MOL    C207   207   0.2200000   12.0115
  208        CT    1  MOL    C208   208  -0.1800000   12.0115
  209        CT    1  MOL    C209   209  -0.1200000   12.0115
  210       CO4    1  MOL    C210   210   0.5100000   12.0115
  211         O    1  MOL    O211   211  -0.4300000   15.9994
  212       HAE    1  MOL    H212   212   0.0300000    1.0080
  213        HC    1  MOL    H213   213   0.0600000    1.0080
  214        HC    1  MOL    H214   214   0.0600000    1.0080
  215        HC    1  MOL    H215   215   0.0600000    1.0080
  216       HAE    1  MOL    H216   216   0.0600000    1.0080
  217       HAE    1  MOL    H217   217   0.0600000    1.0080
  218       OES    1  MOL    O218   218  -0.3300000   15.9994
  219        CT    1  MOL    C219   219   0.2200000   12.0115
  220        CT    1  MOL    C220   220  -0.1800000   12.0115
  221        CT    1  MOL    C221   221  -0.1200000   12.0115
  222       CO4    1  MOL    C222   222   0.5100000   12.0115
  223         O    1  MOL    O223   223  -0.4300000   15.9994
  224       HAE    1  MOL    H224   224   0.0300000    1.0080
  225        HC    1  MOL    H225   225   0.0600000    1.0080
  226        HC    1  MOL    H226   226   0.0600000    1.0080
  227        HC    1  MOL    H227   227   0.0600000    1.0080
  228       HAE    1  MOL    H228   228   0.0600000    1.0080
  229       HAE    1  MOL    H229   229   0.0600000    1.0080
  230       OES    1  MOL    O230   230  -0.3300000   15.9994
  231        CT    1  MOL    C231   231   0.2200000   12.0115
  232        CT    1  MOL    C232   232  -0.1800000   12.0115
  233        CT    1  MOL    C233   233  -0.1200000   12.0115
  234       CO4    1  MOL    C234   234   0.4500000   12.0115
  235         O    1  MOL    O235   235  -0.4500000   15.9994
  236       HAE    1  MOL    H236   236   0.0300000    1.0080
  237        HC    1  MOL    H237   237   0.0600000    1.0080
  238        HC    1  MOL    H238   238   0.0600000    1.0080
  239        HC    1  MOL    H239   239   0.0600000    1.0080
  240       HAE    1  MOL    H240   240   0.0600000    1.0080
  241       HAE    1  MOL    H241   241   0.0600000    1.0080
  242       HAE    1  MOL    H242   242   0.0000000    1.0080

[ bonds ]
      1      2   1      0.1410 267776.0000
      1     13   1      0.0945 462750.4000
      2      3   1      0.1529 224262.4000
      2      4   1      0.1529 224262.4000
      2      7   1      0.1090 284512.0000
      3      8   1      0.1090 284512.0000
      3      9   1      0.1090 284512.0000
      3     10   1      0.1090 284512.0000
      4      5   1      0.1522 265265.6000
      4     11   1      0.1090 284512.0000
      4     12   1      0.1090 284512.0000
      5      6   1      0.1229 476976.0000
      5     14   1      0.1327 179075.2000
     14     15   1      0.1410 267776.0000
     15     16   1      0.1529 224262.4000
     15     17   1      0.1529 224262.4000
     15     20   1      0.1090 284512.0000
     16     21   1      0.1090 284512.0000
     16     22   1      0.1090 284512.0000
     16     23   1      0.1090 284512.0000
     17     18   1      0.1522 265265.6000
     17     24   1      0.1090 284512.0000
     17     25   1      0.1090 284512.0000
     18     19   1      0.1229 476976.0000
     18     26   1      0.1327 179075.2000
     26     27   1      0.1410 267776.0000
     27     28   1      0.1529 224262.4000
     27     29   1      0.1529 224262.4000
     27     32   1      0.1090 284512.0000
     28     33   1      0.1090 284512.0000
     28     34   1      0.1090 284512.0000
     28     35   1      0.1090 284512.0000
     29     30   1      0.1522 265265.6000
     29     36   1      0.1090 284512.0000
     29     37   1      0.1090 284512.0000
     30     31   1      0.1229 476976.0000
     30     38   1      0.1327 179075.2000
     38     39   1      0.1410 267776.0000
     39     40   1      0.1529 224262.4000
     39     41   1      0.1529 224262.4000
     39     44   1      0.1090 284512.0000
     40     45   1      0.1090 284512.0000
     40     46   1      0.1090 284512.0000
     40     47   1      0.1090 284512.0000
     41     42   1      0.1522 265265.6000
     41     48   1      0.1090 284512.0000
     41     49   1      0.1090 284512.0000
     42     43   1      0.1229 476976.0000
     42     50   1      0.1327 179075.2000
     50     51   1      0.1410 267776.0000
     51     52   1      0.1529 224262.4000
     51     53   1      0.1529 224262.4000
     51     56   1      0.1090 284512.0000
     52     57   1      0.1090 284512.0000
     52     58   1      0.1090 284512.0000
     52     59   1      0.1090 284512.0000
     53     54   1      0.1522 265265.6000
     53     60   1      0.1090 284512.0000
     53     61   1      0.1090 284512.0000
     54     55   1      0.1229 476976.0000
     54     62   1      0.1327 179075.2000
     62     63   1      0.1410 267776.0000
     63     64   1      0.1529 224262.4000
     63     65   1      0.1529 224262.4000
     63     68   1      0.1090 284512.0000
     64     69   1      0.1090 284512.0000
     64     70   1      0.1090 284512.0000
     64     71   1      0.1090 284512.0000
     65     66   1      0.1522 265265.6000
     65     72   1      0.1090 284512.0000
     65     73   1      0.1090 284512.0000
     66     67   1      0.1229 476976.0000
     66     74   1      0.1327 179075.2000
     74     75   1      0.1410 267776.0000
     75     76   1      0.1529 224262.4000
     75     77   1      0.1529 224262.4000
     75     80   1      0.1090 284512.0000
     76     81   1      0.1090 284512.0000
     76     82   1      0.1090 284512.0000
     76     83   1      0.1090 284512.0000
     77     78   1      0.1522 265265.6000
     77     84   1      0.1090 284512.0000
     77     85   1      0.1090 284512.0000
     78     79   1      0.1229 476976.0000
     78     86   1      0.1327 179075.2000
     86     87   1      0.1410 267776.0000
     87     88   1      0.1529 224262.4000
     87     89   1      0.1529 224262.4000
     87     92   1      0.1090 284512.0000
     88     93   1      0.1090 284512.0000
     88     94   1      0.1090 284512.0000
     88     95   1      0.1090 284512.0000
     89     90   1      0.1522 265265.6000
     89     96   1      0.1090 284512.0000
     89     97   1      0.1090 284512.0000
     90     91   1      0.1229 476976.0000
     90     98   1      0.1327 179075.2000
     98     99   1      0.1410 267776.0000
     99    100   1      0.1529 224262.4000
     99    101   1      0.1529 224262.4000
     99    104   1      0.1090 284512.0000
    100    105   1      0.1090 284512.0000
    100    106   1      0.1090 284512.0000
    100    107   1      0.1090 284512.0000
    101    102   1      0.1522 265265.6000
    101    108   1      0.1090 284512.0000
    101    109   1      0.1090 284512.0000
    102    103   1      0.1229 476976.0000
    102    110   1      0.1327 179075.2000
    110    111   1      0.1410 267776.0000
    111    112   1      0.1529 224262.4000
    111    113   1      0.1529 224262.4000
    111    116   1      0.1090 284512.0000
    112    117   1      0.1090 284512.0000
    112    118   1      0.1090 284512.0000
    112    119   1      0.1090 284512.0000
    113    114   1      0.1522 265265.6000
    113    120   1      0.1090 284512.0000
    113    121   1      0.1090 284512.0000
    114    115   1      0.1229 476976.0000
    114    122   1      0.1327 179075.2000
    122    123   1      0.1410 267776.0000
    123    124   1      0.1529 224262.4000
    123    125   1      0.1529 224262.4000
    123    128   1      0.1090 284512.0000
    124    129   1      0.1090 284512.0000
    124    130   1      0.1090 284512.0000
    124    131   1      0.1090 284512.0000
    125    126   1      0.1522 265265.6000
    125    132   1      0.1090 284512.0000
    125    133   1      0.1090 284512.0000
    126    127   1      0.1229 476976.0000
    126    134   1      0.1327 179075.2000
    134    135   1      0.1410 267776.0000
    135    136   1      0.1529 224262.4000
    135    137   1      0.1529 224262.4000
    135    140   1      0.1090 284512.0000
    136    141   1      0.1090 284512.0000
    136    142   1      0.1090 284512.0000
    136    143   1      0.1090 284512.0000
    137    138   1      0.1522 265265.6000
    137    144   1      0.1090 284512.0000
    137    145   1      0.1090 284512.0000
    138    139   1      0.1229 476976.0000
    138    146   1      0.1327 179075.2000
    146    147   1      0.1410 267776.0000
    147    148   1      0.1529 224262.4000
    147    149   1      0.1529 224262.4000
    147    152   1      0.1090 284512.0000
    148    153   1      0.1090 284512.0000
    148    154   1      0.1090 284512.0000
    148    155   1      0.1090 284512.0000
    149    150   1      0.1522 265265.6000
    149    156   1      0.1090 284512.0000
    149    157   1      0.1090 284512.0000
    150    151   1      0.1229 476976.0000
    150    158   1      0.1327 179075.2000
    158    159   1      0.1410 267776.0000
    159    160   1      0.1529 224262.4000
    159    161   1      0.1529 224262.4000
    159    164   1      0.1090 284512.0000
    160    165   1      0.1090 284512.0000
    160    166   1      0.1090 284512.0000
    160    167   1      0.1090 284512.0000
    161    162   1      0.1522 265265.6000
    161    168   1      0.1090 284512.0000
    161    169   1      0.1090 284512.0000
    162    163   1      0.1229 476976.0000
    162    170   1      0.1327 179075.2000
    170    171   1      0.1410 267776.0000
    171    172   1      0.1529 224262.4000
    171    173   1      0.1529 224262.4000
    171    176   1      0.1090 284512.0000
    172    177   1      0.1090 284512.0000
    172    178   1      0.1090 284512.0000
    172    179   1      0.1090 284512.0000
    173    174   1      0.1522 265265.6000
    173    180   1      0.1090 284512.0000
    173    181   1      0.1090 284512.0000
    174    175   1      0.1229 476976.0000
    174    182   1      0.1327 179075.2000
    182    183   1      0.1410 267776.0000
    183    184   1      0.1529 224262.4000
    183    185   1      0.1529 224262.4000
    183    188   1      0.1090 284512.0000
    184    189   1      0.1090 284512.0000
    184    190   1      0.1090 284512.0000
    184    191   1      0.1090 284512.0000
    185    186   1      0.1522 265265.6000
    185    192   1      0.1090 284512.0000
    185    193   1      0.1090 284512.0000
    186    187   1      0.1229 476976.0000
    186    194   1      0.1327 179075.2000
    194    195   1      0.1410 267776.0000
    195    196   1      0.1529 224262.4000
    195    197   1      0.1529 224262.4000
    195    200   1      0.1090 284512.0000
    196    201   1      0.1090 284512.0000
    196    202   1      0.1090 284512.0000
    196    203   1      0.1090 284512.0000
    197    198   1      0.1522 265265.6000
    197    204   1      0.1090 284512.0000
    197    205   1      0.1090 284512.0000
    198    199   1      0.1229 476976.0000
    198    206   1      0.1327 179075.2000
    206    207   1      0.1410 267776.0000
    207    208   1      0.1529 224262.4000
    207    209   1      0.1529 224262.4000
    207    212   1      0.1090 284512.0000
    208    213   1      0.1090 284512.0000
    208    214   1      0.1090 284512.0000
    208    215   1      0.1090 284512.0000
    209    210   1      0.1522 265265.6000
    209    216   1      0.1090 284512.0000
    209    217   1      0.1090 284512.0000
    210    211   1      0.1229 476976.0000
    210    218   1      0.1327 179075.2000
    218    219   1      0.1410 267776.0000
    219    220   1      0.1529 224262.4000
    219    221   1      0.1529 224262.4000
    219    224   1      0.1090 284512.0000
    220    225   1      0.1090 284512.0000
    220    226   1      0.1090 284512.0000
    220    227   1      0.1090 284512.0000
    221    222   1      0.1522 265265.6000
    221    228   1      0.1090 284512.0000
    221    229   1      0.1090 284512.0000
    222    223   1      0.1229 476976.0000
    222    230   1      0.1327 179075.2000
    230    231   1      0.1410 267776.0000
    231    232   1      0.1529 224262.4000
    231    233   1      0.1529 224262.4000
    231    236   1      0.1090 284512.0000
    232    237   1      0.1090 284512.0000
    232    238   1      0.1090 284512.0000
    232    239   1      0.1090 284512.0000
    233    234   1      0.1522 265265.6000
    233    240   1      0.1090 284512.0000
    233    241   1      0.1090 284512.0000
    234    235   1      0.1229 476976.0000
    234    242   1      0.1090 284512.0000

[ pairs ]
; ai   aj   funct   fudge_QQ  charge_i   charge_j   c6    c12
     13      3   2   0.50000     0.4180000   -0.1800000   1.995577e-06  1.069504e-11
     13      4   2   0.50000     0.4180000   -0.1200000   1.995577e-06  1.069504e-11
     13      7   2   0.50000     0.4180000    0.0600000   4.903125e-07  9.576416e-13
      1      8   2   0.50000    -0.6830000    0.0600000   2.835898e-04  1.345781e-07
      1      9   2   0.50000    -0.6830000    0.0600000   2.835898e-04  1.345781e-07
      1     10   2   0.50000    -0.6830000    0.0600000   2.835898e-04  1.345781e-07
      4      8   2   0.50000    -0.1200000    0.0600000   2.494471e-04  1.671101e-07
      4      9   2   0.50000    -0.1200000    0.0600000   2.494471e-04  1.671101e-07
      4     10   2   0.50000    -0.1200000    0.0600000   2.494471e-04  1.671101e-07
      7      8   2   0.50000     0.0600000    0.0600000   6.128906e-05  1.496315e-08
      7      9   2   0.50000     0.0600000    0.0600000   6.128906e-05  1.496315e-08
      7     10   2   0.50000     0.0600000    0.0600000   6.128906e-05  1.496315e-08
      1      5   2   0.50000    -0.6830000    0.5100000   1.790599e-03  2.867847e-06
      1     11   2   0.50000    -0.6830000    0.0600000   1.818870e-04  7.829094e-08
      1     12   2   0.50000    -0.6830000    0.0600000   1.818870e-04  7.829094e-08
      3      5   2   0.50000    -0.1800000    0.5100000   1.575021e-03  3.561100e-06
      3     11   2   0.50000    -0.1800000    0.0600000   1.599888e-04  9.721644e-08
      3     12   2   0.50000    -0.1800000    0.0600000   1.599888e-04  9.721644e-08
      7      5   2   0.50000     0.0600000    0.5100000   3.869820e-04  3.188634e-07
      7     11   2   0.50000     0.0600000    0.0600000   3.930919e-05  8.704828e-09
      7     12   2   0.50000     0.0600000    0.0600000   3.930919e-05  8.704828e-09
      2      6   2   0.50000     0.2050000   -0.4300000   1.095425e-03  1.218041e-06
      2     14   2   0.50000     0.2050000   -0.3300000   1.026091e-03  1.187829e-06
     11      6   2   0.50000     0.0600000   -0.4300000   1.726228e-04  6.344822e-08
     11     14   2   0.50000     0.0600000   -0.3300000   1.616969e-04  6.187447e-08
     12      6   2   0.50000     0.0600000   -0.4300000   1.726228e-04  6.344822e-08
     12     14   2   0.50000     0.0600000   -0.3300000   1.616969e-04  6.187447e-08
      4     15   2   0.50000    -0.1200000    0.2200000   1.015252e-03  1.866303e-06
      6     15   2   0.50000    -0.4300000    0.2200000   1.095425e-03  1.218041e-06
      5     16   2   0.50000     0.5100000   -0.1800000   1.575021e-03  3.561100e-06
      5     17   2   0.50000     0.5100000   -0.1200000   1.575021e-03  3.561100e-06
      5     20   2   0.50000     0.5100000    0.0300000   2.482000e-04  1.854991e-07
     14     21   2   0.50000    -0.3300000    0.0600000   2.521103e-04  1.063590e-07
     14     22   2   0.50000    -0.3300000    0.0600000   2.521103e-04  1.063590e-07
     14     23   2   0.50000    -0.3300000    0.0600000   2.521103e-04  1.063590e-07
     17     21   2   0.50000    -0.1200000    0.0600000   2.494471e-04  1.671101e-07
     17     22   2   0.50000    -0.1200000    0.0600000   2.494471e-04  1.671101e-07
     17     23   2   0.50000    -0.1200000    0.0600000   2.494471e-04  1.671101e-07
     20     21   2   0.50000     0.0300000    0.0600000   3.930919e-05  8.704828e-09
     20     22   2   0.50000     0.0300000    0.0600000   3.930919e-05  8.704828e-09
     20     23   2   0.50000     0.0300000    0.0600000   3.930919e-05  8.704828e-09
     14     18   2   0.50000    -0.3300000    0.5100000   1.591836e-03  2.266501e-06
     14     24   2   0.50000    -0.3300000    0.0600000   1.616969e-04  6.187447e-08
     14     25   2   0.50000    -0.3300000    0.0600000   1.616969e-04  6.187447e-08
     16     18   2   0.50000    -0.1800000    0.5100000   1.575021e-03  3.561100e-06
     16     24   2   0.50000    -0.1800000    0.0600000   1.599888e-04  9.721644e-08
     16     25   2   0.50000    -0.1800000    0.0600000   1.599888e-04  9.721644e-08
     20     18   2   0.50000     0.0300000    0.5100000   2.482000e-04  1.854991e-07
     20     24   2   0.50000     0.0300000    0.0600000   2.521187e-05  5.064042e-09
     20     25   2   0.50000     0.0300000    0.0600000   2.521187e-05  5.064042e-09
     15     19   2   0.50000     0.2200000   -0.4300000   1.095425e-03  1.218041e-06
     15     26   2   0.50000     0.2200000   -0.3300000   1.026091e-03  1.187829e-06
     24     19   2   0.50000     0.0600000   -0.4300000   1.726228e-04  6.344822e-08
     24     26   2   0.50000     0.0600000   -0.3300000   1.616969e-04  6.187447e-08
     25     19   2   0.50000     0.0600000   -0.4300000   1.726228e-04  6.344822e-08
     25     26   2   0.50000     0.0600000   -0.3300000   1.616969e-04  6.187447e-08
     17     27   2   0.50000    -0.1200000    0.2200000   1.015252e-03  1.866303e-06
     19     27   2   0.50000    -0.4300000    0.2200000   1.095425e-03  1.218041e-06
     18     28   2   0.50000     0.5100000   -0.1800000   1.575021e-03  3.561100e-06
     18     29   2   0.50000     0.5100000   -0.1200000   1.575021e-03  3.561100e-06
     18     32   2   0.50000     0.5100000    0.0300000   2.482000e-04  1.854991e-07
     26     33   2   0.50000    -0.3300000    0.0600000   2.521103e-04  1.063590e-07
     26     34   2   0.50000    -0.3300000    0.0600000   2.521103e-04  1.063590e-07
     26     35   2   0.50000    -0.3300000    0.0600000   2.521103e-04  1.063590e-07
     29     33   2   0.50000    -0.1200000    0.0600000   2.494471e-04  1.671101e-07
     29     34   2   0.50000    -0.1200000    0.0600000   2.494471e-04  1.671101e-07
     29     35   2   0.50000    -0.1200000    0.0600000   2.494471e-04  1.671101e-07
     32     33   2   0.50000     0.0300000    0.0600000   3.930919e-05  8.704828e-09
     32     34   2   0.50000     0.0300000    0.0600000   3.930919e-05  8.704828e-09
     32     35   2   0.50000     0.0300000    0.0600000   3.930919e-05  8.704828e-09
     26     30   2   0.50000    -0.3300000    0.5100000   1.591836e-03  2.266501e-06
     26     36   2   0.50000    -0.3300000    0.0600000   1.616969e-04  6.187447e-08
     26     37   2   0.50000    -0.3300000    0.0600000   1.616969e-04  6.187447e-08
     28     30   2   0.50000    -0.1800000    0.5100000   1.575021e-03  3.561100e-06
     28     36   2   0.50000    -0.1800000    0.0600000   1.599888e-04  9.721644e-08
     28     37   2   0.50000    -0.1800000    0.0600000   1.599888e-04  9.721644e-08
     32     30   2   0.50000     0.0300000    0.5100000   2.482000e-04  1.854991e-07
     32     36   2   0.50000     0.0300000    0.0600000   2.521187e-05  5.064042e-09
     32     37   2   0.50000     0.0300000    0.0600000   2.521187e-05  5.064042e-09
     27     31   2   0.50000     0.2200000   -0.4300000   1.095425e-03  1.218041e-06
     27     38   2   0.50000     0.2200000   -0.3300000   1.026091e-03  1.187829e-06
     36     31   2   0.50000     0.0600000   -0.4300000   1.726228e-04  6.344822e-08
     36     38   2   0.50000     0.0600000   -0.3300000   1.616969e-04  6.187447e-08
     37     31   2   0.50000     0.0600000   -0.4300000   1.726228e-04  6.344822e-08
     37     38   2   0.50000     0.0600000   -0.3300000   1.616969e-04  6.187447e-08
     29     39   2   0.50000    -0.1200000    0.2200000   1.015252e-03  1.866303e-06
     31     39   2   0.50000    -0.4300000    0.2200000   1.095425e-03  1.218041e-06
     30     40   2   0.50000     0.5100000   -0.1800000   1.575021e-03  3.561100e-06
     30     41   2   0.50000     0.5100000   -0.1200000   1.575021e-03  3.561100e-06
     30     44   2   0.50000     0.5100000    0.0300000   2.482000e-04  1.854991e-07
     38     45   2   0.50000    -0.3300000    0.0600000   2.521103e-04  1.063590e-07
     38     46   2   0.50000    -0.3300000    0.0600000   2.521103e-04  1.063590e-07
     38     47   2   0.50000    -0.3300000    0.0600000   2.521103e-04  1.063590e-07
     41     45   2   0.50000    -0.1200000    0.0600000   2.494471e-04  1.671101e-07
     41     46   2   0.50000    -0.1200000    0.0600000   2.494471e-04  1.671101e-07
     41     47   2   0.50000    -0.1200000    0.0600000   2.494471e-04  1.671101e-07
     44     45   2   0.50000     0.0300000    0.0600000   3.930919e-05  8.704828e-09
     44     46   2   0.50000     0.0300000    0.0600000   3.930919e-05  8.704828e-09
     44     47   2   0.50000     0.0300000    0.0600000   3.930919e-05  8.704828e-09
     38     42   2   0.50000    -0.3300000    0.5100000   1.591836e-03  2.266501e-06
     38     48   2   0.50000    -0.3300000    0.0600000   1.616969e-04  6.187447e-08
     38     49   2   0.50000    -0.3300000    0.0600000   1.616969e-04  6.187447e-08
     40     42   2   0.50000    -0.1800000    0.5100000   1.575021e-03  3.561100e-06
     40     48   2   0.50000    -0.1800000    0.0600000   1.599888e-04  9.721644e-08
     40     49   2   0.50000    -0.1800000    0.0600000   1.599888e-04  9.721644e-08
     44     42   2   0.50000     0.0300000    0.5100000   2.482000e-04  1.854991e-07
     44     48   2   0.50000     0.0300000    0.0600000   2.521187e-05  5.064042e-09
     44     49   2   0.50000     0.0300000    0.0600000   2.521187e-05  5.064042e-09
     39     43   2   0.50000     0.2200000   -0.4300000   1.095425e-03  1.218041e-06
     39     50   2   0.50000     0.2200000   -0.3300000   1.026091e-03  1.187829e-06
     48     43   2   0.50000     0.0600000   -0.4300000   1.726228e-04  6.344822e-08
     48     50   2   0.50000     0.0600000   -0.3300000   1.616969e-04  6.187447e-08
     49     43   2   0.50000     0.0600000   -0.4300000   1.726228e-04  6.344822e-08
     49     50   2   0.50000     0.0600000   -0.3300000   1.616969e-04  6.187447e-08
     41     51   2   0.50000    -0.1200000    0.2200000   1.015252e-03  1.866303e-06
     43     51   2   0.50000    -0.4300000    0.2200000   1.095425e-03  1.218041e-06
     42     52   2   0.50000     0.5100000   -0.1800000   1.575021e-03  3.561100e-06
     42     53   2   0.50000     0.5100000   -0.1200000   1.575021e-03  3.561100e-06
     42     56   2   0.50000     0.5100000    0.0300000   2.482000e-04  1.854991e-07
     50     57   2   0.50000    -0.3300000    0.0600000   2.521103e-04  1.063590e-07
     50     58   2   0.50000    -0.3300000    0.0600000   2.521103e-04  1.063590e-07
     50     59   2   0.50000    -0.3300000    0.0600000   2.521103e-04  1.063590e-07
     53     57   2   0.50000    -0.1200000    0.0600000   2.494471e-04  1.671101e-07
     53     58   2   0.50000    -0.1200000    0.0600000   2.494471e-04  1.671101e-07
     53     59   2   0.50000    -0.1200000    0.0600000   2.494471e-04  1.671101e-07
     56     57   2   0.50000     0.0300000    0.0600000   3.930919e-05  8.704828e-09
     56     58   2   0.50000     0.0300000    0.0600000   3.930919e-05  8.704828e-09
     56     59   2   0.50000     0.0300000    0.0600000   3.930919e-05  8.704828e-09
     50     54   2   0.50000    -0.3300000    0.5100000   1.591836e-03  2.266501e-06
     50     60   2   0.50000    -0.3300000    0.0600000   1.616969e-04  6.187447e-08
     50     61   2   0.50000    -0.3300000    0.0600000   1.616969e-04  6.187447e-08
     52     54   2   0.50000    -0.1800000    0.5100000   1.575021e-03  3.561100e-06
     52     60   2   0.50000    -0.1800000    0.0600000   1.599888e-04  9.721644e-08
     52     61   2   0.50000    -0.1800000    0.0600000   1.599888e-04  9.721644e-08
     56     54   2   0.50000     0.0300000    0.5100000   2.482000e-04  1.854991e-07
     56     60   2   0.50000     0.0300000    0.0600000   2.521187e-05  5.064042e-09
     56     61   2   0.50000     0.0300000    0.0600000   2.521187e-05  5.064042e-09
     51     55   2   0.50000     0.2200000   -0.4300000   1.095425e-03  1.218041e-06
     51     62   2   0.50000     0.2200000   -0.3300000   1.026091e-03  1.187829e-06
     60     55   2   0.50000     0.0600000   -0.4300000   1.726228e-04  6.344822e-08
     60     62   2   0.50000     0.0600000   -0.3300000   1.616969e-04  6.187447e-08
     61     55   2   0.50000     0.0600000   -0.4300000   1.726228e-04  6.344822e-08
     61     62   2   0.50000     0.0600000   -0.3300000   1.616969e-04  6.187447e-08
     53     63   2   0.50000    -0.1200000    0.2200000   1.015252e-03  1.866303e-06
     55     63   2   0.50000    -0.4300000    0.2200000   1.095425e-03  1.218041e-06
     54     64   2   0.50000     0.5100000   -0.1800000   1.575021e-03  3.561100e-06
     54     65   2   0.50000     0.5100000   -0.1200000   1.575021e-03  3.561100e-06
     54     68   2   0.50000     0.5100000    0.0300000   2.482000e-04  1.854991e-07
     62     69   2   0.50000    -0.3300000    0.0600000   2.521103e-04  1.063590e-07
     62     70   2   0.50000    -0.3300000    0.0600000   2.521103e-04  1.063590e-07
     62     71   2   0.50000    -0.3300000    0.0600000   2.521103e-04  1.063590e-07
     65     69   2   0.50000    -0.1200000    0.0600000   2.494471e-04  1.671101e-07
     65     70   2   0.50000    -0.1200000    0.0600000   2.494471e-04  1.671101e-07
     65     71   2   0.50000    -0.1200000    0.0600000   2.494471e-04  1.671101e-07
     68     69   2   0.50000     0.0300000    0.0600000   3.930919e-05  8.704828e-09
     68     70   2   0.50000     0.0300000    0.0600000   3.930919e-05  8.704828e-09
     68     71   2   0.50000     0.0300000    0.0600000   3.930919e-05  8.704828e-09
     62     66   2   0.50000    -0.3300000    0.5100000   1.591836e-03  2.266501e-06
     62     72   2   0.50000    -0.3300000    0.0600000   1.616969e-04  6.187447e-08
     62     73   2   0.50000    -0.3300000    0.0600000   1.616969e-04  6.187447e-08
     64     66   2   0.50000    -0.1800000    0.5100000   1.575021e-03  3.561100e-06
     64     72   2   0.50000    -0.1800000    0.0600000   1.599888e-04  9.721644e-08
     64     73   2   0.50000    -0.1800000    0.0600000   1.599888e-04  9.721644e-08
     68     66   2   0.50000     0.0300000    0.5100000   2.482000e-04  1.854991e-07
     68     72   2   0.50000     0.0300000    0.0600000   2.521187e-05  5.064042e-09
     68     73   2   0.50000     0.0300000    0.0600000   2.521187e-05  5.064042e-09
     63     67   2   0.50000     0.2200000   -0.4300000   1.095425e-03  1.218041e-06
     63     74   2   0.50000     0.2200000   -0.3300000   1.026091e-03  1.187829e-06
     72     67   2   0.50000     0.0600000   -0.4300000   1.726228e-04  6.344822e-08
     72     74   2   0.50000     0.0600000   -0.3300000   1.616969e-04  6.187447e-08
     73     67   2   0.50000     0.0600000   -0.4300000   1.726228e-04  6.344822e-08
     73     74   2   0.50000     0.0600000   -0.3300000   1.616969e-04  6.187447e-08
     65     75   2   0.50000    -0.1200000    0.2200000   1.015252e-03  1.866303e-06
     67     75   2   0.50000    -0.4300000    0.2200000   1.095425e-03  1.218041e-06
     66     76   2   0.50000     0.5100000   -0.1800000   1.575021e-03  3.561100e-06
     66     77   2   0.50000     0.5100000   -0.1200000   1.575021e-03  3.561100e-06
     66     80   2   0.50000     0.5100000    0.0300000   2.482000e-04  1.854991e-07
     74     81   2   0.50000    -0.3300000    0.0600000   2.521103e-04  1.063590e-07
     74     82   2   0.50000    -0.3300000    0.0600000   2.521103e-04  1.063590e-07
     74     83   2   0.50000    -0.3300000    0.0600000   2.521103e-04  1.063590e-07
     77     81   2   0.50000    -0.1200000    0.0600000   2.494471e-04  1.671101e-07
     77     82   2   0.50000    -0.1200000    0.0600000   2.494471e-04  1.671101e-07
     77     83   2   0.50000    -0.1200000    0.0600000   2.494471e-04  1.671101e-07
     80     81   2   0.50000     0.0300000    0.0600000   3.930919e-05  8.704828e-09
     80     82   2   0.50000     0.0300000    0.0600000   3.930919e-05  8.704828e-09
     80     83   2   0.50000     0.0300000    0.0600000   3.930919e-05  8.704828e-09
     74     78   2   0.50000    -0.3300000    0.5100000   1.591836e-03  2.266501e-06
     74     84   2   0.50000    -0.3300000    0.0600000   1.616969e-04  6.187447e-08
     74     85   2   0.50000    -0.3300000    0.0600000   1.616969e-04  6.187447e-08
     76     78   2   0.50000    -0.1800000    0.5100000   1.575021e-03  3.561100e-06
     76     84   2   0.50000    -0.1800000    0.0600000   1.599888e-04  9.721644e-08
     76     85   2   0.50000    -0.1800000    0.0600000   1.599888e-04  9.721644e-08
     80     78   2   0.50000     0.0300000    0.5100000   2.482000e-04  1.854991e-07
     80     84   2   0.50000     0.0300000    0.0600000   2.521187e-05  5.064042e-09
     80     85   2   0.50000     0.0300000    0.0600000   2.521187e-05  5.064042e-09
     75     79   2   0.50000     0.2200000   -0.4300000   1.095425e-03  1.218041e-06
     75     86   2   0.50000     0.2200000   -0.3300000   1.026091e-03  1.187829e-06
     84     79   2   0.50000     0.0600000   -0.4300000   1.726228e-04  6.344822e-08
     84     86   2   0.50000     0.0600000   -0.3300000   1.616969e-04  6.187447e-08
     85     79   2   0.50000     0.0600000   -0.4300000   1.726228e-04  6.344822e-08
     85     86   2   0.50000     0.0600000   -0.3300000   1.616969e-04  6.187447e-08
     77     87   2   0.50000    -0.1200000    0.2200000   1.015252e-03  1.866303e-06
     79     87   2   0.50000    -0.4300000    0.2200000   1.095425e-03  1.218041e-06
     78     88   2   0.50000     0.5100000   -0.1800000   1.575021e-03  3.561100e-06
     78     89   2   0.50000     0.5100000   -0.1200000   1.575021e-03  3.561100e-06
     78     92   2   0.50000     0.5100000    0.0300000   2.482000e-04  1.854991e-07
     86     93   2   0.50000    -0.3300000    0.0600000   2.521103e-04  1.063590e-07
     86     94   2   0.50000    -0.3300000    0.0600000   2.521103e-04  1.063590e-07
     86     95   2   0.50000    -0.3300000    0.0600000   2.521103e-04  1.063590e-07
     89     93   2   0.50000    -0.1200000    0.0600000   2.494471e-04  1.671101e-07
     89     94   2   0.50000    -0.1200000    0.0600000   2.494471e-04  1.671101e-07
     89     95   2   0.50000    -0.1200000    0.0600000   2.494471e-04  1.671101e-07
     92     93   2   0.50000     0.0300000    0.0600000   3.930919e-05  8.704828e-09
     92     94   2   0.50000     0.0300000    0.0600000   3.930919e-05  8.704828e-09
     92     95   2   0.50000     0.0300000    0.0600000   3.930919e-05  8.704828e-09
     86     90   2   0.50000    -0.3300000    0.5100000   1.591836e-03  2.266501e-06
     86     96   2   0.50000    -0.3300000    0.0600000   1.616969e-04  6.187447e-08
     86     97   2   0.50000    -0.3300000    0.0600000   1.616969e-04  6.187447e-08
     88     90   2   0.50000    -0.1800000    0.5100000   1.575021e-03  3.561100e-06
     88     96   2   0.50000    -0.1800000    0.0600000   1.599888e-04  9.721644e-08
     88     97   2   0.50000    -0.1800000    0.0600000   1.599888e-04  9.721644e-08
     92     90   2   0.50000     0.0300000    0.5100000   2.482000e-04  1.854991e-07
     92     96   2   0.50000     0.0300000    0.0600000   2.521187e-05  5.064042e-09
     92     97   2   0.50000     0.0300000    0.0600000   2.521187e-05  5.064042e-09
     87     91   2   0.50000     0.2200000   -0.4300000   1.095425e-03  1.218041e-06
     87     98   2   0.50000     0.2200000   -0.3300000   1.026091e-03  1.187829e-06
     96     91   2   0.50000     0.0600000   -0.4300000   1.726228e-04  6.344822e-08
     96     98   2   0.50000     0.0600000   -0.3300000   1.616969e-04  6.187447e-08
     97     91   2   0.50000     0.0600000   -0.4300000   1.726228e-04  6.344822e-08
     97     98   2   0.50000     0.0600000   -0.3300000   1.616969e-04  6.187447e-08
     89     99   2   0.50000    -0.1200000    0.2200000   1.015252e-03  1.866303e-06
     91     99   2   0.50000    -0.4300000    0.2200000   1.095425e-03  1.218041e-06
     90    100   2   0.50000     0.5100000   -0.1800000   1.575021e-03  3.561100e-06
     90    101   2   0.50000     0.5100000   -0.1200000   1.575021e-03  3.561100e-06
     90    104   2   0.50000     0.5100000    0.0300000   2.482000e-04  1.854991e-07
     98    105   2   0.50000    -0.3300000    0.0600000   2.521103e-04  1.063590e-07
     98    106   2   0.50000    -0.3300000    0.0600000   2.521103e-04  1.063590e-07
     98    107   2   0.50000    -0.3300000    0.0600000   2.521103e-04  1.063590e-07
    101    105   2   0.50000    -0.1200000    0.0600000   2.494471e-04  1.671101e-07
    101    106   2   0.50000    -0.1200000    0.0600000   2.494471e-04  1.671101e-07
    101    107   2   0.50000    -0.1200000    0.0600000   2.494471e-04  1.671101e-07
    104    105   2   0.50000     0.0300000    0.0600000   3.930919e-05  8.704828e-09
    104    106   2   0.50000     0.0300000    0.0600000   3.930919e-05  8.704828e-09
    104    107   2   0.50000     0.0300000    0.0600000   3.930919e-05  8.704828e-09
     98    102   2   0.50000    -0.3300000    0.5100000   1.591836e-03  2.266501e-06
     98    108   2   0.50000    -0.3300000    0.0600000   1.616969e-04  6.187447e-08
     98    109   2   0.50000    -0.3300000    0.0600000   1.616969e-04  6.187447e-08
    100    102   2   0.50000    -0.1800000    0.5100000   1.575021e-03  3.561100e-06
    100    108   2   0.50000    -0.1800000    0.0600000   1.599888e-04  9.721644e-08
    100    109   2   0.50000    -0.1800000    0.0600000   1.599888e-04  9.721644e-08
    104    102   2   0.50000     0.0300000    0.5100000   2.482000e-04  1.854991e-07
    104    108   2   0.50000     0.0300000    0.0600000   2.521187e-05  5.064042e-09
    104    109   2   0.50000     0.0300000    0.0600000   2.521187e-05  5.064042e-09
     99    103   2   0.50000     0.2200000   -0.4300000   1.095425e-03  1.218041e-06
     99    110   2   0.50000     0.2200000   -0.3300000   1.026091e-03  1.187829e-06
    108    103   2   0.50000     0.0600000   -0.4300000   1.726228e-04  6.344822e-08
    108    110   2   0.50000     0.0600000   -0.3300000   1.616969e-04  6.187447e-08
    109    103   2   0.50000     0.0600000   -0.4300000   1.726228e-04  6.344822e-08
    109    110   2   0.50000     0.0600000   -0.3300000   1.616969e-04  6.187447e-08
    101    111   2   0.50000    -0.1200000    0.2200000   1.015252e-03  1.866303e-06
    103    111   2   0.50000    -0.4300000    0.2200000   1.095425e-03  1.218041e-06
    102    112   2   0.50000     0.5100000   -0.1800000   1.575021e-03  3.561100e-06
    102    113   2   0.50000     0.5100000   -0.1200000   1.575021e-03  3.561100e-06
    102    116   2   0.50000     0.5100000    0.0300000   2.482000e-04  1.854991e-07
    110    117   2   0.50000    -0.3300000    0.0600000   2.521103e-04  1.063590e-07
    110    118   2   0.50000    -0.3300000    0.0600000   2.521103e-04  1.063590e-07
    110    119   2   0.50000    -0.3300000    0.0600000   2.521103e-04  1.063590e-07
    113    117   2   0.50000    -0.1200000    0.0600000   2.494471e-04  1.671101e-07
    113    118   2   0.50000    -0.1200000    0.0600000   2.494471e-04  1.671101e-07
    113    119   2   0.50000    -0.1200000    0.0600000   2.494471e-04  1.671101e-07
    116    117   2   0.50000     0.0300000    0.0600000   3.930919e-05  8.704828e-09
    116    118   2   0.50000     0.0300000    0.0600000   3.930919e-05  8.704828e-09
    116    119   2   0.50000     0.0300000    0.0600000   3.930919e-05  8.704828e-09
    110    114   2   0.50000    -0.3300000    0.5100000   1.591836e-03  2.266501e-06
    110    120   2   0.50000    -0.3300000    0.0600000   1.616969e-04  6.187447e-08
    110    121   2   0.50000    -0.3300000    0.0600000   1.616969e-04  6.187447e-08
    112    114   2   0.50000    -0.1800000    0.5100000   1.575021e-03  3.561100e-06
    112    120   2   0.50000    -0.1800000    0.0600000   1.599888e-04  9.721644e-08
    112    121   2   0.50000    -0.1800000    0.0600000   1.599888e-04  9.721644e-08
    116    114   2   0.50000     0.0300000    0.5100000   2.482000e-04  1.854991e-07
    116    120   2   0.50000     0.0300000    0.0600000   2.521187e-05  5.064042e-09
    116    121   2   0.50000     0.0300000    0.0600000   2.521187e-05  5.064042e-09
    111    115   2   0.50000     0.2200000   -0.4300000   1.095425e-03  1.218041e-06
    111    122   2   0.50000     0.2200000   -0.3300000   1.026091e-03  1.187829e-06
    120    115   2   0.50000     0.0600000   -0.4300000   1.726228e-04  6.344822e-08
    120    122   2   0.50000     0.0600000   -0.3300000   1.616969e-04  6.187447e-08
    121    115   2   0.50000     0.0600000   -0.4300000   1.726228e-04  6.344822e-08
    121    122   2   0.50000     0.0600000   -0.3300000   1.616969e-04  6.187447e-08
    113    123   2   0.50000    -0.1200000    0.2200000   1.015252e-03  1.866303e-06
    115    123   2   0.50000    -0.4300000    0.2200000   1.095425e-03  1.218041e-06
    114    124   2   0.50000     0.5100000   -0.1800000   1.575021e-03  3.561100e-06
    114    125   2   0.50000     0.5100000   -0.1200000   1.575021e-03  3.561100e-06
    114    128   2   0.50000     0.5100000    0.0300000   2.482000e-04  1.854991e-07
    122    129   2   0.50000    -0.3300000    0.0600000   2.521103e-04  1.063590e-07
    122    130   2   0.50000    -0.3300000    0.0600000   2.521103e-04  1.063590e-07
    122    131   2   0.50000    -0.3300000    0.0600000   2.521103e-04  1.063590e-07
    125    129   2   0.50000    -0.1200000    0.0600000   2.494471e-04  1.671101e-07
    125    130   2   0.50000    -0.1200000    0.0600000   2.494471e-04  1.671101e-07
    125    131   2   0.50000    -0.1200000    0.0600000   2.494471e-04  1.671101e-07
    128    129   2   0.50000     0.0300000    0.0600000   3.930919e-05  8.704828e-09
    128    130   2   0.50000     0.0300000    0.0600000   3.930919e-05  8.704828e-09
    128    131   2   0.50000     0.0300000    0.0600000   3.930919e-05  8.704828e-09
    122    126   2   0.50000    -0.3300000    0.5100000   1.591836e-03  2.266501e-06
    122    132   2   0.50000    -0.3300000    0.0600000   1.616969e-04  6.187447e-08
    122    133   2   0.50000    -0.3300000    0.0600000   1.616969e-04  6.187447e-08
    124    126   2   0.50000    -0.1800000    0.5100000   1.575021e-03  3.561100e-06
    124    132   2   0.50000    -0.1800000    0.0600000   1.599888e-04  9.721644e-08
    124    133   2   0.50000    -0.1800000    0.0600000   1.599888e-04  9.721644e-08
    128    126   2   0.50000     0.0300000    0.5100000   2.482000e-04  1.854991e-07
    128    132   2   0.50000     0.0300000    0.0600000   2.521187e-05  5.064042e-09
    128    133   2   0.50000     0.0300000    0.0600000   2.521187e-05  5.064042e-09
    123    127   2   0.50000     0.2200000   -0.4300000   1.095425e-03  1.218041e-06
    123    134   2   0.50000     0.2200000   -0.3300000   1.026091e-03  1.187829e-06
    132    127   2   0.50000     0.0600000   -0.4300000   1.726228e-04  6.344822e-08
    132    134   2   0.50000     0.0600000   -0.3300000   1.616969e-04  6.187447e-08
    133    127   2   0.50000     0.0600000   -0.4300000   1.726228e-04  6.344822e-08
    133    134   2   0.50000     0.0600000   -0.3300000   1.616969e-04  6.187447e-08
    125    135   2   0.50000    -0.1200000    0.2200000   1.015252e-03  1.866303e-06
    127    135   2   0.50000    -0.4300000    0.2200000   1.095425e-03  1.218041e-06
    126    136   2   0.50000     0.5100000   -0.1800000   1.575021e-03  3.561100e-06
    126    137   2   0.50000     0.5100000   -0.1200000   1.575021e-03  3.561100e-06
    126    140   2   0.50000     0.5100000    0.0300000   2.482000e-04  1.854991e-07
    134    141   2   0.50000    -0.3300000    0.0600000   2.521103e-04  1.063590e-07
    134    142   2   0.50000    -0.3300000    0.0600000   2.521103e-04  1.063590e-07
    134    143   2   0.50000    -0.3300000    0.0600000   2.521103e-04  1.063590e-07
    137    141   2   0.50000    -0.1200000    0.0600000   2.494471e-04  1.671101e-07
    137    142   2   0.50000    -0.1200000    0.0600000   2.494471e-04  1.671101e-07
    137    143   2   0.50000    -0.1200000    0.0600000   2.494471e-04  1.671101e-07
    140    141   2   0.50000     0.0300000    0.0600000   3.930919e-05  8.704828e-09
    140    142   2   0.50000     0.0300000    0.0600000   3.930919e-05  8.704828e-09
    140    143   2   0.50000     0.0300000    0.0600000   3.930919e-05  8.704828e-09
    134    138   2   0.50000    -0.3300000    0.5100000   1.591836e-03  2.266501e-06
    134    144   2   0.50000    -0.3300000    0.0600000   1.616969e-04  6.187447e-08
    134    145   2   0.50000    -0.3300000    0.0600000   1.616969e-04  6.187447e-08
    136    138   2   0.50000    -0.1800000    0.5100000   1.575021e-03  3.561100e-06
    136    144   2   0.50000    -0.1800000    0.0600000   1.599888e-04  9.721644e-08
    136    145   2   0.50000    -0.1800000    0.0600000   1.599888e-04  9.721644e-08
    140    138   2   0.50000     0.0300000    0.5100000   2.482000e-04  1.854991e-07
    140    144   2   0.50000     0.0300000    0.0600000   2.521187e-05  5.064042e-09
    140    145   2   0.50000     0.0300000    0.0600000   2.521187e-05  5.064042e-09
    135    139   2   0.50000     0.2200000   -0.4300000   1.095425e-03  1.218041e-06
    135    146   2   0.50000     0.2200000   -0.3300000   1.026091e-03  1.187829e-06
    144    139   2   0.50000     0.0600000   -0.4300000   1.726228e-04  6.344822e-08
    144    146   2   0.50000     0.0600000   -0.3300000   1.616969e-04  6.187447e-08
    145    139   2   0.50000     0.0600000   -0.4300000   1.726228e-04  6.344822e-08
    145    146   2   0.50000     0.0600000   -0.3300000   1.616969e-04  6.187447e-08
    137    147   2   0.50000    -0.1200000    0.2200000   1.015252e-03  1.866303e-06
    139    147   2   0.50000    -0.4300000    0.2200000   1.095425e-03  1.218041e-06
    138    148   2   0.50000     0.5100000   -0.1800000   1.575021e-03  3.561100e-06
    138    149   2   0.50000     0.5100000   -0.1200000   1.575021e-03  3.561100e-06
    138    152   2   0.50000     0.5100000    0.0300000   2.482000e-04  1.854991e-07
    146    153   2   0.50000    -0.3300000    0.0600000   2.521103e-04  1.063590e-07
    146    154   2   0.50000    -0.3300000    0.0600000   2.521103e-04  1.063590e-07
    146    155   2   0.50000    -0.3300000    0.0600000   2.521103e-04  1.063590e-07
    149    153   2   0.50000    -0.1200000    0.0600000   2.494471e-04  1.671101e-07
    149    154   2   0.50000    -0.1200000    0.0600000   2.494471e-04  1.671101e-07
    149    155   2   0.50000    -0.1200000    0.0600000   2.494471e-04  1.671101e-07
    152    153   2   0.50000     0.0300000    0.0600000   3.930919e-05  8.704828e-09
    152    154   2   0.50000     0.0300000    0.0600000   3.930919e-05  8.704828e-09
    152    155   2   0.50000     0.0300000    0.0600000   3.930919e-05  8.704828e-09
    146    150   2   0.50000    -0.3300000    0.5100000   1.591836e-03  2.266501e-06
    146    156   2   0.50000    -0.3300000    0.0600000   1.616969e-04  6.187447e-08
    146    157   2   0.50000    -0.3300000    0.0600000   1.616969e-04  6.187447e-08
    148    150   2   0.50000    -0.1800000    0.5100000   1.575021e-03  3.561100e-06
    148    156   2   0.50000    -0.1800000    0.0600000   1.599888e-04  9.721644e-08
    148    157   2   0.50000    -0.1800000    0.0600000   1.599888e-04  9.721644e-08
    152    150   2   0.50000     0.0300000    0.5100000   2.482000e-04  1.854991e-07
    152    156   2   0.50000     0.0300000    0.0600000   2.521187e-05  5.064042e-09
    152    157   2   0.50000     0.0300000    0.0600000   2.521187e-05  5.064042e-09
    147    151   2   0.50000     0.2200000   -0.4300000   1.095425e-03  1.218041e-06
    147    158   2   0.50000     0.2200000   -0.3300000   1.026091e-03  1.187829e-06
    156    151   2   0.50000     0.0600000   -0.4300000   1.726228e-04  6.344822e-08
    156    158   2   0.50000     0.0600000   -0.3300000   1.616969e-04  6.187447e-08
    157    151   2   0.50000     0.0600000   -0.4300000   1.726228e-04  6.344822e-08
    157    158   2   0.50000     0.0600000   -0.3300000   1.616969e-04  6.187447e-08
    149    159   2   0.50000    -0.1200000    0.2200000   1.015252e-03  1.866303e-06
    151    159   2   0.50000    -0.4300000    0.2200000   1.095425e-03  1.218041e-06
    150    160   2   0.50000     0.5100000   -0.1800000   1.575021e-03  3.561100e-06
    150    161   2   0.50000     0.5100000   -0.1200000   1.575021e-03  3.561100e-06
    150    164   2   0.50000     0.5100000    0.0300000   2.482000e-04  1.854991e-07
    158    165   2   0.50000    -0.3300000    0.0600000   2.521103e-04  1.063590e-07
    158    166   2   0.50000    -0.3300000    0.0600000   2.521103e-04  1.063590e-07
    158    167   2   0.50000    -0.3300000    0.0600000   2.521103e-04  1.063590e-07
    161    165   2   0.50000    -0.1200000    0.0600000   2.494471e-04  1.671101e-07
    161    166   2   0.50000    -0.1200000    0.0600000   2.494471e-04  1.671101e-07
    161    167   2   0.50000    -0.1200000    0.0600000   2.494471e-04  1.671101e-07
    164    165   2   0.50000     0.0300000    0.0600000   3.930919e-05  8.704828e-09
    164    166   2   0.50000     0.0300000    0.0600000   3.930919e-05  8.704828e-09
    164    167   2   0.50000     0.0300000    0.0600000   3.930919e-05  8.704828e-09
    158    162   2   0.50000    -0.3300000    0.5100000   1.591836e-03  2.266501e-06
    158    168   2   0.50000    -0.3300000    0.0600000   1.616969e-04  6.187447e-08
    158    169   2   0.50000    -0.3300000    0.0600000   1.616969e-04  6.187447e-08
    160    162   2   0.50000    -0.1800000    0.5100000   1.575021e-03  3.561100e-06
    160    168   2   0.50000    -0.1800000    0.0600000   1.599888e-04  9.721644e-08
    160    169   2   0.50000    -0.1800000    0.0600000   1.599888e-04  9.721644e-08
    164    162   2   0.50000     0.0300000    0.5100000   2.482000e-04  1.854991e-07
    164    168   2   0.50000     0.0300000    0.0600000   2.521187e-05  5.064042e-09
    164    169   2   0.50000     0.0300000    0.0600000   2.521187e-05  5.064042e-09
    159    163   2   0.50000     0.2200000   -0.4300000   1.095425e-03  1.218041e-06
    159    170   2   0.50000     0.2200000   -0.3300000   1.026091e-03  1.187829e-06
    168    163   2   0.50000     0.0600000   -0.4300000   1.726228e-04  6.344822e-08
    168    170   2   0.50000     0.0600000   -0.3300000   1.616969e-04  6.187447e-08
    169    163   2   0.50000     0.0600000   -0.4300000   1.726228e-04  6.344822e-08
    169    170   2   0.50000     0.0600000   -0.3300000   1.616969e-04  6.187447e-08
    161    171   2   0.50000    -0.1200000    0.2200000   1.015252e-03  1.866303e-06
    163    171   2   0.50000    -0.4300000    0.2200000   1.095425e-03  1.218041e-06
    162    172   2   0.50000     0.5100000   -0.1800000   1.575021e-03  3.561100e-06
    162    173   2   0.50000     0.5100000   -0.1200000   1.575021e-03  3.561100e-06
    162    176   2   0.50000     0.5100000    0.0300000   2.482000e-04  1.854991e-07
    170    177   2   0.50000    -0.3300000    0.0600000   2.521103e-04  1.063590e-07
    170    178   2   0.50000    -0.3300000    0.0600000   2.521103e-04  1.063590e-07
    170    179   2   0.50000    -0.3300000    0.0600000   2.521103e-04  1.063590e-07
    173    177   2   0.50000    -0.1200000    0.0600000   2.494471e-04  1.671101e-07
    173    178   2   0.50000    -0.1200000    0.0600000   2.494471e-04  1.671101e-07
    173    179   2   0.50000    -0.1200000    0.0600000   2.494471e-04  1.671101e-07
    176    177   2   0.50000     0.0300000    0.0600000   3.930919e-05  8.704828e-09
    176    178   2   0.50000     0.0300000    0.0600000   3.930919e-05  8.704828e-09
    176    179   2   0.50000     0.0300000    0.0600000   3.930919e-05  8.704828e-09
    170    174   2   0.50000    -0.3300000    0.5100000   1.591836e-03  2.266501e-06
    170    180   2   0.50000    -0.3300000    0.0600000   1.616969e-04  6.187447e-08
    170    181   2   0.50000    -0.3300000    0.0600000   1.616969e-04  6.187447e-08
    172    174   2   0.50000    -0.1800000    0.5100000   1.575021e-03  3.561100e-06
    172    180   2   0.50000    -0.1800000    0.0600000   1.599888e-04  9.721644e-08
    172    181   2   0.50000    -0.1800000    0.0600000   1.599888e-04  9.721644e-08
    176    174   2   0.50000     0.0300000    0.5100000   2.482000e-04  1.854991e-07
    176    180   2   0.50000     0.0300000    0.0600000   2.521187e-05  5.064042e-09
    176    181   2   0.50000     0.0300000    0.0600000   2.521187e-05  5.064042e-09
    171    175   2   0.50000     0.2200000   -0.4300000   1.095425e-03  1.218041e-06
    171    182   2   0.50000     0.2200000   -0.3300000   1.026091e-03  1.187829e-06
    180    175   2   0.50000     0.0600000   -0.4300000   1.726228e-04  6.344822e-08
    180    182   2   0.50000     0.0600000   -0.3300000   1.616969e-04  6.187447e-08
    181    175   2   0.50000     0.0600000   -0.4300000   1.726228e-04  6.344822e-08
    181    182   2   0.50000     0.0600000   -0.3300000   1.616969e-04  6.187447e-08
    173    183   2   0.50000    -0.1200000    0.2200000   1.015252e-03  1.866303e-06
    175    183   2   0.50000    -0.4300000    0.2200000   1.095425e-03  1.218041e-06
    174    184   2   0.50000     0.5100000   -0.1800000   1.575021e-03  3.561100e-06
    174    185   2   0.50000     0.5100000   -0.1200000   1.575021e-03  3.561100e-06
    174    188   2   0.50000     0.5100000    0.0300000   2.482000e-04  1.854991e-07
    182    189   2   0.50000    -0.3300000    0.0600000   2.521103e-04  1.063590e-07
    182    190   2   0.50000    -0.3300000    0.0600000   2.521103e-04  1.063590e-07
    182    191   2   0.50000    -0.3300000    0.0600000   2.521103e-04  1.063590e-07
    185    189   2   0.50000    -0.1200000    0.0600000   2.494471e-04  1.671101e-07
    185    190   2   0.50000    -0.1200000    0.0600000   2.494471e-04  1.671101e-07
    185    191   2   0.50000    -0.1200000    0.0600000   2.494471e-04  1.671101e-07
    188    189   2   0.50000     0.0300000    0.0600000   3.930919e-05  8.704828e-09
    188    190   2   0.50000     0.0300000    0.0600000   3.930919e-05  8.704828e-09
    188    191   2   0.50000     0.0300000    0.0600000   3.930919e-05  8.704828e-09
    182    186   2   0.50000    -0.3300000    0.5100000   1.591836e-03  2.266501e-06
    182    192   2   0.50000    -0.3300000    0.0600000   1.616969e-04  6.187447e-08
    182    193   2   0.50000    -0.3300000    0.0600000   1.616969e-04  6.187447e-08
    184    186   2   0.50000    -0.1800000    0.5100000   1.575021e-03  3.561100e-06
    184    192   2   0.50000    -0.1800000    0.0600000   1.599888e-04  9.721644e-08
    184    193   2   0.50000    -0.1800000    0.0600000   1.599888e-04  9.721644e-08
    188    186   2   0.50000     0.0300000    0.5100000   2.482000e-04  1.854991e-07
    188    192   2   0.50000     0.0300000    0.0600000   2.521187e-05  5.064042e-09
    188    193   2   0.50000     0.0300000    0.0600000   2.521187e-05  5.064042e-09
    183    187   2   0.50000     0.2200000   -0.4300000   1.095425e-03  1.218041e-06
    183    194   2   0.50000     0.2200000   -0.3300000   1.026091e-03  1.187829e-06
    192    187   2   0.50000     0.0600000   -0.4300000   1.726228e-04  6.344822e-08
    192    194   2   0.50000     0.0600000   -0.3300000   1.616969e-04  6.187447e-08
    193    187   2   0.50000     0.0600000   -0.4300000   1.726228e-04  6.344822e-08
    193    194   2   0.50000     0.0600000   -0.3300000   1.616969e-04  6.187447e-08
    185    195   2   0.50000    -0.1200000    0.2200000   1.015252e-03  1.866303e-06
    187    195   2   0.50000    -0.4300000    0.2200000   1.095425e-03  1.218041e-06
    186    196   2   0.50000     0.5100000   -0.1800000   1.575021e-03  3.561100e-06
    186    197   2   0.50000     0.5100000   -0.1200000   1.575021e-03  3.561100e-06
    186    200   2   0.50000     0.5100000    0.0300000   2.482000e-04  1.854991e-07
    194    201   2   0.50000    -0.3300000    0.0600000   2.521103e-04  1.063590e-07
    194    202   2   0.50000    -0.3300000    0.0600000   2.521103e-04  1.063590e-07
    194    203   2   0.50000    -0.3300000    0.0600000   2.521103e-04  1.063590e-07
    197    201   2   0.50000    -0.1200000    0.0600000   2.494471e-04  1.671101e-07
    197    202   2   0.50000    -0.1200000    0.0600000   2.494471e-04  1.671101e-07
    197    203   2   0.50000    -0.1200000    0.0600000   2.494471e-04  1.671101e-07
    200    201   2   0.50000     0.0300000    0.0600000   3.930919e-05  8.704828e-09
    200    202   2   0.50000     0.0300000    0.0600000   3.930919e-05  8.704828e-09
    200    203   2   0.50000     0.0300000    0.0600000   3.930919e-05  8.704828e-09
    194    198   2   0.50000    -0.3300000    0.5100000   1.591836e-03  2.266501e-06
    194    204   2   0.50000    -0.3300000    0.0600000   1.616969e-04  6.187447e-08
    194    205   2   0.50000    -0.3300000    0.0600000   1.616969e-04  6.187447e-08
    196    198   2   0.50000    -0.1800000    0.5100000   1.575021e-03  3.561100e-06
    196    204   2   0.50000    -0.1800000    0.0600000   1.599888e-04  9.721644e-08
    196    205   2   0.50000    -0.1800000    0.0600000   1.599888e-04  9.721644e-08
    200    198   2   0.50000     0.0300000    0.5100000   2.482000e-04  1.854991e-07
    200    204   2   0.50000     0.0300000    0.0600000   2.521187e-05  5.064042e-09
    200    205   2   0.50000     0.0300000    0.0600000   2.521187e-05  5.064042e-09
    195    199   2   0.50000     0.2200000   -0.4300000   1.095425e-03  1.218041e-06
    195    206   2   0.50000     0.2200000   -0.3300000   1.026091e-03  1.187829e-06
    204    199   2   0.50000     0.0600000   -0.4300000   1.726228e-04  6.344822e-08
    204    206   2   0.50000     0.0600000   -0.3300000   1.616969e-04  6.187447e-08
    205    199   2   0.50000     0.0600000   -0.4300000   1.726228e-04  6.344822e-08
    205    206   2   0.50000     0.0600000   -0.3300000   1.616969e-04  6.187447e-08
    197    207   2   0.50000    -0.1200000    0.2200000   1.015252e-03  1.866303e-06
    199    207   2   0.50000    -0.4300000    0.2200000   1.095425e-03  1.218041e-06
    198    208   2   0.50000     0.5100000   -0.1800000   1.575021e-03  3.561100e-06
    198    209   2   0.50000     0.5100000   -0.1200000   1.575021e-03  3.561100e-06
    198    212   2   0.50000     0.5100000    0.0300000   2.482000e-04  1.854991e-07
    206    213   2   0.50000    -0.3300000    0.0600000   2.521103e-04  1.063590e-07
    206    214   2   0.50000    -0.3300000    0.0600000   2.521103e-04  1.063590e-07
    206    215   2   0.50000    -0.3300000    0.0600000   2.521103e-04  1.063590e-07
    209    213   2   0.50000    -0.1200000    0.0600000   2.494471e-04  1.671101e-07
    209    214   2   0.50000    -0.1200000    0.0600000   2.494471e-04  1.671101e-07
    209    215   2   0.50000    -0.1200000    0.0600000   2.494471e-04  1.671101e-07
    212    213   2   0.50000     0.0300000    0.0600000   3.930919e-05  8.704828e-09
    212    214   2   0.50000     0.0300000    0.0600000   3.930919e-05  8.704828e-09
    212    215   2   0.50000     0.0300000    0.0600000   3.930919e-05  8.704828e-09
    206    210   2   0.50000    -0.3300000    0.5100000   1.591836e-03  2.266501e-06
    206    216   2   0.50000    -0.3300000    0.0600000   1.616969e-04  6.187447e-08
    206    217   2   0.50000    -0.3300000    0.0600000   1.616969e-04  6.187447e-08
    208    210   2   0.50000    -0.1800000    0.5100000   1.575021e-03  3.561100e-06
    208    216   2   0.50000    -0.1800000    0.0600000   1.599888e-04  9.721644e-08
    208    217   2   0.50000    -0.1800000    0.0600000   1.599888e-04  9.721644e-08
    212    210   2   0.50000     0.0300000    0.5100000   2.482000e-04  1.854991e-07
    212    216   2   0.50000     0.0300000    0.0600000   2.521187e-05  5.064042e-09
    212    217   2   0.50000     0.0300000    0.0600000   2.521187e-05  5.064042e-09
    207    211   2   0.50000     0.2200000   -0.4300000   1.095425e-03  1.218041e-06
    207    218   2   0.50000     0.2200000   -0.3300000   1.026091e-03  1.187829e-06
    216    211   2   0.50000     0.0600000   -0.4300000   1.726228e-04  6.344822e-08
    216    218   2   0.50000     0.0600000   -0.3300000   1.616969e-04  6.187447e-08
    217    211   2   0.50000     0.0600000   -0.4300000   1.726228e-04  6.344822e-08
    217    218   2   0.50000     0.0600000   -0.3300000   1.616969e-04  6.187447e-08
    209    219   2   0.50000    -0.1200000    0.2200000   1.015252e-03  1.866303e-06
    211    219   2   0.50000    -0.4300000    0.2200000   1.095425e-03  1.218041e-06
    210    220   2   0.50000     0.5100000   -0.1800000   1.575021e-03  3.561100e-06
    210    221   2   0.50000     0.5100000   -0.1200000   1.575021e-03  3.561100e-06
    210    224   2   0.50000     0.5100000    0.0300000   2.482000e-04  1.854991e-07
    218    225   2   0.50000    -0.3300000    0.0600000   2.521103e-04  1.063590e-07
    218    226   2   0.50000    -0.3300000    0.0600000   2.521103e-04  1.063590e-07
    218    227   2   0.50000    -0.3300000    0.0600000   2.521103e-04  1.063590e-07
    221    225   2   0.50000    -0.1200000    0.0600000   2.494471e-04  1.671101e-07
    221    226   2   0.50000    -0.1200000    0.0600000   2.494471e-04  1.671101e-07
    221    227   2   0.50000    -0.1200000    0.0600000   2.494471e-04  1.671101e-07
    224    225   2   0.50000     0.0300000    0.0600000   3.930919e-05  8.704828e-09
    224    226   2   0.50000     0.0300000    0.0600000   3.930919e-05  8.704828e-09
    224    227   2   0.50000     0.0300000    0.0600000   3.930919e-05  8.704828e-09
    218    222   2   0.50000    -0.3300000    0.5100000   1.591836e-03  2.266501e-06
    218    228   2   0.50000    -0.3300000    0.0600000   1.616969e-04  6.187447e-08
    218    229   2   0.50000    -0.3300000    0.0600000   1.616969e-04  6.187447e-08
    220    222   2   0.50000    -0.1800000    0.5100000   1.575021e-03  3.561100e-06
    220    228   2   0.50000    -0.1800000    0.0600000   1.599888e-04  9.721644e-08
    220    229   2   0.50000    -0.1800000    0.0600000   1.599888e-04  9.721644e-08
    224    222   2   0.50000     0.0300000    0.5100000   2.482000e-04  1.854991e-07
    224    228   2   0.50000     0.0300000    0.0600000   2.521187e-05  5.064042e-09
    224    229   2   0.50000     0.0300000    0.0600000   2.521187e-05  5.064042e-09
    219    223   2   0.50000     0.2200000   -0.4300000   1.095425e-03  1.218041e-06
    219    230   2   0.50000     0.2200000   -0.3300000   1.026091e-03  1.187829e-06
    228    223   2   0.50000     0.0600000   -0.4300000   1.726228e-04  6.344822e-08
    228    230   2   0.50000     0.0600000   -0.3300000   1.616969e-04  6.187447e-08
    229    223   2   0.50000     0.0600000   -0.4300000   1.726228e-04  6.344822e-08
    229    230   2   0.50000     0.0600000   -0.3300000   1.616969e-04  6.187447e-08
    221    231   2   0.50000    -0.1200000    0.2200000   1.015252e-03  1.866303e-06
    223    231   2   0.50000    -0.4300000    0.2200000   1.095425e-03  1.218041e-06
    222    232   2   0.50000     0.5100000   -0.1800000   1.575021e-03  3.561100e-06
    222    233   2   0.50000     0.5100000   -0.1200000   1.575021e-03  3.561100e-06
    222    236   2   0.50000     0.5100000    0.0300000   2.482000e-04  1.854991e-07
    230    237   2   0.50000    -0.3300000    0.0600000   2.521103e-04  1.063590e-07
    230    238   2   0.50000    -0.3300000    0.0600000   2.521103e-04  1.063590e-07
    230    239   2   0.50000    -0.3300000    0.0600000   2.521103e-04  1.063590e-07
    233    237   2   0.50000    -0.1200000    0.0600000   2.494471e-04  1.671101e-07
    233    238   2   0.50000    -0.1200000    0.0600000   2.494471e-04  1.671101e-07
    233    239   2   0.50000    -0.1200000    0.0600000   2.494471e-04  1.671101e-07
    236    237   2   0.50000     0.0300000    0.0600000   3.930919e-05  8.704828e-09
    236    238   2   0.50000     0.0300000    0.0600000   3.930919e-05  8.704828e-09
    236    239   2   0.50000     0.0300000    0.0600000   3.930919e-05  8.704828e-09
    230    234   2   0.50000    -0.3300000    0.4500000   1.591836e-03  2.266501e-06
    230    240   2   0.50000    -0.3300000    0.0600000   1.616969e-04  6.187447e-08
    230    241   2   0.50000    -0.3300000    0.0600000   1.616969e-04  6.187447e-08
    232    234   2   0.50000    -0.1800000    0.4500000   1.575021e-03  3.561100e-06
    232    240   2   0.50000    -0.1800000    0.0600000   1.599888e-04  9.721644e-08
    232    241   2   0.50000    -0.1800000    0.0600000   1.599888e-04  9.721644e-08
    236    234   2   0.50000     0.0300000    0.4500000   2.482000e-04  1.854991e-07
    236    240   2   0.50000     0.0300000    0.0600000   2.521187e-05  5.064042e-09
    236    241   2   0.50000     0.0300000    0.0600000   2.521187e-05  5.064042e-09
    231    235   2   0.50000     0.2200000   -0.4500000   1.095425e-03  1.218041e-06
    231    242   2   0.50000     0.2200000    0.0000000   1.599888e-04  9.721644e-08
    240    235   2   0.50000     0.0600000   -0.4500000   1.726228e-04  6.344822e-08
    240    242   2   0.50000     0.0600000    0.0000000   2.521187e-05  5.064042e-09
    241    235   2   0.50000     0.0600000   -0.4500000   1.726228e-04  6.344822e-08
    241    242   2   0.50000     0.0600000    0.0000000   2.521187e-05  5.064042e-09

[ angles ]
; ai  aj  ak
      2      1     13   1    108.5000    460.2400
      1      2      3   1    109.5000    418.4000
      1      2      4   1    109.5000    418.4000
      1      2      7   1    109.5000    292.8800
      3      2      4   1    112.7000    488.2728
      3      2      7   1    110.7000    313.8000
      4      2      7   1    110.7000    313.8000
      2      3      8   1    110.7000    313.8000
      2      3      9   1    110.7000    313.8000
      2      3     10   1    110.7000    313.8000
      8      3      9   1    107.8000    276.1440
      8      3     10   1    107.8000    276.1440
      9      3     10   1    107.8000    276.1440
      2      4      5   1    111.1000    527.1840
      2      4     11   1    110.7000    313.8000
      2      4     12   1    110.7000    313.8000
      5      4     11   1    109.5000    292.8800
      5      4     12   1    109.5000    292.8800
     11      4     12   1    107.8000    276.1440
      4      5      6   1    120.4000    669.4400
      4      5     14   1    111.4000    677.8080
      6      5     14   1    123.4000    694.5440
      5     14     15   1    116.9000    694.5440
     14     15     16   1    109.5000    418.4000
     14     15     17   1    109.5000    418.4000
     14     15     20   1    109.5000    292.8800
     16     15     17   1    112.7000    488.2728
     16     15     20   1    110.7000    313.8000
     17     15     20   1    110.7000    313.8000
     15     16     21   1    110.7000    313.8000
     15     16     22   1    110.7000    313.8000
     15     16     23   1    110.7000    313.8000
     21     16     22   1    107.8000    276.1440
     21     16     23   1    107.8000    276.1440
     22     16     23   1    107.8000    276.1440
     15     17     18   1    111.1000    527.1840
     15     17     24   1    110.7000    313.8000
     15     17     25   1    110.7000    313.8000
     18     17     24   1    109.5000    292.8800
     18     17     25   1    109.5000    292.8800
     24     17     25   1    107.8000    276.1440
     17     18     19   1    120.4000    669.4400
     17     18     26   1    111.4000    677.8080
     19     18     26   1    123.4000    694.5440
     18     26     27   1    116.9000    694.5440
     26     27     28   1    109.5000    418.4000
     26     27     29   1    109.5000    418.4000
     26     27     32   1    109.5000    292.8800
     28     27     29   1    112.7000    488.2728
     28     27     32   1    110.7000    313.8000
     29     27     32   1    110.7000    313.8000
     27     28     33   1    110.7000    313.8000
     27     28     34   1    110.7000    313.8000
     27     28     35   1    110.7000    313.8000
     33     28     34   1    107.8000    276.1440
     33     28     35   1    107.8000    276.1440
     34     28     35   1    107.8000    276.1440
     27     29     30   1    111.1000    527.1840
     27     29     36   1    110.7000    313.8000
     27     29     37   1    110.7000    313.8000
     30     29     36   1    109.5000    292.8800
     30     29     37   1    109.5000    292.8800
     36     29     37   1    107.8000    276.1440
     29     30     31   1    120.4000    669.4400
     29     30     38   1    111.4000    677.8080
     31     30     38   1    123.4000    694.5440
     30     38     39   1    116.9000    694.5440
     38     39     40   1    109.5000    418.4000
     38     39     41   1    109.5000    418.4000
     38     39     44   1    109.5000    292.8800
     40     39     41   1    112.7000    488.2728
     40     39     44   1    110.7000    313.8000
     41     39     44   1    110.7000    313.8000
     39     40     45   1    110.7000    313.8000
     39     40     46   1    110.7000    313.8000
     39     40     47   1    110.7000    313.8000
     45     40     46   1    107.8000    276.1440
     45     40     47   1    107.8000    276.1440
     46     40     47   1    107.8000    276.1440
     39     41     42   1    111.1000    527.1840
     39     41     48   1    110.7000    313.8000
     39     41     49   1    110.7000    313.8000
     42     41     48   1    109.5000    292.8800
     42     41     49   1    109.5000    292.8800
     48     41     49   1    107.8000    276.1440
     41     42     43   1    120.4000    669.4400
     41     42     50   1    111.4000    677.8080
     43     42     50   1    123.4000    694.5440
     42     50     51   1    116.9000    694.5440
     50     51     52   1    109.5000    418.4000
     50     51     53   1    109.5000    418.4000
     50     51     56   1    109.5000    292.8800
     52     51     53   1    112.7000    488.2728
     52     51     56   1    110.7000    313.8000
     53     51     56   1    110.7000    313.8000
     51     52     57   1    110.7000    313.8000
     51     52     58   1    110.7000    313.8000
     51     52     59   1    110.7000    313.8000
     57     52     58   1    107.8000    276.1440
     57     52     59   1    107.8000    276.1440
     58     52     59   1    107.8000    276.1440
     51     53     54   1    111.1000    527.1840
     51     53     60   1    110.7000    313.8000
     51     53     61   1    110.7000    313.8000
     54     53     60   1    109.5000    292.8800
     54     53     61   1    109.5000    292.8800
     60     53     61   1    107.8000    276.1440
     53     54     55   1    120.4000    669.4400
     53     54     62   1    111.4000    677.8080
     55     54     62   1    123.4000    694.5440
     54     62     63   1    116.9000    694.5440
     62     63     64   1    109.5000    418.4000
     62     63     65   1    109.5000    418.4000
     62     63     68   1    109.5000    292.8800
     64     63     65   1    112.7000    488.2728
     64     63     68   1    110.7000    313.8000
     65     63     68   1    110.7000    313.8000
     63     64     69   1    110.7000    313.8000
     63     64     70   1    110.7000    313.8000
     63     64     71   1    110.7000    313.8000
     69     64     70   1    107.8000    276.1440
     69     64     71   1    107.8000    276.1440
     70     64     71   1    107.8000    276.1440
     63     65     66   1    111.1000    527.1840
     63     65     72   1    110.7000    313.8000
     63     65     73   1    110.7000    313.8000
     66     65     72   1    109.5000    292.8800
     66     65     73   1    109.5000    292.8800
     72     65     73   1    107.8000    276.1440
     65     66     67   1    120.4000    669.4400
     65     66     74   1    111.4000    677.8080
     67     66     74   1    123.4000    694.5440
     66     74     75   1    116.9000    694.5440
     74     75     76   1    109.5000    418.4000
     74     75     77   1    109.5000    418.4000
     74     75     80   1    109.5000    292.8800
     76     75     77   1    112.7000    488.2728
     76     75     80   1    110.7000    313.8000
     77     75     80   1    110.7000    313.8000
     75     76     81   1    110.7000    313.8000
     75     76     82   1    110.7000    313.8000
     75     76     83   1    110.7000    313.8000
     81     76     82   1    107.8000    276.1440
     81     76     83   1    107.8000    276.1440
     82     76     83   1    107.8000    276.1440
     75     77     78   1    111.1000    527.1840
     75     77     84   1    110.7000    313.8000
     75     77     85   1    110.7000    313.8000
     78     77     84   1    109.5000    292.8800
     78     77     85   1    109.5000    292.8800
     84     77     85   1    107.8000    276.1440
     77     78     79   1    120.4000    669.4400
     77     78     86   1    111.4000    677.8080
     79     78     86   1    123.4000    694.5440
     78     86     87   1    116.9000    694.5440
     86     87     88   1    109.5000    418.4000
     86     87     89   1    109.5000    418.4000
     86     87     92   1    109.5000    292.8800
     88     87     89   1    112.7000    488.2728
     88     87     92   1    110.7000    313.8000
     89     87     92   1    110.7000    313.8000
     87     88     93   1    110.7000    313.8000
     87     88     94   1    110.7000    313.8000
     87     88     95   1    110.7000    313.8000
     93     88     94   1    107.8000    276.1440
     93     88     95   1    107.8000    276.1440
     94     88     95   1    107.8000    276.1440
     87     89     90   1    111.1000    527.1840
     87     89     96   1    110.7000    313.8000
     87     89     97   1    110.7000    313.8000
     90     89     96   1    109.5000    292.8800
     90     89     97   1    109.5000    292.8800
     96     89     97   1    107.8000    276.1440
     89     90     91   1    120.4000    669.4400
     89     90     98   1    111.4000    677.8080
     91     90     98   1    123.4000    694.5440
     90     98     99   1    116.9000    694.5440
     98     99    100   1    109.5000    418.4000
     98     99    101   1    109.5000    418.4000
     98     99    104   1    109.5000    292.8800
    100     99    101   1    112.7000    488.2728
    100     99    104   1    110.7000    313.8000
    101     99    104   1    110.7000    313.8000
     99    100    105   1    110.7000    313.8000
     99    100    106   1    110.7000    313.8000
     99    100    107   1    110.7000    313.8000
    105    100    106   1    107.8000    276.1440
    105    100    107   1    107.8000    276.1440
    106    100    107   1    107.8000    276.1440
     99    101    102   1    111.1000    527.1840
     99    101    108   1    110.7000    313.8000
     99    101    109   1    110.7000    313.8000
    102    101    108   1    109.5000    292.8800
    102    101    109   1    109.5000    292.8800
    108    101    109   1    107.8000    276.1440
    101    102    103   1    120.4000    669.4400
    101    102    110   1    111.4000    677.8080
    103    102    110   1    123.4000    694.5440
    102    110    111   1    116.9000    694.5440
    110    111    112   1    109.5000    418.4000
    110    111    113   1    109.5000    418.4000
    110    111    116   1    109.5000    292.8800
    112    111    113   1    112.7000    488.2728
    112    111    116   1    110.7000    313.8000
    113    111    116   1    110.7000    313.8000
    111    112    117   1    110.7000    313.8000
    111    112    118   1    110.7000    313.8000
    111    112    119   1    110.7000    313.8000
    117    112    118   1    107.8000    276.1440
    117    112    119   1    107.8000    276.1440
    118    112    119   1    107.8000    276.1440
    111    113    114   1    111.1000    527.1840
    111    113    120   1    110.7000    313.8000
    111    113    121   1    110.7000    313.8000
    114    113    120   1    109.5000    292.8800
    114    113    121   1    109.5000    292.8800
    120    113    121   1    107.8000    276.1440
    113    114    115   1    120.4000    669.4400
    113    114    122   1    111.4000    677.8080
    115    114    122   1    123.4000    694.5440
    114    122    123   1    116.9000    694.5440
    122    123    124   1    109.5000    418.4000
    122    123    125   1    109.5000    418.4000
    122    123    128   1    109.5000    292.8800
    124    123    125   1    112.7000    488.2728
    124    123    128   1    110.7000    313.8000
    125    123    128   1    110.7000    313.8000
    123    124    129   1    110.7000    313.8000
    123    124    130   1    110.7000    313.8000
    123    124    131   1    110.7000    313.8000
    129    124    130   1    107.8000    276.1440
    129    124    131   1    107.8000    276.1440
    130    124    131   1    107.8000    276.1440
    123    125    126   1    111.1000    527.1840
    123    125    132   1    110.7000    313.8000
    123    125    133   1    110.7000    313.8000
    126    125    132   1    109.5000    292.8800
    126    125    133   1    109.5000    292.8800
    132    125    133   1    107.8000    276.1440
    125    126    127   1    120.4000    669.4400
    125    126    134   1    111.4000    677.8080
    127    126    134   1    123.4000    694.5440
    126    134    135   1    116.9000    694.5440
    134    135    136   1    109.5000    418.4000
    134    135    137   1    109.5000    418.4000
    134    135    140   1    109.5000    292.8800
    136    135    137   1    112.7000    488.2728
    136    135    140   1    110.7000    313.8000
    137    135    140   1    110.7000    313.8000
    135    136    141   1    110.7000    313.8000
    135    136    142   1    110.7000    313.8000
    135    136    143   1    110.7000    313.8000
    141    136    142   1    107.8000    276.1440
    141    136    143   1    107.8000    276.1440
    142    136    143   1    107.8000    276.1440
    135    137    138   1    111.1000    527.1840
    135    137    144   1    110.7000    313.8000
    135    137    145   1    110.7000    313.8000
    138    137    144   1    109.5000    292.8800
    138    137    145   1    109.5000    292.8800
    144    137    145   1    107.8000    276.1440
    137    138    139   1    120.4000    669.4400
    137    138    146   1    111.4000    677.8080
    139    138    146   1    123.4000    694.5440
    138    146    147   1    116.9000    694.5440
    146    147    148   1    109.5000    418.4000
    146    147    149   1    109.5000    418.4000
    146    147    152   1    109.5000    292.8800
    148    147    149   1    112.7000    488.2728
    148    147    152   1    110.7000    313.8000
    149    147    152   1    110.7000    313.8000
    147    148    153   1    110.7000    313.8000
    147    148    154   1    110.7000    313.8000
    147    148    155   1    110.7000    313.8000
    153    148    154   1    107.8000    276.1440
    153    148    155   1    107.8000    276.1440
    154    148    155   1    107.8000    276.1440
    147    149    150   1    111.1000    527.1840
    147    149    156   1    110.7000    313.8000
    147    149    157   1    110.7000    313.8000
    150    149    156   1    109.5000    292.8800
    150    149    157   1    109.5000    292.8800
    156    149    157   1    107.8000    276.1440
    149    150    151   1    120.4000    669.4400
    149    150    158   1    111.4000    677.8080
    151    150    158   1    123.4000    694.5440
    150    158    159   1    116.9000    694.5440
    158    159    160   1    109.5000    418.4000
    158    159    161   1    109.5000    418.4000
    158    159    164   1    109.5000    292.8800
    160    159    161   1    112.7000    488.2728
    160    159    164   1    110.7000    313.8000
    161    159    164   1    110.7000    313.8000
    159    160    165   1    110.7000    313.8000
    159    160    166   1    110.7000    313.8000
    159    160    167   1    110.7000    313.8000
    165    160    166   1    107.8000    276.1440
    165    160    167   1    107.8000    276.1440
    166    160    167   1    107.8000    276.1440
    159    161    162   1    111.1000    527.1840
    159    161    168   1    110.7000    313.8000
    159    161    169   1    110.7000    313.8000
    162    161    168   1    109.5000    292.8800
    162    161    169   1    109.5000    292.8800
    168    161    169   1    107.8000    276.1440
    161    162    163   1    120.4000    669.4400
    161    162    170   1    111.4000    677.8080
    163    162    170   1    123.4000    694.5440
    162    170    171   1    116.9000    694.5440
    170    171    172   1    109.5000    418.4000
    170    171    173   1    109.5000    418.4000
    170    171    176   1    109.5000    292.8800
    172    171    173   1    112.7000    488.2728
    172    171    176   1    110.7000    313.8000
    173    171    176   1    110.7000    313.8000
    171    172    177   1    110.7000    313.8000
    171    172    178   1    110.7000    313.8000
    171    172    179   1    110.7000    313.8000
    177    172    178   1    107.8000    276.1440
    177    172    179   1    107.8000    276.1440
    178    172    179   1    107.8000    276.1440
    171    173    174   1    111.1000    527.1840
    171    173    180   1    110.7000    313.8000
    171    173    181   1    110.7000    313.8000
    174    173    180   1    109.5000    292.8800
    174    173    181   1    109.5000    292.8800
    180    173    181   1    107.8000    276.1440
    173    174    175   1    120.4000    669.4400
    173    174    182   1    111.4000    677.8080
    175    174    182   1    123.4000    694.5440
    174    182    183   1    116.9000    694.5440
    182    183    184   1    109.5000    418.4000
    182    183    185   1    109.5000    418.4000
    182    183    188   1    109.5000    292.8800
    184    183    185   1    112.7000    488.2728
    184    183    188   1    110.7000    313.8000
    185    183    188   1    110.7000    313.8000
    183    184    189   1    110.7000    313.8000
    183    184    190   1    110.7000    313.8000
    183    184    191   1    110.7000    313.8000
    189    184    190   1    107.8000    276.1440
    189    184    191   1    107.8000    276.1440
    190    184    191   1    107.8000    276.1440
    183    185    186   1    111.1000    527.1840
    183    185    192   1    110.7000    313.8000
    183    185    193   1    110.7000    313.8000
    186    185    192   1    109.5000    292.8800
    186    185    193   1    109.5000    292.8800
    192    185    193   1    107.8000    276.1440
    185    186    187   1    120.4000    669.4400
    185    186    194   1    111.4000    677.8080
    187    186    194   1    123.4000    694.5440
    186    194    195   1    116.9000    694.5440
    194    195    196   1    109.5000    418.4000
    194    195    197   1    109.5000    418.4000
    194    195    200   1    109.5000    292.8800
    196    195    197   1    112.7000    488.2728
    196    195    200   1    110.7000    313.8000
    197    195    200   1    110.7000    313.8000
    195    196    201   1    110.7000    313.8000
    195    196    202   1    110.7000    313.8000
    195    196    203   1    110.7000    313.8000
    201    196    202   1    107.8000    276.1440
    201    196    203   1    107.8000    276.1440
    202    196    203   1    107.8000    276.1440
    195    197    198   1    111.1000    527.1840
    195    197    204   1    110.7000    313.8000
    195    197    205   1    110.7000    313.8000
    198    197    204   1    109.5000    292.8800
    198    197    205   1    109.5000    292.8800
    204    197    205   1    107.8000    276.1440
    197    198    199   1    120.4000    669.4400
    197    198    206   1    111.4000    677.8080
    199    198    206   1    123.4000    694.5440
    198    206    207   1    116.9000    694.5440
    206    207    208   1    109.5000    418.4000
    206    207    209   1    109.5000    418.4000
    206    207    212   1    109.5000    292.8800
    208    207    209   1    112.7000    488.2728
    208    207    212   1    110.7000    313.8000
    209    207    212   1    110.7000    313.8000
    207    208    213   1    110.7000    313.8000
    207    208    214   1    110.7000    313.8000
    207    208    215   1    110.7000    313.8000
    213    208    214   1    107.8000    276.1440
    213    208    215   1    107.8000    276.1440
    214    208    215   1    107.8000    276.1440
    207    209    210   1    111.1000    527.1840
    207    209    216   1    110.7000    313.8000
    207    209    217   1    110.7000    313.8000
    210    209    216   1    109.5000    292.8800
    210    209    217   1    109.5000    292.8800
    216    209    217   1    107.8000    276.1440
    209    210    211   1    120.4000    669.4400
    209    210    218   1    111.4000    677.8080
    211    210    218   1    123.4000    694.5440
    210    218    219   1    116.9000    694.5440
    218    219    220   1    109.5000    418.4000
    218    219    221   1    109.5000    418.4000
    218    219    224   1    109.5000    292.8800
    220    219    221   1    112.7000    488.2728
    220    219    224   1    110.7000    313.8000
    221    219    224   1    110.7000    313.8000
    219    220    225   1    110.7000    313.8000
    219    220    226   1    110.7000    313.8000
    219    220    227   1    110.7000    313.8000
    225    220    226   1    107.8000    276.1440
    225    220    227   1    107.8000    276.1440
    226    220    227   1    107.8000    276.1440
    219    221    222   1    111.1000    527.1840
    219    221    228   1    110.7000    313.8000
    219    221    229   1    110.7000    313.8000
    222    221    228   1    109.5000    292.8800
    222    221    229   1    109.5000    292.8800
    228    221    229   1    107.8000    276.1440
    221    222    223   1    120.4000    669.4400
    221    222    230   1    111.4000    677.8080
    223    222    230   1    123.4000    694.5440
    222    230    231   1    116.9000    694.5440
    230    231    232   1    109.5000    418.4000
    230    231    233   1    109.5000    418.4000
    230    231    236   1    109.5000    292.8800
    232    231    233   1    112.7000    488.2728
    232    231    236   1    110.7000    313.8000
    233    231    236   1    110.7000    313.8000
    231    232    237   1    110.7000    313.8000
    231    232    238   1    110.7000    313.8000
    231    232    239   1    110.7000    313.8000
    237    232    238   1    107.8000    276.1440
    237    232    239   1    107.8000    276.1440
    238    232    239   1    107.8000    276.1440
    231    233    234   1    111.1000    527.1840
    231    233    240   1    110.7000    313.8000
    231    233    241   1    110.7000    313.8000
    234    233    240   1    109.5000    292.8800
    234    233    241   1    109.5000    292.8800
    240    233    241   1    107.8000    276.1440
    233    234    235   1    120.4000    669.4400
    233    234    242   1    115.0000    292.8800
    235    234    242   1    123.0000    292.8800

[ dihedrals ]
; Proper dihedrals
     13      1      2      3   5    -0.97069    -0.79078     1.77820  0.0
     13      1      2      4   5    -0.97069    -0.79078     1.77820  0.0
     13      1      2      7   5     0.00000     0.00000     1.62758  0.0
      1      2      3      8   5     0.00000     0.00000     1.95811  0.0
      1      2      3      9   5     0.00000     0.00000     1.95811  0.0
      1      2      3     10   5     0.00000     0.00000     1.95811  0.0
      4      2      3      8   5     0.00000     0.00000     1.25520  0.0
      4      2      3      9   5     0.00000     0.00000     1.25520  0.0
      4      2      3     10   5     0.00000     0.00000     1.25520  0.0
      7      2      3      8   5     0.00000     0.00000     1.25520  0.0
      7      2      3      9   5     0.00000     0.00000     1.25520  0.0
      7      2      3     10   5     0.00000     0.00000     1.25520  0.0
      1      2      4      5   5    -0.79078    -9.45166     4.51872  0.0
      1      2      4     11   5     0.00000     0.00000     1.95811  0.0
      1      2      4     12   5     0.00000     0.00000     1.95811  0.0
      3      2      4      5   5    -8.00818    -1.52298     2.46438  0.0
      3      2      4     11   5     0.00000     0.00000     1.25520  0.0
      3      2      4     12   5     0.00000     0.00000     1.25520  0.0
      7      2      4      5   5     0.00000     0.00000    -0.94140  0.0
      7      2      4     11   5     0.00000     0.00000     1.25520  0.0
      7      2      4     12   5     0.00000     0.00000     1.25520  0.0
      2      4      5      6   5     0.00000     2.52295     0.00000  0.0
      2      4      5     14   5     0.00000     0.00000     3.07524  0.0
     11      4      5      6   5     0.00000     0.00000     0.00000  0.0
     11      4      5     14   5     0.00000     0.00000     0.00000  0.0
     12      4      5      6   5     0.00000     0.00000     0.00000  0.0
     12      4      5     14   5     0.00000     0.00000     0.00000  0.0
      4      5     14     15   5    13.65239    24.43456     0.00000  0.0
      6      5     14     15   5     0.00000    25.10400     0.00000  0.0
      5     14     15     16   5    -2.16731    -3.93296     0.98324  0.0
      5     14     15     17   5    -2.16731    -3.93296     0.98324  0.0
      5     14     15     20   5     0.00000     0.00000     0.67362  0.0
     14     15     16     21   5     0.00000     0.00000     1.95811  0.0
     14     15     16     22   5     0.00000     0.00000     1.95811  0.0
     14     15     16     23   5     0.00000     0.00000     1.95811  0.0
     17     15     16     21   5     0.00000     0.00000     1.25520  0.0
     17     15     16     22   5     0.00000     0.00000     1.25520  0.0
     17     15     16     23   5     0.00000     0.00000     1.25520  0.0
     20     15     16     21   5     0.00000     0.00000     1.25520  0.0
     20     15     16     22   5     0.00000     0.00000     1.25520  0.0
     20     15     16     23   5     0.00000     0.00000     1.25520  0.0
     14     15     17     18   5    -0.79078    -9.45166     4.51872  0.0
     14     15     17     24   5     0.00000     0.00000     1.95811  0.0
     14     15     17     25   5     0.00000     0.00000     1.95811  0.0
     16     15     17     18   5    -8.00818    -1.52298     2.46438  0.0
     16     15     17     24   5     0.00000     0.00000     1.25520  0.0
     16     15     17     25   5     0.00000     0.00000     1.25520  0.0
     20     15     17     18   5     0.00000     0.00000    -0.94140  0.0
     20     15     17     24   5     0.00000     0.00000     1.25520  0.0
     20     15     17     25   5     0.00000     0.00000     1.25520  0.0
     15     17     18     19   5     0.00000     2.52295     0.00000  0.0
     15     17     18     26   5     0.00000     0.00000     3.07524  0.0
     24     17     18     19   5     0.00000     0.00000     0.00000  0.0
     24     17     18     26   5     0.00000     0.00000     0.00000  0.0
     25     17     18     19   5     0.00000     0.00000     0.00000  0.0
     25     17     18     26   5     0.00000     0.00000     0.00000  0.0
     17     18     26     27   5    13.65239    24.43456     0.00000  0.0
     19     18     26     27   5     0.00000    25.10400     0.00000  0.0
     18     26     27     28   5    -2.16731    -3.93296     0.98324  0.0
     18     26     27     29   5    -2.16731    -3.93296     0.98324  0.0
     18     26     27     32   5     0.00000     0.00000     0.67362  0.0
     26     27     28     33   5     0.00000     0.00000     1.95811  0.0
     26     27     28     34   5     0.00000     0.00000     1.95811  0.0
     26     27     28     35   5     0.00000     0.00000     1.95811  0.0
     29     27     28     33   5     0.00000     0.00000     1.25520  0.0
     29     27     28     34   5     0.00000     0.00000     1.25520  0.0
     29     27     28     35   5     0.00000     0.00000     1.25520  0.0
     32     27     28     33   5     0.00000     0.00000     1.25520  0.0
     32     27     28     34   5     0.00000     0.00000     1.25520  0.0
     32     27     28     35   5     0.00000     0.00000     1.25520  0.0
     26     27     29     30   5    -0.79078    -9.45166     4.51872  0.0
     26     27     29     36   5     0.00000     0.00000     1.95811  0.0
     26     27     29     37   5     0.00000     0.00000     1.95811  0.0
     28     27     29     30   5    -8.00818    -1.52298     2.46438  0.0
     28     27     29     36   5     0.00000     0.00000     1.25520  0.0
     28     27     29     37   5     0.00000     0.00000     1.25520  0.0
     32     27     29     30   5     0.00000     0.00000    -0.94140  0.0
     32     27     29     36   5     0.00000     0.00000     1.25520  0.0
     32     27     29     37   5     0.00000     0.00000     1.25520  0.0
     27     29     30     31   5     0.00000     2.52295     0.00000  0.0
     27     29     30     38   5     0.00000     0.00000     3.07524  0.0
     36     29     30     31   5     0.00000     0.00000     0.00000  0.0
     36     29     30     38   5     0.00000     0.00000     0.00000  0.0
     37     29     30     31   5     0.00000     0.00000     0.00000  0.0
     37     29     30     38   5     0.00000     0.00000     0.00000  0.0
     29     30     38     39   5    13.65239    24.43456     0.00000  0.0
     31     30     38     39   5     0.00000    25.10400     0.00000  0.0
     30     38     39     40   5    -2.16731    -3.93296     0.98324  0.0
     30     38     39     41   5    -2.16731    -3.93296     0.98324  0.0
     30     38     39     44   5     0.00000     0.00000     0.67362  0.0
     38     39     40     45   5     0.00000     0.00000     1.95811  0.0
     38     39     40     46   5     0.00000     0.00000     1.95811  0.0
     38     39     40     47   5     0.00000     0.00000     1.95811  0.0
     41     39     40     45   5     0.00000     0.00000     1.25520  0.0
     41     39     40     46   5     0.00000     0.00000     1.25520  0.0
     41     39     40     47   5     0.00000     0.00000     1.25520  0.0
     44     39     40     45   5     0.00000     0.00000     1.25520  0.0
     44     39     40     46   5     0.00000     0.00000     1.25520  0.0
     44     39     40     47   5     0.00000     0.00000     1.25520  0.0
     38     39     41     42   5    -0.79078    -9.45166     4.51872  0.0
     38     39     41     48   5     0.00000     0.00000     1.95811  0.0
     38     39     41     49   5     0.00000     0.00000     1.95811  0.0
     40     39     41     42   5    -8.00818    -1.52298     2.46438  0.0
     40     39     41     48   5     0.00000     0.00000     1.25520  0.0
     40     39     41     49   5     0.00000     0.00000     1.25520  0.0
     44     39     41     42   5     0.00000     0.00000    -0.94140  0.0
     44     39     41     48   5     0.00000     0.00000     1.25520  0.0
     44     39     41     49   5     0.00000     0.00000     1.25520  0.0
     39     41     42     43   5     0.00000     2.52295     0.00000  0.0
     39     41     42     50   5     0.00000     0.00000     3.07524  0.0
     48     41     42     43   5     0.00000     0.00000     0.00000  0.0
     48     41     42     50   5     0.00000     0.00000     0.00000  0.0
     49     41     42     43   5     0.00000     0.00000     0.00000  0.0
     49     41     42     50   5     0.00000     0.00000     0.00000  0.0
     41     42     50     51   5    13.65239    24.43456     0.00000  0.0
     43     42     50     51   5     0.00000    25.10400     0.00000  0.0
     42     50     51     52   5    -2.16731    -3.93296     0.98324  0.0
     42     50     51     53   5    -2.16731    -3.93296     0.98324  0.0
     42     50     51     56   5     0.00000     0.00000     0.67362  0.0
     50     51     52     57   5     0.00000     0.00000     1.95811  0.0
     50     51     52     58   5     0.00000     0.00000     1.95811  0.0
     50     51     52     59   5     0.00000     0.00000     1.95811  0.0
     53     51     52     57   5     0.00000     0.00000     1.25520  0.0
     53     51     52     58   5     0.00000     0.00000     1.25520  0.0
     53     51     52     59   5     0.00000     0.00000     1.25520  0.0
     56     51     52     57   5     0.00000     0.00000     1.25520  0.0
     56     51     52     58   5     0.00000     0.00000     1.25520  0.0
     56     51     52     59   5     0.00000     0.00000     1.25520  0.0
     50     51     53     54   5    -0.79078    -9.45166     4.51872  0.0
     50     51     53     60   5     0.00000     0.00000     1.95811  0.0
     50     51     53     61   5     0.00000     0.00000     1.95811  0.0
     52     51     53     54   5    -8.00818    -1.52298     2.46438  0.0
     52     51     53     60   5     0.00000     0.00000     1.25520  0.0
     52     51     53     61   5     0.00000     0.00000     1.25520  0.0
     56     51     53     54   5     0.00000     0.00000    -0.94140  0.0
     56     51     53     60   5     0.00000     0.00000     1.25520  0.0
     56     51     53     61   5     0.00000     0.00000     1.25520  0.0
     51     53     54     55   5     0.00000     2.52295     0.00000  0.0
     51     53     54     62   5     0.00000     0.00000     3.07524  0.0
     60     53     54     55   5     0.00000     0.00000     0.00000  0.0
     60     53     54     62   5     0.00000     0.00000     0.00000  0.0
     61     53     54     55   5     0.00000     0.00000     0.00000  0.0
     61     53     54     62   5     0.00000     0.00000     0.00000  0.0
     53     54     62     63   5    13.65239    24.43456     0.00000  0.0
     55     54     62     63   5     0.00000    25.10400     0.00000  0.0
     54     62     63     64   5    -2.16731    -3.93296     0.98324  0.0
     54     62     63     65   5    -2.16731    -3.93296     0.98324  0.0
     54     62     63     68   5     0.00000     0.00000     0.67362  0.0
     62     63     64     69   5     0.00000     0.00000     1.95811  0.0
     62     63     64     70   5     0.00000     0.00000     1.95811  0.0
     62     63     64     71   5     0.00000     0.00000     1.95811  0.0
     65     63     64     69   5     0.00000     0.00000     1.25520  0.0
     65     63     64     70   5     0.00000     0.00000     1.25520  0.0
     65     63     64     71   5     0.00000     0.00000     1.25520  0.0
     68     63     64     69   5     0.00000     0.00000     1.25520  0.0
     68     63     64     70   5     0.00000     0.00000     1.25520  0.0
     68     63     64     71   5     0.00000     0.00000     1.25520  0.0
     62     63     65     66   5    -0.79078    -9.45166     4.51872  0.0
     62     63     65     72   5     0.00000     0.00000     1.95811  0.0
     62     63     65     73   5     0.00000     0.00000     1.95811  0.0
     64     63     65     66   5    -8.00818    -1.52298     2.46438  0.0
     64     63     65     72   5     0.00000     0.00000     1.25520  0.0
     64     63     65     73   5     0.00000     0.00000     1.25520  0.0
     68     63     65     66   5     0.00000     0.00000    -0.94140  0.0
     68     63     65     72   5     0.00000     0.00000     1.25520  0.0
     68     63     65     73   5     0.00000     0.00000     1.25520  0.0
     63     65     66     67   5     0.00000     2.52295     0.00000  0.0
     63     65     66     74   5     0.00000     0.00000     3.07524  0.0
     72     65     66     67   5     0.00000     0.00000     0.00000  0.0
     72     65     66     74   5     0.00000     0.00000     0.00000  0.0
     73     65     66     67   5     0.00000     0.00000     0.00000  0.0
     73     65     66     74   5     0.00000     0.00000     0.00000  0.0
     65     66     74     75   5    13.65239    24.43456     0.00000  0.0
     67     66     74     75   5     0.00000    25.10400     0.00000  0.0
     66     74     75     76   5    -2.16731    -3.93296     0.98324  0.0
     66     74     75     77   5    -2.16731    -3.93296     0.98324  0.0
     66     74     75     80   5     0.00000     0.00000     0.67362  0.0
     74     75     76     81   5     0.00000     0.00000     1.95811  0.0
     74     75     76     82   5     0.00000     0.00000     1.95811  0.0
     74     75     76     83   5     0.00000     0.00000     1.95811  0.0
     77     75     76     81   5     0.00000     0.00000     1.25520  0.0
     77     75     76     82   5     0.00000     0.00000     1.25520  0.0
     77     75     76     83   5     0.00000     0.00000     1.25520  0.0
     80     75     76     81   5     0.00000     0.00000     1.25520  0.0
     80     75     76     82   5     0.00000     0.00000     1.25520  0.0
     80     75     76     83   5     0.00000     0.00000     1.25520  0.0
     74     75     77     78   5    -0.79078    -9.45166     4.51872  0.0
     74     75     77     84   5     0.00000     0.00000     1.95811  0.0
     74     75     77     85   5     0.00000     0.00000     1.95811  0.0
     76     75     77     78   5    -8.00818    -1.52298     2.46438  0.0
     76     75     77     84   5     0.00000     0.00000     1.25520  0.0
     76     75     77     85   5     0.00000     0.00000     1.25520  0.0
     80     75     77     78   5     0.00000     0.00000    -0.94140  0.0
     80     75     77     84   5     0.00000     0.00000     1.25520  0.0
     80     75     77     85   5     0.00000     0.00000     1.25520  0.0
     75     77     78     79   5     0.00000     2.52295     0.00000  0.0
     75     77     78     86   5     0.00000     0.00000     3.07524  0.0
     84     77     78     79   5     0.00000     0.00000     0.00000  0.0
     84     77     78     86   5     0.00000     0.00000     0.00000  0.0
     85     77     78     79   5     0.00000     0.00000     0.00000  0.0
     85     77     78     86   5     0.00000     0.00000     0.00000  0.0
     77     78     86     87   5    13.65239    24.43456     0.00000  0.0
     79     78     86     87   5     0.00000    25.10400     0.00000  0.0
     78     86     87     88   5    -2.16731    -3.93296     0.98324  0.0
     78     86     87     89   5    -2.16731    -3.93296     0.98324  0.0
     78     86     87     92   5     0.00000     0.00000     0.67362  0.0
     86     87     88     93   5     0.00000     0.00000     1.95811  0.0
     86     87     88     94   5     0.00000     0.00000     1.95811  0.0
     86     87     88     95   5     0.00000     0.00000     1.95811  0.0
     89     87     88     93   5     0.00000     0.00000     1.25520  0.0
     89     87     88     94   5     0.00000     0.00000     1.25520  0.0
     89     87     88     95   5     0.00000     0.00000     1.25520  0.0
     92     87     88     93   5     0.00000     0.00000     1.25520  0.0
     92     87     88     94   5     0.00000     0.00000     1.25520  0.0
     92     87     88     95   5     0.00000     0.00000     1.25520  0.0
     86     87     89     90   5    -0.79078    -9.45166     4.51872  0.0
     86     87     89     96   5     0.00000     0.00000     1.95811  0.0
     86     87     89     97   5     0.00000     0.00000     1.95811  0.0
     88     87     89     90   5    -8.00818    -1.52298     2.46438  0.0
     88     87     89     96   5     0.00000     0.00000     1.25520  0.0
     88     87     89     97   5     0.00000     0.00000     1.25520  0.0
     92     87     89     90   5     0.00000     0.00000    -0.94140  0.0
     92     87     89     96   5     0.00000     0.00000     1.25520  0.0
     92     87     89     97   5     0.00000     0.00000     1.25520  0.0
     87     89     90     91   5     0.00000     2.52295     0.00000  0.0
     87     89     90     98   5     0.00000     0.00000     3.07524  0.0
     96     89     90     91   5     0.00000     0.00000     0.00000  0.0
     96     89     90     98   5     0.00000     0.00000     0.00000  0.0
     97     89     90     91   5     0.00000     0.00000     0.00000  0.0
     97     89     90     98   5     0.00000     0.00000     0.00000  0.0
     89     90     98     99   5    13.65239    24.43456     0.00000  0.0
     91     90     98     99   5     0.00000    25.10400     0.00000  0.0
     90     98     99    100   5    -2.16731    -3.93296     0.98324  0.0
     90     98     99    101   5    -2.16731    -3.93296     0.98324  0.0
     90     98     99    104   5     0.00000     0.00000     0.67362  0.0
     98     99    100    105   5     0.00000     0.00000     1.95811  0.0
     98     99    100    106   5     0.00000     0.00000     1.95811  0.0
     98     99    100    107   5     0.00000     0.00000     1.95811  0.0
    101     99    100    105   5     0.00000     0.00000     1.25520  0.0
    101     99    100    106   5     0.00000     0.00000     1.25520  0.0
    101     99    100    107   5     0.00000     0.00000     1.25520  0.0
    104     99    100    105   5     0.00000     0.00000     1.25520  0.0
    104     99    100    106   5     0.00000     0.00000     1.25520  0.0
    104     99    100    107   5     0.00000     0.00000     1.25520  0.0
     98     99    101    102   5    -0.79078    -9.45166     4.51872  0.0
     98     99    101    108   5     0.00000     0.00000     1.95811  0.0
     98     99    101    109   5     0.00000     0.00000     1.95811  0.0
    100     99    101    102   5    -8.00818    -1.52298     2.46438  0.0
    100     99    101    108   5     0.00000     0.00000     1.25520  0.0
    100     99    101    109   5     0.00000     0.00000     1.25520  0.0
    104     99    101    102   5     0.00000     0.00000    -0.94140  0.0
    104     99    101    108   5     0.00000     0.00000     1.25520  0.0
    104     99    101    109   5     0.00000     0.00000     1.25520  0.0
     99    101    102    103   5     0.00000     2.52295     0.00000  0.0
     99    101    102    110   5     0.00000     0.00000     3.07524  0.0
    108    101    102    103   5     0.00000     0.00000     0.00000  0.0
    108    101    102    110   5     0.00000     0.00000     0.00000  0.0
    109    101    102    103   5     0.00000     0.00000     0.00000  0.0
    109    101    102    110   5     0.00000     0.00000     0.00000  0.0
    101    102    110    111   5    13.65239    24.43456     0.00000  0.0
    103    102    110    111   5     0.00000    25.10400     0.00000  0.0
    102    110    111    112   5    -2.16731    -3.93296     0.98324  0.0
    102    110    111    113   5    -2.16731    -3.93296     0.98324  0.0
    102    110    111    116   5     0.00000     0.00000     0.67362  0.0
    110    111    112    117   5     0.00000     0.00000     1.95811  0.0
    110    111    112    118   5     0.00000     0.00000     1.95811  0.0
    110    111    112    119   5     0.00000     0.00000     1.95811  0.0
    113    111    112    117   5     0.00000     0.00000     1.25520  0.0
    113    111    112    118   5     0.00000     0.00000     1.25520  0.0
    113    111    112    119   5     0.00000     0.00000     1.25520  0.0
    116    111    112    117   5     0.00000     0.00000     1.25520  0.0
    116    111    112    118   5     0.00000     0.00000     1.25520  0.0
    116    111    112    119   5     0.00000     0.00000     1.25520  0.0
    110    111    113    114   5    -0.79078    -9.45166     4.51872  0.0
    110    111    113    120   5     0.00000     0.00000     1.95811  0.0
    110    111    113    121   5     0.00000     0.00000     1.95811  0.0
    112    111    113    114   5    -8.00818    -1.52298     2.46438  0.0
    112    111    113    120   5     0.00000     0.00000     1.25520  0.0
    112    111    113    121   5     0.00000     0.00000     1.25520  0.0
    116    111    113    114   5     0.00000     0.00000    -0.94140  0.0
    116    111    113    120   5     0.00000     0.00000     1.25520  0.0
    116    111    113    121   5     0.00000     0.00000     1.25520  0.0
    111    113    114    115   5     0.00000     2.52295     0.00000  0.0
    111    113    114    122   5     0.00000     0.00000     3.07524  0.0
    120    113    114    115   5     0.00000     0.00000     0.00000  0.0
    120    113    114    122   5     0.00000     0.00000     0.00000  0.0
    121    113    114    115   5     0.00000     0.00000     0.00000  0.0
    121    113    114    122   5     0.00000     0.00000     0.00000  0.0
    113    114    122    123   5    13.65239    24.43456     0.00000  0.0
    115    114    122    123   5     0.00000    25.10400     0.00000  0.0
    114    122    123    124   5    -2.16731    -3.93296     0.98324  0.0
    114    122    123    125   5    -2.16731    -3.93296     0.98324  0.0
    114    122    123    128   5     0.00000     0.00000     0.67362  0.0
    122    123    124    129   5     0.00000     0.00000     1.95811  0.0
    122    123    124    130   5     0.00000     0.00000     1.95811  0.0
    122    123    124    131   5     0.00000     0.00000     1.95811  0.0
    125    123    124    129   5     0.00000     0.00000     1.25520  0.0
    125    123    124    130   5     0.00000     0.00000     1.25520  0.0
    125    123    124    131   5     0.00000     0.00000     1.25520  0.0
    128    123    124    129   5     0.00000     0.00000     1.25520  0.0
    128    123    124    130   5     0.00000     0.00000     1.25520  0.0
    128    123    124    131   5     0.00000     0.00000     1.25520  0.0
    122    123    125    126   5    -0.79078    -9.45166     4.51872  0.0
    122    123    125    132   5     0.00000     0.00000     1.95811  0.0
    122    123    125    133   5     0.00000     0.00000     1.95811  0.0
    124    123    125    126   5    -8.00818    -1.52298     2.46438  0.0
    124    123    125    132   5     0.00000     0.00000     1.25520  0.0
    124    123    125    133   5     0.00000     0.00000     1.25520  0.0
    128    123    125    126   5     0.00000     0.00000    -0.94140  0.0
    128    123    125    132   5     0.00000     0.00000     1.25520  0.0
    128    123    125    133   5     0.00000     0.00000     1.25520  0.0
    123    125    126    127   5     0.00000     2.52295     0.00000  0.0
    123    125    126    134   5     0.00000     0.00000     3.07524  0.0
    132    125    126    127   5     0.00000     0.00000     0.00000  0.0
    132    125    126    134   5     0.00000     0.00000     0.00000  0.0
    133    125    126    127   5     0.00000     0.00000     0.00000  0.0
    133    125    126    134   5     0.00000     0.00000     0.00000  0.0
    125    126    134    135   5    13.65239    24.43456     0.00000  0.0
    127    126    134    135   5     0.00000    25.10400     0.00000  0.0
    126    134    135    136   5    -2.16731    -3.93296     0.98324  0.0
    126    134    135    137   5    -2.16731    -3.93296     0.98324  0.0
    126    134    135    140   5     0.00000     0.00000     0.67362  0.0
    134    135    136    141   5     0.00000     0.00000     1.95811  0.0
    134    135    136    142   5     0.00000     0.00000     1.95811  0.0
    134    135    136    143   5     0.00000     0.00000     1.95811  0.0
    137    135    136    141   5     0.00000     0.00000     1.25520  0.0
    137    135    136    142   5     0.00000     0.00000     1.25520  0.0
    137    135    136    143   5     0.00000     0.00000     1.25520  0.0
    140    135    136    141   5     0.00000     0.00000     1.25520  0.0
    140    135    136    142   5     0.00000     0.00000     1.25520  0.0
    140    135    136    143   5     0.00000     0.00000     1.25520  0.0
    134    135    137    138   5    -0.79078    -9.45166     4.51872  0.0
    134    135    137    144   5     0.00000     0.00000     1.95811  0.0
    134    135    137    145   5     0.00000     0.00000     1.95811  0.0
    136    135    137    138   5    -8.00818    -1.52298     2.46438  0.0
    136    135    137    144   5     0.00000     0.00000     1.25520  0.0
    136    135    137    145   5     0.00000     0.00000     1.25520  0.0
    140    135    137    138   5     0.00000     0.00000    -0.94140  0.0
    140    135    137    144   5     0.00000     0.00000     1.25520  0.0
    140    135    137    145   5     0.00000     0.00000     1.25520  0.0
    135    137    138    139   5     0.00000     2.52295     0.00000  0.0
    135    137    138    146   5     0.00000     0.00000     3.07524  0.0
    144    137    138    139   5     0.00000     0.00000     0.00000  0.0
    144    137    138    146   5     0.00000     0.00000     0.00000  0.0
    145    137    138    139   5     0.00000     0.00000     0.00000  0.0
    145    137    138    146   5     0.00000     0.00000     0.00000  0.0
    137    138    146    147   5    13.65239    24.43456     0.00000  0.0
    139    138    146    147   5     0.00000    25.10400     0.00000  0.0
    138    146    147    148   5    -2.16731    -3.93296     0.98324  0.0
    138    146    147    149   5    -2.16731    -3.93296     0.98324  0.0
    138    146    147    152   5     0.00000     0.00000     0.67362  0.0
    146    147    148    153   5     0.00000     0.00000     1.95811  0.0
    146    147    148    154   5     0.00000     0.00000     1.95811  0.0
    146    147    148    155   5     0.00000     0.00000     1.95811  0.0
    149    147    148    153   5     0.00000     0.00000     1.25520  0.0
    149    147    148    154   5     0.00000     0.00000     1.25520  0.0
    149    147    148    155   5     0.00000     0.00000     1.25520  0.0
    152    147    148    153   5     0.00000     0.00000     1.25520  0.0
    152    147    148    154   5     0.00000     0.00000     1.25520  0.0
    152    147    148    155   5     0.00000     0.00000     1.25520  0.0
    146    147    149    150   5    -0.79078    -9.45166     4.51872  0.0
    146    147    149    156   5     0.00000     0.00000     1.95811  0.0
    146    147    149    157   5     0.00000     0.00000     1.95811  0.0
    148    147    149    150   5    -8.00818    -1.52298     2.46438  0.0
    148    147    149    156   5     0.00000     0.00000     1.25520  0.0
    148    147    149    157   5     0.00000     0.00000     1.25520  0.0
    152    147    149    150   5     0.00000     0.00000    -0.94140  0.0
    152    147    149    156   5     0.00000     0.00000     1.25520  0.0
    152    147    149    157   5     0.00000     0.00000     1.25520  0.0
    147    149    150    151   5     0.00000     2.52295     0.00000  0.0
    147    149    150    158   5     0.00000     0.00000     3.07524  0.0
    156    149    150    151   5     0.00000     0.00000     0.00000  0.0
    156    149    150    158   5     0.00000     0.00000     0.00000  0.0
    157    149    150    151   5     0.00000     0.00000     0.00000  0.0
    157    149    150    158   5     0.00000     0.00000     0.00000  0.0
    149    150    158    159   5    13.65239    24.43456     0.00000  0.0
    151    150    158    159   5     0.00000    25.10400     0.00000  0.0
    150    158    159    160   5    -2.16731    -3.93296     0.98324  0.0
    150    158    159    161   5    -2.16731    -3.93296     0.98324  0.0
    150    158    159    164   5     0.00000     0.00000     0.67362  0.0
    158    159    160    165   5     0.00000     0.00000     1.95811  0.0
    158    159    160    166   5     0.00000     0.00000     1.95811  0.0
    158    159    160    167   5     0.00000     0.00000     1.95811  0.0
    161    159    160    165   5     0.00000     0.00000     1.25520  0.0
    161    159    160    166   5     0.00000     0.00000     1.25520  0.0
    161    159    160    167   5     0.00000     0.00000     1.25520  0.0
    164    159    160    165   5     0.00000     0.00000     1.25520  0.0
    164    159    160    166   5     0.00000     0.00000     1.25520  0.0
    164    159    160    167   5     0.00000     0.00000     1.25520  0.0
    158    159    161    162   5    -0.79078    -9.45166     4.51872  0.0
    158    159    161    168   5     0.00000     0.00000     1.95811  0.0
    158    159    161    169   5     0.00000     0.00000     1.95811  0.0
    160    159    161    162   5    -8.00818    -1.52298     2.46438  0.0
    160    159    161    168   5     0.00000     0.00000     1.25520  0.0
    160    159    161    169   5     0.00000     0.00000     1.25520  0.0
    164    159    161    162   5     0.00000     0.00000    -0.94140  0.0
    164    159    161    168   5     0.00000     0.00000     1.25520  0.0
    164    159    161    169   5     0.00000     0.00000     1.25520  0.0
    159    161    162    163   5     0.00000     2.52295     0.00000  0.0
    159    161    162    170   5     0.00000     0.00000     3.07524  0.0
    168    161    162    163   5     0.00000     0.00000     0.00000  0.0
    168    161    162    170   5     0.00000     0.00000     0.00000  0.0
    169    161    162    163   5     0.00000     0.00000     0.00000  0.0
    169    161    162    170   5     0.00000     0.00000     0.00000  0.0
    161    162    170    171   5    13.65239    24.43456     0.00000  0.0
    163    162    170    171   5     0.00000    25.10400     0.00000  0.0
    162    170    171    172   5    -2.16731    -3.93296     0.98324  0.0
    162    170    171    173   5    -2.16731    -3.93296     0.98324  0.0
    162    170    171    176   5     0.00000     0.00000     0.67362  0.0
    170    171    172    177   5     0.00000     0.00000     1.95811  0.0
    170    171    172    178   5     0.00000     0.00000     1.95811  0.0
    170    171    172    179   5     0.00000     0.00000     1.95811  0.0
    173    171    172    177   5     0.00000     0.00000     1.25520  0.0
    173    171    172    178   5     0.00000     0.00000     1.25520  0.0
    173    171    172    179   5     0.00000     0.00000     1.25520  0.0
    176    171    172    177   5     0.00000     0.00000     1.25520  0.0
    176    171    172    178   5     0.00000     0.00000     1.25520  0.0
    176    171    172    179   5     0.00000     0.00000     1.25520  0.0
    170    171    173    174   5    -0.79078    -9.45166     4.51872  0.0
    170    171    173    180   5     0.00000     0.00000     1.95811  0.0
    170    171    173    181   5     0.00000     0.00000     1.95811  0.0
    172    171    173    174   5    -8.00818    -1.52298     2.46438  0.0
    172    171    173    180   5     0.00000     0.00000     1.25520  0.0
    172    171    173    181   5     0.00000     0.00000     1.25520  0.0
    176    171    173    174   5     0.00000     0.00000    -0.94140  0.0
    176    171    173    180   5     0.00000     0.00000     1.25520  0.0
    176    171    173    181   5     0.00000     0.00000     1.25520  0.0
    171    173    174    175   5     0.00000     2.52295     0.00000  0.0
    171    173    174    182   5     0.00000     0.00000     3.07524  0.0
    180    173    174    175   5     0.00000     0.00000     0.00000  0.0
    180    173    174    182   5     0.00000     0.00000     0.00000  0.0
    181    173    174    175   5     0.00000     0.00000     0.00000  0.0
    181    173    174    182   5     0.00000     0.00000     0.00000  0.0
    173    174    182    183   5    13.65239    24.43456     0.00000  0.0
    175    174    182    183   5     0.00000    25.10400     0.00000  0.0
    174    182    183    184   5    -2.16731    -3.93296     0.98324  0.0
    174    182    183    185   5    -2.16731    -3.93296     0.98324  0.0
    174    182    183    188   5     0.00000     0.00000     0.67362  0.0
    182    183    184    189   5     0.00000     0.00000     1.95811  0.0
    182    183    184    190   5     0.00000     0.00000     1.95811  0.0
    182    183    184    191   5     0.00000     0.00000     1.95811  0.0
    185    183    184    189   5     0.00000     0.00000     1.25520  0.0
    185    183    184    190   5     0.00000     0.00000     1.25520  0.0
    185    183    184    191   5     0.00000     0.00000     1.25520  0.0
    188    183    184    189   5     0.00000     0.00000     1.25520  0.0
    188    183    184    190   5     0.00000     0.00000     1.25520  0.0
    188    183    184    191   5     0.00000     0.00000     1.25520  0.0
    182    183    185    186   5    -0.79078    -9.45166     4.51872  0.0
    182    183    185    192   5     0.00000     0.00000     1.95811  0.0
    182    183    185    193   5     0.00000     0.00000     1.95811  0.0
    184    183    185    186   5    -8.00818    -1.52298     2.46438  0.0
    184    183    185    192   5     0.00000     0.00000     1.25520  0.0
    184    183    185    193   5     0.00000     0.00000     1.25520  0.0
    188    183    185    186   5     0.00000     0.00000    -0.94140  0.0
    188    183    185    192   5     0.00000     0.00000     1.25520  0.0
    188    183    185    193   5     0.00000     0.00000     1.25520  0.0
    183    185    186    187   5     0.00000     2.52295     0.00000  0.0
    183    185    186    194   5     0.00000     0.00000     3.07524  0.0
    192    185    186    187   5     0.00000     0.00000     0.00000  0.0
    192    185    186    194   5     0.00000     0.00000     0.00000  0.0
    193    185    186    187   5     0.00000     0.00000     0.00000  0.0
    193    185    186    194   5     0.00000     0.00000     0.00000  0.0
    185    186    194    195   5    13.65239    24.43456     0.00000  0.0
    187    186    194    195   5     0.00000    25.10400     0.00000  0.0
    186    194    195    196   5    -2.16731    -3.93296     0.98324  0.0
    186    194    195    197   5    -2.16731    -3.93296     0.98324  0.0
    186    194    195    200   5     0.00000     0.00000     0.67362  0.0
    194    195    196    201   5     0.00000     0.00000     1.95811  0.0
    194    195    196    202   5     0.00000     0.00000     1.95811  0.0
    194    195    196    203   5     0.00000     0.00000     1.95811  0.0
    197    195    196    201   5     0.00000     0.00000     1.25520  0.0
    197    195    196    202   5     0.00000     0.00000     1.25520  0.0
    197    195    196    203   5     0.00000     0.00000     1.25520  0.0
    200    195    196    201   5     0.00000     0.00000     1.25520  0.0
    200    195    196    202   5     0.00000     0.00000     1.25520  0.0
    200    195    196    203   5     0.00000     0.00000     1.25520  0.0
    194    195    197    198   5    -0.79078    -9.45166     4.51872  0.0
    194    195    197    204   5     0.00000     0.00000     1.95811  0.0
    194    195    197    205   5     0.00000     0.00000     1.95811  0.0
    196    195    197    198   5    -8.00818    -1.52298     2.46438  0.0
    196    195    197    204   5     0.00000     0.00000     1.25520  0.0
    196    195    197    205   5     0.00000     0.00000     1.25520  0.0
    200    195    197    198   5     0.00000     0.00000    -0.94140  0.0
    200    195    197    204   5     0.00000     0.00000     1.25520  0.0
    200    195    197    205   5     0.00000     0.00000     1.25520  0.0
    195    197    198    199   5     0.00000     2.52295     0.00000  0.0
    195    197    198    206   5     0.00000     0.00000     3.07524  0.0
    204    197    198    199   5     0.00000     0.00000     0.00000  0.0
    204    197    198    206   5     0.00000     0.00000     0.00000  0.0
    205    197    198    199   5     0.00000     0.00000     0.00000  0.0
    205    197    198    206   5     0.00000     0.00000     0.00000  0.0
    197    198    206    207   5    13.65239    24.43456     0.00000  0.0
    199    198    206    207   5     0.00000    25.10400     0.00000  0.0
    198    206    207    208   5    -2.16731    -3.93296     0.98324  0.0
    198    206    207    209   5    -2.16731    -3.93296     0.98324  0.0
    198    206    207    212   5     0.00000     0.00000     0.67362  0.0
    206    207    208    213   5     0.00000     0.00000     1.95811  0.0
    206    207    208    214   5     0.00000     0.00000     1.95811  0.0
    206    207    208    215   5     0.00000     0.00000     1.95811  0.0
    209    207    208    213   5     0.00000     0.00000     1.25520  0.0
    209    207    208    214   5     0.00000     0.00000     1.25520  0.0
    209    207    208    215   5     0.00000     0.00000     1.25520  0.0
    212    207    208    213   5     0.00000     0.00000     1.25520  0.0
    212    207    208    214   5     0.00000     0.00000     1.25520  0.0
    212    207    208    215   5     0.00000     0.00000     1.25520  0.0
    206    207    209    210   5    -0.79078    -9.45166     4.51872  0.0
    206    207    209    216   5     0.00000     0.00000     1.95811  0.0
    206    207    209    217   5     0.00000     0.00000     1.95811  0.0
    208    207    209    210   5    -8.00818    -1.52298     2.46438  0.0
    208    207    209    216   5     0.00000     0.00000     1.25520  0.0
    208    207    209    217   5     0.00000     0.00000     1.25520  0.0
    212    207    209    210   5     0.00000     0.00000    -0.94140  0.0
    212    207    209    216   5     0.00000     0.00000     1.25520  0.0
    212    207    209    217   5     0.00000     0.00000     1.25520  0.0
    207    209    210    211   5     0.00000     2.52295     0.00000  0.0
    207    209    210    218   5     0.00000     0.00000     3.07524  0.0
    216    209    210    211   5     0.00000     0.00000     0.00000  0.0
    216    209    210    218   5     0.00000     0.00000     0.00000  0.0
    217    209    210    211   5     0.00000     0.00000     0.00000  0.0
    217    209    210    218   5     0.00000     0.00000     0.00000  0.0
    209    210    218    219   5    13.65239    24.43456     0.00000  0.0
    211    210    218    219   5     0.00000    25.10400     0.00000  0.0
    210    218    219    220   5    -2.16731    -3.93296     0.98324  0.0
    210    218    219    221   5    -2.16731    -3.93296     0.98324  0.0
    210    218    219    224   5     0.00000     0.00000     0.67362  0.0
    218    219    220    225   5     0.00000     0.00000     1.95811  0.0
    218    219    220    226   5     0.00000     0.00000     1.95811  0.0
    218    219    220    227   5     0.00000     0.00000     1.95811  0.0
    221    219    220    225   5     0.00000     0.00000     1.25520  0.0
    221    219    220    226   5     0.00000     0.00000     1.25520  0.0
    221    219    220    227   5     0.00000     0.00000     1.25520  0.0
    224    219    220    225   5     0.00000     0.00000     1.25520  0.0
    224    219    220    226   5     0.00000     0.00000     1.25520  0.0
    224    219    220    227   5     0.00000     0.00000     1.25520  0.0
    218    219    221    222   5    -0.79078    -9.45166     4.51872  0.0
    218    219    221    228   5     0.00000     0.00000     1.95811  0.0
    218    219    221    229   5     0.00000     0.00000     1.95811  0.0
    220    219    221    222   5    -8.00818    -1.52298     2.46438  0.0
    220    219    221    228   5     0.00000     0.00000     1.25520  0.0
    220    219    221    229   5     0.00000     0.00000     1.25520  0.0
    224    219    221    222   5     0.00000     0.00000    -0.94140  0.0
    224    219    221    228   5     0.00000     0.00000     1.25520  0.0
    224    219    221    229   5     0.00000     0.00000     1.25520  0.0
    219    221    222    223   5     0.00000     2.52295     0.00000  0.0
    219    221    222    230   5     0.00000     0.00000     3.07524  0.0
    228    221    222    223   5     0.00000     0.00000     0.00000  0.0
    228    221    222    230   5     0.00000     0.00000     0.00000  0.0
    229    221    222    223   5     0.00000     0.00000     0.00000  0.0
    229    221    222    230   5     0.00000     0.00000     0.00000  0.0
    221    222    230    231   5    13.65239    24.43456     0.00000  0.0
    223    222    230    231   5     0.00000    25.10400     0.00000  0.0
    222    230    231    232   5    -2.16731    -3.93296     0.98324  0.0
    222    230    231    233   5    -2.16731    -3.93296     0.98324  0.0
    222    230    231    236   5     0.00000     0.00000     0.67362  0.0
    230    231    232    237   5     0.00000     0.00000     1.95811  0.0
    230    231    232    238   5     0.00000     0.00000     1.95811  0.0
    230    231    232    239   5     0.00000     0.00000     1.95811  0.0
    233    231    232    237   5     0.00000     0.00000     1.25520  0.0
    233    231    232    238   5     0.00000     0.00000     1.25520  0.0
    233    231    232    239   5     0.00000     0.00000     1.25520  0.0
    236    231    232    237   5     0.00000     0.00000     1.25520  0.0
    236    231    232    238   5     0.00000     0.00000     1.25520  0.0
    236    231    232    239   5     0.00000     0.00000     1.25520  0.0
    230    231    233    234   5    -0.79078    -9.45166     4.51872  0.0
    230    231    233    240   5     0.00000     0.00000     1.95811  0.0
    230    231    233    241   5     0.00000     0.00000     1.95811  0.0
    232    231    233    234   5    -8.00818    -1.52298     2.46438  0.0
    232    231    233    240   5     0.00000     0.00000     1.25520  0.0
    232    231    233    241   5     0.00000     0.00000     1.25520  0.0
    236    231    233    234   5     0.00000     0.00000    -0.94140  0.0
    236    231    233    240   5     0.00000     0.00000     1.25520  0.0
    236    231    233    241   5     0.00000     0.00000     1.25520  0.0
    231    233    234    235   5     0.00000     2.52295     0.00000  0.0
    231    233    234    242   5     6.23834    -0.04184     0.00000  0.0
    240    233    234    235   5     0.00000     0.00000     0.00000  0.0
    240    233    234    242   5     0.00000     0.00000     0.00000  0.0
    241    233    234    235   5     0.00000     0.00000     0.00000  0.0
    241    233    234    242   5     0.00000     0.00000     0.00000  0.0

[ dihedrals ]
; Improper dihedrals
; h   i   j   k   funct
      4      6      5     14   5     0.00000    87.86400     0.00000  0.0
     17     19     18     26   5     0.00000    87.86400     0.00000  0.0
     29     31     30     38   5     0.00000    87.86400     0.00000  0.0
     41     43     42     50   5     0.00000    87.86400     0.00000  0.0
     53     55     54     62   5     0.00000    87.86400     0.00000  0.0
     65     67     66     74   5     0.00000    87.86400     0.00000  0.0
     77     79     78     86   5     0.00000    87.86400     0.00000  0.0
     89     91     90     98   5     0.00000    87.86400     0.00000  0.0
    101    103    102    110   5     0.00000    87.86400     0.00000  0.0
    113    115    114    122   5     0.00000    87.86400     0.00000  0.0
    125    127    126    134   5     0.00000    87.86400     0.00000  0.0
    137    139    138    146   5     0.00000    87.86400     0.00000  0.0
    149    151    150    158   5     0.00000    87.86400     0.00000  0.0
    161    163    162    170   5     0.00000    87.86400     0.00000  0.0
    173    175    174    182   5     0.00000    87.86400     0.00000  0.0
    185    187    186    194   5     0.00000    87.86400     0.00000  0.0
    197    199    198    206   5     0.00000    87.86400     0.00000  0.0
    209    211    210    218   5     0.00000    87.86400     0.00000  0.0
    221    223    222    230   5     0.00000    87.86400     0.00000  0.0
    233    235    234    242   5     0.00000    87.86400     0.00000  0.0
